<event>
12    1  0.8313893E-002  0.2625609E+03  0.7818608E-02  0.1106066E+00
         21   -1    0    0  501  502  0.00000000000E+00  0.00000000000E+00  0.26883615720E+03  0.26883615720E+03  0.00000000000E+00 0. -1.
         21   -1    0    0  502  503 -0.00000000000E+00 -0.00000000000E+00 -0.36138060154E+03  0.36138060154E+03  0.00000000000E+00 0. -1.
         -6    2    1    2    0  503  0.15426702763E+03 -0.11821880377E+03 -0.21863757539E+03  0.34167328470E+03  0.17653397046E+03 0.  0.
        -24    2    3    3    0    0  0.17210236006E+03 -0.62885591684E+02 -0.13589741821E+03  0.24044143668E+03  0.75961544340E+02 0.  0.
          6    2    1    2  501    0 -0.15426702763E+03  0.11821880377E+03  0.12609313105E+03  0.28854347405E+03  0.17199958529E+03 0.  0.
         24    2    5    5    0    0 -0.45322129937E+02  0.11442000399E+03  0.95223983310E+02  0.17514851871E+03  0.80395048577E+02 0.  0.
          5    1    5    5  501    0 -0.10894489769E+03  0.37987997822E+01  0.30869147738E+02  0.11339495533E+03  0.47000000000E+01 0. -1.
        -11    1    6    6    0    0 -0.23822558483E+02  0.79415498204E+02  0.13942305904E+02  0.84075701256E+02  0.00000000000E+00 0.  1.
         12    1    6    6    0    0 -0.21499571454E+02  0.35004505783E+02  0.81281677406E+02  0.91072817458E+02  0.00000000000E+00 0. -1.
         -5    1    3    3    0  503 -0.17835332430E+02 -0.55333212086E+02 -0.82740157175E+02  0.10123184801E+03  0.47000000000E+01 0.  1.
         11    1    4    4    0    0  0.10158192122E+03 -0.48801104965E+02 -0.12398352405E+03  0.16754804923E+03  0.00000000000E+00 0. -1.
        -12    1    4    4    0    0  0.70520438838E+02 -0.14084486719E+02 -0.11913894157E+02  0.72893387451E+02  0.00000000000E+00 0.  1.
</event>
<event>
12    1  0.8313893E-002  0.2572034E+03  0.7818608E-02  0.1108863E+00
         21   -1    0    0  503  502  0.00000000000E+00  0.00000000000E+00  0.39381108917E+03  0.39381108917E+03  0.00000000000E+00 0.  1.
         21   -1    0    0  501  503 -0.00000000000E+00 -0.00000000000E+00 -0.53402680740E+03  0.53402680740E+03  0.00000000000E+00 0.  1.
          6    2    1    2  501    0 -0.15985230357E+03  0.10373385916E+03 -0.45426395496E+03  0.52202425086E+03  0.17274288758E+03 0.  0.
         24    2    3    3    0    0 -0.16486701407E+03  0.11871026438E+03 -0.45602609770E+03  0.50545213024E+03  0.79049319964E+02 0.  0.
         -6    2    1    2    0  502  0.15985230357E+03 -0.10373385916E+03  0.31404823673E+03  0.40581364571E+03  0.17246723617E+03 0.  0.
        -24    2    5    5    0    0  0.10094721567E+02 -0.62553441510E+02  0.12719154523E+03  0.16278962770E+03  0.79422523640E+02 0.  0.
          5    1    3    3  501    0  0.50147105009E+01 -0.14976405216E+02  0.17621427368E+01  0.16572120614E+02  0.47000000000E+01 0. -1.
        -13    1    4    4    0    0  0.36091113267E+01 -0.18179857149E+01 -0.44954797706E+02  0.45136067545E+02  0.00000000000E+00 0.  1.
         14    1    4    4    0    0 -0.16847612540E+03  0.12052825009E+03 -0.41107129999E+03  0.46031606270E+03  0.00000000000E+00 0. -1.
         -5    1    5    5    0  502  0.14975758201E+03 -0.41180417650E+02  0.18685669151E+03  0.24302401800E+03  0.47000000000E+01 0.  1.
         13    1    6    6    0    0  0.20793896005E+02 -0.23618679557E+02  0.23213724561E+01  0.31553397680E+02  0.00000000000E+00 0. -1.
        -14    1    6    6    0    0 -0.10699174438E+02 -0.38934761953E+02  0.12487017277E+03  0.13123623002E+03  0.00000000000E+00 0.  1.
</event>
<event>
12    1  0.8313893E-002  0.1962475E+03  0.7818608E-02  0.1153131E+00
         21   -1    0    0  503  502  0.00000000000E+00  0.00000000000E+00  0.17210766859E+03  0.17210766859E+03  0.00000000000E+00 0. -1.
         21   -1    0    0  501  503 -0.00000000000E+00 -0.00000000000E+00 -0.24050249503E+03  0.24050249503E+03  0.00000000000E+00 0. -1.
          6    2    1    2  501    0 -0.35154251799E+02  0.84978853811E+02 -0.90249865433E+02  0.21600494702E+03  0.17336629405E+03 0.  0.
         24    2    3    3    0    0  0.16642702196E+01  0.10563326900E+03 -0.10706019242E+03  0.17032250484E+03  0.79916916460E+02 0.  0.
         -6    2    1    2    0  502  0.35154251799E+02 -0.84978853811E+02  0.21855038991E+02  0.19660521660E+03  0.17239124529E+03 0.  0.
        -24    2    5    5    0    0  0.81719643909E+02 -0.28653418388E+02 -0.72739641980E+01  0.11779227829E+03  0.79517241432E+02 0.  0.
          5    1    3    3  501    0 -0.36818522018E+02 -0.20654415193E+02  0.16810326989E+02  0.45682442186E+02  0.47000000000E+01 0. -1.
        -11    1    4    4    0    0  0.52554873835E+01  0.61390376783E+01  0.12408446892E+02  0.14808020986E+02  0.00000000000E+00 0.  1.
         12    1    4    4    0    0 -0.35912171639E+01  0.99494231325E+02 -0.11946863931E+03  0.15551448385E+03  0.00000000000E+00 0. -1.
         -5    1    5    5    0  502 -0.46565392110E+02 -0.56325435423E+02  0.29129003189E+02  0.78812938308E+02  0.47000000000E+01 0.  1.
         13    1    6    6    0    0  0.17453218067E+01 -0.34214343909E+02  0.10195043098E+02  0.35743620145E+02  0.00000000000E+00 0. -1.
        -14    1    6    6    0    0  0.79974322102E+02  0.55609255207E+01 -0.17469007296E+02  0.82048658150E+02  0.00000000000E+00 0.  1.
</event>
<event>
12    1  0.8313893E-002  0.1979586E+03  0.7818608E-02  0.1152908E+00
         21   -1    0    0  503  502  0.00000000000E+00  0.00000000000E+00  0.42143571952E+02  0.42143571952E+02  0.00000000000E+00 0.  1.
         21   -1    0    0  501  503 -0.00000000000E+00 -0.00000000000E+00 -0.92533618366E+03  0.92533618366E+03  0.00000000000E+00 0. -1.
          6    2    1    2  501    0  0.85223453027E+02  0.45818713271E+02 -0.51568860062E+03  0.55005096203E+03  0.16510280611E+03 0.  0.
         24    2    3    3    0    0  0.78058373452E+02  0.86606014725E+02 -0.31251169654E+03  0.34264342437E+03  0.78404364280E+02 0.  0.
         -6    2    1    2    0  502 -0.85223453027E+02 -0.45818713271E+02 -0.36750401109E+03  0.41742879359E+03  0.17269976293E+03 0.  0.
        -24    2    5    5    0    0  0.18191855769E+02 -0.27982916071E+02 -0.11260283003E+03  0.14173050948E+03  0.79335696742E+02 0.  0.
          5    1    3    3  501    0  0.71650795748E+01 -0.40787301454E+02 -0.20317690408E+03  0.20740753765E+03  0.47000000000E+01 0. -1.
        -11    1    4    4    0    0  0.10895477152E+02 -0.16924149325E+01 -0.16037722814E-02  0.11026136823E+02  0.00000000000E+00 0.  1.
         12    1    4    4    0    0  0.67162896301E+02  0.88298429657E+02 -0.31251009277E+03  0.33161728755E+03  0.00000000000E+00 0. -1.
         -5    1    5    5    0  502 -0.10341530880E+03 -0.17835797200E+02 -0.25490118106E+03  0.27569828411E+03  0.47000000000E+01 0.  1.
         11    1    6    6    0    0 -0.25152494187E+02 -0.33735415202E+02 -0.49661510157E+02  0.65092179206E+02  0.00000000000E+00 0. -1.
        -12    1    6    6    0    0  0.43344349956E+02  0.57524991309E+01 -0.62941319878E+02  0.76638330275E+02  0.00000000000E+00 0.  1.
</event>
<event>
12    1  0.8313893E-002  0.2284812E+03  0.7818608E-02  0.1128876E+00
         21   -1    0    0  503  502  0.00000000000E+00  0.00000000000E+00  0.34121715944E+02  0.34121715944E+02  0.00000000000E+00 0.  1.
         21   -1    0    0  501  503 -0.00000000000E+00 -0.00000000000E+00 -0.14876972054E+04  0.14876972054E+04  0.00000000000E+00 0.  1.
          6    2    1    2  501    0 -0.13587725044E+03  0.40755615035E+02 -0.75309976744E+03  0.78699613311E+03  0.17910892345E+03 0.  0.
         24    2    3    3    0    0 -0.16484400365E+03  0.32012823427E+02 -0.71108640336E+03  0.73500842342E+03  0.79969638343E+02 0.  0.
         -6    2    1    2    0  502  0.13587725044E+03 -0.40755615035E+02 -0.70047572202E+03  0.73482278824E+03  0.17080587120E+03 0.  0.
        -24    2    5    5    0    0  0.11019162729E+02  0.18158940664E+02 -0.23257281647E+03  0.24695427526E+03  0.80281567209E+02 0.  0.
          5    1    3    3  501    0  0.28966753210E+02  0.87427916080E+01 -0.42013364083E+02  0.51987709684E+02  0.47000000000E+01 0. -1.
        -13    1    4    4    0    0 -0.75099011737E+02 -0.22262658206E+02 -0.24285798875E+03  0.25517737010E+03  0.00000000000E+00 0.  1.
         14    1    4    4    0    0 -0.89744991915E+02  0.54275481633E+02 -0.46822841461E+03  0.47983105332E+03  0.00000000000E+00 0. -1.
         -5    1    5    5    0  502  0.12485808771E+03 -0.58914555698E+02 -0.46790290554E+03  0.48786851298E+03  0.47000000000E+01 0.  1.
         11    1    6    6    0    0  0.26772252567E+00  0.45606266351E+02 -0.84963076538E+02  0.96429910197E+02  0.00000000000E+00 0. -1.
        -12    1    6    6    0    0  0.10751440203E+02 -0.27447325687E+02 -0.14760973993E+03  0.15052436506E+03  0.00000000000E+00 0.  1.
</event>
<event>
12    1  0.8313893E-002  0.1785374E+03  0.7818608E-02  0.1169546E+00
         21   -1    0    0  503  502  0.00000000000E+00  0.00000000000E+00  0.54358744579E+02  0.54358744579E+02  0.00000000000E+00 0. -1.
         21   -1    0    0  501  503 -0.00000000000E+00 -0.00000000000E+00 -0.11973244886E+04  0.11973244886E+04  0.00000000000E+00 0. -1.
          6    2    1    2  501    0 -0.42873135897E+02  0.41949196891E+01 -0.10190730509E+04  0.10343700620E+04  0.17191811730E+03 0.  0.
         24    2    3    3    0    0  0.37523546962E+02  0.17491313320E+02 -0.39499787263E+03  0.40497961182E+03  0.79190933786E+02 0.  0.
         -6    2    1    2    0  502  0.42873135897E+02 -0.41949196891E+01 -0.12389269317E+03  0.21731317118E+03  0.17326255168E+03 0.  0.
        -24    2    5    5    0    0  0.18415002826E+02 -0.69363923821E+02 -0.88510955792E+02  0.13908813227E+03  0.79754955867E+02 0.  0.
          5    1    3    3  501    0 -0.80396682859E+02 -0.13296393631E+02 -0.62407517823E+03  0.62939045019E+03  0.47000000000E+01 0. -1.
        -11    1    4    4    0    0 -0.15451779889E+02 -0.32759594865E+01 -0.22814970203E+03  0.22869581533E+03  0.00000000000E+00 0.  1.
         12    1    4    4    0    0  0.52975326852E+02  0.20767272806E+02 -0.16684817059E+03  0.17628379649E+03  0.00000000000E+00 0. -1.
         -5    1    5    5    0  502  0.24458133071E+02  0.65169004132E+02 -0.35381737374E+02  0.78225038910E+02  0.47000000000E+01 0.  1.
         11    1    6    6    0    0 -0.26659544682E+02 -0.20498092438E+02 -0.77972835678E+01  0.34521018920E+02  0.00000000000E+00 0. -1.
        -12    1    6    6    0    0  0.45074547508E+02 -0.48865831383E+02 -0.80713672224E+02  0.10456711335E+03  0.00000000000E+00 0.  1.
</event>
<event>
12    1  0.8313893E-002  0.1838550E+03  0.7818608E-02  0.1164160E+00
         21   -1    0    0  501  502  0.00000000000E+00  0.00000000000E+00  0.14806734679E+03  0.14806734679E+03  0.00000000000E+00 0.  1.
         21   -1    0    0  502  503 -0.00000000000E+00 -0.00000000000E+00 -0.31611937909E+03  0.31611937909E+03  0.00000000000E+00 0. -1.
         -6    2    1    2    0  503 -0.63210580996E+02 -0.14586626881E+02 -0.20646892910E+03  0.27636091636E+03  0.17186503477E+03 0.  0.
        -24    2    3    3    0    0  0.22865667071E+02 -0.29062462450E+02 -0.14453443149E+03  0.16923182465E+03  0.79885813098E+02 0.  0.
          6    2    1    2  501    0  0.63210580996E+02  0.14586626881E+02  0.38416896808E+02  0.18782580952E+03  0.17203002507E+03 0.  0.
         24    2    5    5    0    0  0.76722089169E+02 -0.15903136216E+02 -0.26976569475E+02  0.11426915150E+03  0.78679825719E+02 0.  0.
          5    1    5    5  501    0 -0.13511508173E+02  0.30489763097E+02  0.65393466282E+02  0.73556658021E+02  0.47000000000E+01 0. -1.
        -13    1    6    6    0    0  0.54006655845E+02 -0.31640087070E+02  0.14669784946E+02  0.64288541559E+02  0.00000000000E+00 0.  1.
         14    1    6    6    0    0  0.22715433323E+02  0.15736950853E+02 -0.41646354421E+02  0.49980609938E+02  0.00000000000E+00 0. -1.
         -5    1    3    3    0  503 -0.86076248067E+02  0.14475835570E+02 -0.61934497614E+02  0.10712909171E+03  0.47000000000E+01 0.  1.
         11    1    4    4    0    0  0.16473995323E+02 -0.56915224034E+02 -0.10275369239E+03  0.11861305387E+03  0.00000000000E+00 0. -1.
        -12    1    4    4    0    0  0.63916717479E+01  0.27852761584E+02 -0.41780739101E+02  0.50618770781E+02  0.00000000000E+00 0.  1.
</event>
<event>
12    1  0.8313893E-002  0.2004568E+03  0.7818608E-02  0.1149394E+00
         21   -1    0    0  501  502  0.00000000000E+00  0.00000000000E+00  0.24559947673E+03  0.24559947673E+03  0.00000000000E+00 0. -1.
         21   -1    0    0  502  503 -0.00000000000E+00 -0.00000000000E+00 -0.12178335445E+04  0.12178335445E+04  0.00000000000E+00 0. -1.
         -6    2    1    2    0  503  0.92888509519E+02  0.46524371270E+02 -0.11669288186E+04  0.11839889842E+04  0.17121406112E+03 0.  0.
        -24    2    3    3    0    0 -0.15177991879E+01 -0.84156528599E+01 -0.32641814257E+03  0.33639754731E+03  0.80878792728E+02 0.  0.
          6    2    1    2  501    0 -0.92888509519E+02 -0.46524371270E+02  0.19469475082E+03  0.27944403702E+03  0.17143550247E+03 0.  0.
         24    2    5    5    0    0  0.50457282352E+01  0.13251530751E+02  0.10544589368E+03  0.13400772145E+03  0.81474968383E+02 0.  0.
          5    1    5    5  501    0 -0.97934237754E+02 -0.59775902021E+02  0.89248857147E+02  0.14543631558E+03  0.47000000000E+01 0. -1.
        -13    1    6    6    0    0  0.57948204882E+00  0.45338150485E+02  0.83058926937E+02  0.94629113030E+02  0.00000000000E+00 0.  1.
         14    1    6    6    0    0  0.44662461864E+01 -0.32086619734E+02  0.22386966740E+02  0.39378608416E+02  0.00000000000E+00 0. -1.
         -5    1    3    3    0  503  0.94406308707E+02  0.54940024130E+02 -0.84051067604E+03  0.84759143691E+03  0.47000000000E+01 0.  1.
         13    1    4    4    0    0  0.25308097751E+02  0.34080579245E+01 -0.28214454164E+03  0.28329782394E+03  0.00000000000E+00 0. -1.
        -14    1    4    4    0    0 -0.26825896939E+02 -0.11823710784E+02 -0.44273600925E+02  0.53099723372E+02  0.00000000000E+00 0.  1.
</event>
<event>
12    1  0.8313893E-002  0.2202318E+03  0.7818608E-02  0.1133711E+00
         21   -1    0    0  501  502  0.00000000000E+00  0.00000000000E+00  0.41561628666E+03  0.41561628666E+03  0.00000000000E+00 0.  1.
         21   -1    0    0  502  503 -0.00000000000E+00 -0.00000000000E+00 -0.16637001732E+03  0.16637001732E+03  0.00000000000E+00 0. -1.
         -6    2    1    2    0  503  0.12025032769E+03  0.67570898926E+02 -0.34379200587E+02  0.22289897685E+03  0.17168592474E+03 0.  0.
        -24    2    3    3    0    0  0.11435645441E+03  0.69397374877E+02 -0.81894265118E+02  0.17475497292E+03  0.77066436257E+02 0.  0.
          6    2    1    2  501    0 -0.12025032769E+03 -0.67570898926E+02  0.28362546992E+03  0.35908732713E+03  0.17168090641E+03 0.  0.
         24    2    5    5    0    0 -0.58210506212E+02  0.53504783021E+00  0.23401128965E+03  0.25434470774E+03  0.80877669114E+02 0.  0.
          5    1    5    5  501    0 -0.62039821481E+02 -0.68105946756E+02  0.49614180276E+02  0.10474261939E+03  0.47000000000E+01 0. -1.
        -13    1    6    6    0    0 -0.88664680407E+01 -0.71781627263E+01  0.18156394435E+03  0.18192197823E+03  0.00000000000E+00 0.  1.
         14    1    6    6    0    0 -0.49344038172E+02  0.77132105565E+01  0.52447345297E+02  0.72422729505E+02  0.00000000000E+00 0. -1.
         -5    1    3    3    0  503  0.58938732866E+01 -0.18264759510E+01  0.47515064530E+02  0.48144003926E+02  0.47000000000E+01 0.  1.
         13    1    4    4    0    0  0.90760446725E+02  0.26814216965E+02 -0.83262668663E+02  0.12605210397E+03  0.00000000000E+00 0. -1.
        -14    1    4    4    0    0  0.23596007683E+02  0.42583157912E+02  0.13684035458E+01  0.48702868957E+02  0.00000000000E+00 0.  1.
</event>
<event>
12    1  0.8313893E-002  0.2235242E+03  0.7818608E-02  0.1132210E+00
         21   -1    0    0  503  502  0.00000000000E+00  0.00000000000E+00  0.30259886485E+03  0.30259886485E+03  0.00000000000E+00 0.  1.
         21   -1    0    0  501  503 -0.00000000000E+00 -0.00000000000E+00 -0.28540157001E+03  0.28540157001E+03  0.00000000000E+00 0.  1.
          6    2    1    2  501    0 -0.12061768656E+03  0.56154926824E+02  0.20241551297E+03  0.30155451242E+03  0.17961370202E+03 0.  0.
         24    2    3    3    0    0 -0.27799167663E+02 -0.16430383762E+01  0.16658684009E+03  0.18639520523E+03  0.78844809238E+02 0.  0.
         -6    2    1    2    0  502  0.12061768656E+03 -0.56154926824E+02 -0.18521821813E+03  0.28644592244E+03  0.17333053982E+03 0.  0.
        -24    2    5    5    0    0  0.75802769758E+02 -0.30769005685E+02 -0.20191108212E+03  0.23209922550E+03  0.80057315597E+02 0.  0.
          5    1    3    3  501    0 -0.92818518900E+02  0.57797965200E+02  0.35828672873E+02  0.11515930719E+03  0.47000000000E+01 0. -1.
        -13    1    4    4    0    0  0.21761545710E+02  0.18921183281E+02  0.44362130637E+02  0.52911007202E+02  0.00000000000E+00 0.  1.
         14    1    4    4    0    0 -0.49560713373E+02 -0.20564221657E+02  0.12222470946E+03  0.13348419803E+03  0.00000000000E+00 0. -1.
         -5    1    5    5    0  502  0.44814916805E+02 -0.25385921138E+02  0.16692863985E+02  0.54346696940E+02  0.47000000000E+01 0.  1.
         11    1    6    6    0    0  0.78467491071E+02 -0.13983877952E+02 -0.95731625107E+02  0.12456821442E+03  0.00000000000E+00 0. -1.
        -12    1    6    6    0    0 -0.26647213123E+01 -0.16785127733E+02 -0.10617945701E+03  0.10753101108E+03  0.00000000000E+00 0.  1.
</event>
<event>
12    1  0.8313893E-002  0.1963102E+03  0.7818608E-02  0.1153630E+00
         21   -1    0    0  503  502  0.00000000000E+00  0.00000000000E+00  0.19589298192E+03  0.19589298192E+03  0.00000000000E+00 0.  1.
         21   -1    0    0  501  503 -0.00000000000E+00 -0.00000000000E+00 -0.22010894009E+03  0.22010894009E+03  0.00000000000E+00 0.  1.
          6    2    1    2  501    0 -0.64038578133E+02 -0.59930271370E+02  0.60332383799E+02  0.20537205101E+03  0.17562774806E+03 0.  0.
         24    2    3    3    0    0 -0.10703928688E+03 -0.58604049403E+02  0.68560997667E+02  0.16131958339E+03  0.80196970284E+02 0.  0.
         -6    2    1    2    0  502  0.64038578133E+02  0.59930271370E+02 -0.84548341974E+02  0.21062987100E+03  0.17182532849E+03 0.  0.
        -24    2    5    5    0    0  0.28312109022E+02  0.99458900256E+02 -0.30180718516E+02  0.13436178083E+03  0.80302951508E+02 0.  0.
          5    1    3    3  501    0  0.43000708747E+02 -0.13262219672E+01 -0.82286138680E+01  0.44052467622E+02  0.47000000000E+01 0. -1.
        -13    1    4    4    0    0 -0.50662366514E+02 -0.67797622095E+02  0.59562815347E+02  0.10349358393E+03  0.00000000000E+00 0.  1.
         14    1    4    4    0    0 -0.56376920366E+02  0.91935726928E+01  0.89981823200E+01  0.57825999463E+02  0.00000000000E+00 0. -1.
         -5    1    5    5    0  502  0.35726469111E+02 -0.39528628887E+02 -0.54367623458E+02  0.76268090164E+02  0.47000000000E+01 0.  1.
         11    1    6    6    0    0  0.24521452783E+02  0.24188400989E+01 -0.27896956978E+02  0.37220863003E+02  0.00000000000E+00 0. -1.
        -12    1    6    6    0    0  0.37906562393E+01  0.97040060158E+02 -0.22837615375E+01  0.97140917830E+02  0.00000000000E+00 0.  1.
</event>
<event>
12    1  0.8313893E-002  0.2332706E+03  0.7818608E-02  0.1124444E+00
         21   -1    0    0  503  502  0.00000000000E+00  0.00000000000E+00  0.13943561864E+03  0.13943561864E+03  0.00000000000E+00 0. -1.
         21   -1    0    0  501  503 -0.00000000000E+00 -0.00000000000E+00 -0.40518566668E+03  0.40518566668E+03  0.00000000000E+00 0. -1.
          6    2    1    2  501    0  0.71231571772E+02 -0.13925963713E+03 -0.18671860268E+03  0.29879595414E+03  0.17305491115E+03 0.  0.
         24    2    3    3    0    0  0.52315336595E+02 -0.42441891058E+01 -0.60709230233E+02  0.11308799227E+03  0.79676695307E+02 0.  0.
         -6    2    1    2    0  502 -0.71231571772E+02  0.13925963713E+03 -0.79031445362E+02  0.24582533118E+03  0.17238602247E+03 0.  0.
        -24    2    5    5    0    0 -0.70095154632E+02  0.17040361434E+03 -0.71619926634E+02  0.21344849733E+03  0.80499221337E+02 0.  0.
          5    1    3    3  501    0  0.18916235177E+02 -0.13501544803E+03 -0.12600937245E+03  0.18570796187E+03  0.47000000000E+01 0. -1.
        -13    1    4    4    0    0  0.14417131224E+01 -0.26917578124E+02  0.45007598863E+01  0.27329313719E+02  0.00000000000E+00 0.  1.
         14    1    4    4    0    0  0.50873623473E+02  0.22673389018E+02 -0.65209990120E+02  0.85758678547E+02  0.00000000000E+00 0. -1.
         -5    1    5    5    0  502 -0.11364171400E+01 -0.31143977211E+02 -0.74115187278E+01  0.32376833852E+02  0.47000000000E+01 0.  1.
         11    1    6    6    0    0 -0.84696029524E+02  0.14257527333E+03 -0.74679046437E+02  0.18187381879E+03  0.00000000000E+00 0. -1.
        -12    1    6    6    0    0  0.14600874892E+02  0.27828341011E+02  0.30591198026E+01  0.31574678541E+02  0.00000000000E+00 0.  1.
</event>
<event>
12    1  0.8313893E-002  0.2400920E+03  0.7818608E-02  0.1119736E+00
         21   -1    0    0  503  502  0.00000000000E+00  0.00000000000E+00  0.20843897874E+03  0.20843897874E+03  0.00000000000E+00 0. -1.
         21   -1    0    0  501  503 -0.00000000000E+00 -0.00000000000E+00 -0.27702866434E+03  0.27702866434E+03  0.00000000000E+00 0.  1.
          6    2    1    2  501    0 -0.15694021003E+03 -0.56883719101E+02 -0.44652697892E+02  0.24420896280E+03  0.17256351602E+03 0.  0.
         24    2    3    3    0    0 -0.33725473389E+02  0.16557835819E+02 -0.54221669924E+02  0.10037159443E+03  0.75649838049E+02 0.  0.
         -6    2    1    2    0  502  0.15694021003E+03  0.56883719101E+02 -0.23936987708E+02  0.24125868029E+03  0.17253053182E+03 0.  0.
        -24    2    5    5    0    0  0.10501213341E+03 -0.32015720211E+02 -0.25752248603E+02  0.13818093961E+03  0.79863879559E+02 0.  0.
          5    1    3    3  501    0 -0.12321473664E+03 -0.73441554920E+02  0.95689720314E+01  0.14383736837E+03  0.47000000000E+01 0. -1.
        -11    1    4    4    0    0  0.12307017203E+02 -0.11856067144E+02  0.71830488351E+01  0.18537130067E+02  0.00000000000E+00 0.  1.
         12    1    4    4    0    0 -0.46032490593E+02  0.28413902963E+02 -0.61404718759E+02  0.81834464363E+02  0.00000000000E+00 0. -1.
         -5    1    5    5    0  502  0.51928076616E+02  0.88899439312E+02  0.18152608948E+01  0.10307774068E+03  0.47000000000E+01 0.  1.
         13    1    6    6    0    0  0.33201652185E+02  0.31885255760E+01  0.26541699926E+02  0.42626027707E+02  0.00000000000E+00 0. -1.
        -14    1    6    6    0    0  0.71810481230E+02 -0.35204245787E+02 -0.52293948528E+02  0.95554911902E+02  0.00000000000E+00 0.  1.
</event>
<event>
12    1  0.8313893E-002  0.1794583E+03  0.7818608E-02  0.1168517E+00
         21   -1    0    0  501  502  0.00000000000E+00  0.00000000000E+00  0.25334963653E+03  0.25334963653E+03  0.00000000000E+00 0.  1.
         21   -1    0    0  502  503 -0.00000000000E+00 -0.00000000000E+00 -0.22985766860E+03  0.22985766860E+03  0.00000000000E+00 0.  1.
         -6    2    1    2    0  503  0.46678959878E+02 -0.17828261729E+02 -0.15019628226E+03  0.23401749261E+03  0.17236151378E+03 0.  0.
        -24    2    3    3    0    0  0.77409096025E+02  0.15556333558E+02 -0.45880637414E+02  0.12016356765E+03  0.78103024527E+02 0.  0.
          6    2    1    2  501    0 -0.46678959878E+02  0.17828261729E+02  0.17368825018E+03  0.24918981252E+03  0.17155518704E+03 0.  0.
         24    2    5    5    0    0  0.12345368256E+02 -0.43389807570E+02  0.71740068892E+02  0.11634763176E+03  0.79718570064E+02 0.  0.
          5    1    5    5  501    0 -0.59024328134E+02  0.61218069299E+02  0.10194818129E+03  0.13284218076E+03  0.47000000000E+01 0. -1.
        -13    1    6    6    0    0 -0.30108810861E+02 -0.21916136178E+02  0.53948489393E+02  0.65553772006E+02  0.00000000000E+00 0.  1.
         14    1    6    6    0    0  0.42454179117E+02 -0.21473671392E+02  0.17791579498E+02  0.50793859753E+02  0.00000000000E+00 0. -1.
         -5    1    3    3    0  503 -0.30730136147E+02 -0.33384595287E+02 -0.10431564484E+03  0.11385392496E+03  0.47000000000E+01 0.  1.
         13    1    4    4    0    0  0.32080162875E+02  0.21143320958E+02  0.17355291779E+02  0.42159020671E+02  0.00000000000E+00 0. -1.
        -14    1    4    4    0    0  0.45328933150E+02 -0.55869873998E+01 -0.63235929194E+02  0.78004546981E+02  0.00000000000E+00 0.  1.
</event>
<event>
12    1  0.8313893E-002  0.2460680E+03  0.7818608E-02  0.1116040E+00
         21   -1    0    0  501  502  0.00000000000E+00  0.00000000000E+00  0.19641899498E+03  0.19641899498E+03  0.00000000000E+00 0. -1.
         21   -1    0    0  502  503 -0.00000000000E+00 -0.00000000000E+00 -0.79554687974E+03  0.79554687974E+03  0.00000000000E+00 0.  1.
         -6    2    1    2    0  503  0.52330446368E+02  0.16753945675E+03 -0.68809971707E+03  0.73030681912E+03  0.17046666606E+03 0.  0.
        -24    2    3    3    0    0  0.48591415334E+01  0.30960843635E+02 -0.38296229109E+03  0.39261142224E+03  0.80631429226E+02 0.  0.
          6    2    1    2  501    0 -0.52330446368E+02 -0.16753945675E+03  0.88971832307E+02  0.26165905560E+03  0.17245732589E+03 0.  0.
         24    2    5    5    0    0 -0.10747536596E+02 -0.23338821789E+02 -0.56870298212E+01  0.84161586084E+02  0.79941354245E+02 0.  0.
          5    1    5    5  501    0 -0.41582909772E+02 -0.14420063496E+03  0.94658862129E+02  0.17749746952E+03  0.47000000000E+01 0. -1.
        -11    1    6    6    0    0  0.22367345860E+02 -0.13719135539E+02 -0.31565493259E+02  0.41047450657E+02  0.00000000000E+00 0.  1.
         12    1    6    6    0    0 -0.33114882456E+02 -0.96196862497E+01  0.25878463438E+02  0.43114135426E+02  0.00000000000E+00 0. -1.
         -5    1    3    3    0  503  0.47471304835E+02  0.13657861311E+03 -0.30513742598E+03  0.33769539688E+03  0.47000000000E+01 0.  1.
         13    1    4    4    0    0 -0.16670642458E+02  0.69920939823E+01 -0.15714200665E+02  0.23952782735E+02  0.00000000000E+00 0. -1.
        -14    1    4    4    0    0  0.21529783991E+02  0.23968749653E+02 -0.36724809043E+03  0.36865863951E+03  0.00000000000E+00 0.  1.
</event>
<event>
12    1  0.8313893E-002  0.1930785E+03  0.7818608E-02  0.1155729E+00
         21   -1    0    0  501  502  0.00000000000E+00  0.00000000000E+00  0.24295074919E+03  0.24295074919E+03  0.00000000000E+00 0. -1.
         21   -1    0    0  502  503 -0.00000000000E+00 -0.00000000000E+00 -0.22717593394E+03  0.22717593394E+03  0.00000000000E+00 0. -1.
         -6    2    1    2    0  503 -0.38383607429E+02  0.78008592973E+02 -0.12608006607E+03  0.23053930867E+03  0.17231815889E+03 0.  0.
        -24    2    3    3    0    0  0.31501046157E+01 -0.65547037671E+01 -0.10848470034E+03  0.13458261381E+03  0.79313696381E+02 0.  0.
          6    2    1    2  501    0  0.38383607429E+02 -0.78008592973E+02  0.14185488133E+03  0.23958737446E+03  0.17239681188E+03 0.  0.
         24    2    5    5    0    0  0.71498910747E+02 -0.58187963013E+01  0.51688222437E+02  0.11933719179E+03  0.80148240007E+02 0.  0.
          5    1    5    5  501    0 -0.33115303318E+02 -0.72189796672E+02  0.90166658895E+02  0.12025018268E+03  0.47000000000E+01 0. -1.
        -11    1    6    6    0    0 -0.56124917889E+01  0.10795026224E+02 -0.12645397926E+02  0.17548183495E+02  0.00000000000E+00 0.  1.
         12    1    6    6    0    0  0.77111402535E+02 -0.16613822525E+02  0.64333620363E+02  0.10178900829E+03  0.00000000000E+00 0. -1.
         -5    1    3    3    0  503 -0.41533712044E+02  0.84563296740E+02 -0.17595365739E+02  0.95956694854E+02  0.47000000000E+01 0.  1.
         11    1    4    4    0    0  0.29310323292E+02  0.51331292148E+01 -0.10053725575E+03  0.10484838511E+03  0.00000000000E+00 0. -1.
        -12    1    4    4    0    0 -0.26160218676E+02 -0.11687832982E+02 -0.79474445848E+01  0.29734228701E+02  0.00000000000E+00 0.  1.
</event>
<event>
12    1  0.8313893E-002  0.1895445E+03  0.7818608E-02  0.1159382E+00
         21   -1    0    0  501  502  0.00000000000E+00  0.00000000000E+00  0.24468236888E+03  0.24468236888E+03  0.00000000000E+00 0.  1.
         21   -1    0    0  502  503 -0.00000000000E+00 -0.00000000000E+00 -0.14546362169E+03  0.14546362169E+03  0.00000000000E+00 0.  1.
         -6    2    1    2    0  503 -0.69290676904E+02  0.27831728386E+02  0.40187196081E+02  0.19375789551E+03  0.17421626885E+03 0.  0.
        -24    2    3    3    0    0  0.24235369375E+02  0.72883792679E+01 -0.76087146077E+01  0.86633250334E+02  0.82504266099E+02 0.  0.
          6    2    1    2  501    0  0.69290676904E+02 -0.27831728386E+02  0.59031551108E+02  0.19638809505E+03  0.17177821993E+03 0.  0.
         24    2    5    5    0    0  0.98348069425E+02  0.20353937587E+01  0.80894855870E+02  0.14909675187E+03  0.77520178814E+02 0.  0.
          5    1    5    5  501    0 -0.29057392521E+02 -0.29867122145E+02 -0.21863304762E+02  0.47291343186E+02  0.47000000000E+01 0. -1.
        -13    1    6    6    0    0  0.88723107704E+02 -0.28245965789E+02  0.55287350418E+02  0.10828811357E+03  0.00000000000E+00 0.  1.
         14    1    6    6    0    0  0.96249617210E+01  0.30281359548E+02  0.25607505452E+02  0.40808638297E+02  0.00000000000E+00 0. -1.
         -5    1    3    3    0  503 -0.93526046279E+02  0.20543349118E+02  0.47795910689E+02  0.10712464518E+03  0.47000000000E+01 0.  1.
         11    1    4    4    0    0  0.11477498085E+01  0.43332987085E+02 -0.63423683209E+01  0.43809710513E+02  0.00000000000E+00 0. -1.
        -12    1    4    4    0    0  0.23087619566E+02 -0.36044607817E+02 -0.12663462868E+01  0.42823539821E+02  0.00000000000E+00 0.  1.
</event>
<event>
12    1  0.8313893E-002  0.1966588E+03  0.7818608E-02  0.1152851E+00
         21   -1    0    0  501  502  0.00000000000E+00  0.00000000000E+00  0.26626414767E+02  0.26626414767E+02  0.00000000000E+00 0. -1.
         21   -1    0    0  502  503 -0.00000000000E+00 -0.00000000000E+00 -0.18454021241E+04  0.18454021241E+04  0.00000000000E+00 0. -1.
         -6    2    1    2    0  503  0.47459063583E+02  0.78934323115E+02 -0.13439692361E+04  0.13581065067E+04  0.17238615284E+03 0.  0.
        -24    2    3    3    0    0  0.39454436261E+02  0.76604803520E+01 -0.11050231548E+04  0.11085842541E+04  0.79167798902E+02 0.  0.
          6    2    1    2  501    0 -0.47459063583E+02 -0.78934323115E+02 -0.47480647317E+03  0.51392203217E+03  0.17375752676E+03 0.  0.
         24    2    5    5    0    0 -0.79121048599E+02 -0.10316336464E+01 -0.27063786781E+03  0.29306411464E+03  0.79878127156E+02 0.  0.
          5    1    5    5  501    0  0.31661985016E+02 -0.77902689469E+02 -0.20416860535E+03  0.22085791752E+03  0.47000000000E+01 0. -1.
        -13    1    6    6    0    0 -0.41364273822E+01  0.21853233354E+02 -0.13142389342E+03  0.13329258644E+03  0.00000000000E+00 0.  1.
         14    1    6    6    0    0 -0.74984621217E+02 -0.22884867000E+02 -0.13921397439E+03  0.15977152820E+03  0.00000000000E+00 0. -1.
         -5    1    3    3    0  503  0.80046273221E+01  0.71273842763E+02 -0.23894608134E+03  0.24952225253E+03  0.47000000000E+01 0.  1.
         13    1    4    4    0    0  0.33804789458E+01  0.38881115629E+02 -0.38189345196E+03  0.38388250473E+03  0.00000000000E+00 0. -1.
        -14    1    4    4    0    0  0.36073957315E+02 -0.31220635277E+02 -0.72312970284E+03  0.72470174941E+03  0.00000000000E+00 0.  1.
</event>
<event>
12    1  0.8313893E-002  0.2539752E+03  0.7818608E-02  0.1110840E+00
         21   -1    0    0  501  502  0.00000000000E+00  0.00000000000E+00  0.16066293229E+04  0.16066293229E+04  0.00000000000E+00 0. -1.
         21   -1    0    0  502  503 -0.00000000000E+00 -0.00000000000E+00 -0.76186972350E+02  0.76186972350E+02  0.00000000000E+00 0. -1.
         -6    2    1    2    0  503 -0.79417126002E+01 -0.18690983491E+03  0.18622786329E+03  0.31481922357E+03  0.17155748097E+03 0.  0.
        -24    2    3    3    0    0 -0.19687419560E+02 -0.16291788300E+03  0.68917807038E+02  0.19441442845E+03  0.78214287531E+02 0.  0.
          6    2    1    2  501    0  0.79417126002E+01  0.18690983491E+03  0.13442144873E+04  0.13679970717E+04  0.17177032104E+03 0.  0.
         24    2    5    5    0    0  0.75240895900E+01  0.44108371268E+02  0.79309024010E+03  0.79865318770E+03  0.82780583079E+02 0.  0.
          5    1    5    5  501    0  0.41762301021E+00  0.14280146364E+03  0.55112424719E+03  0.56934388402E+03  0.47000000000E+01 0. -1.
        -11    1    6    6    0    0 -0.65239429895E+01 -0.40218313212E+01  0.54154123637E+01  0.93842234828E+01  0.00000000000E+00 0.  1.
         12    1    6    6    0    0  0.14048032579E+02  0.48130202589E+02  0.78767482774E+03  0.78926896422E+03  0.00000000000E+00 0. -1.
         -5    1    3    3    0  503  0.11745706960E+02 -0.23991951907E+02  0.11731005625E+03  0.12040479511E+03  0.47000000000E+01 0.  1.
         13    1    4    4    0    0 -0.78143991443E+01 -0.16141561384E+03  0.77948901103E+02  0.17942156060E+03  0.00000000000E+00 0. -1.
        -14    1    4    4    0    0 -0.11873020416E+02 -0.15022691593E+01 -0.90310940648E+01  0.14992867852E+02  0.00000000000E+00 0.  1.
</event>
<event>
12    1  0.8313893E-002  0.1889334E+03  0.7818608E-02  0.1159846E+00
         21   -1    0    0  503  502  0.00000000000E+00  0.00000000000E+00  0.36046172220E+03  0.36046172220E+03  0.00000000000E+00 0.  1.
         21   -1    0    0  501  503 -0.00000000000E+00 -0.00000000000E+00 -0.10823807305E+03  0.10823807305E+03  0.00000000000E+00 0.  1.
          6    2    1    2  501    0 -0.54941891939E+02  0.54642436718E+02  0.53723913947E+02  0.19465971711E+03  0.17029896992E+03 0.  0.
         24    2    3    3    0    0 -0.27495743866E+02  0.35770490502E+01 -0.32676218251E+02  0.90505803574E+02  0.79716711113E+02 0.  0.
         -6    2    1    2    0  502  0.54941891939E+02 -0.54642436718E+02  0.19849973520E+03  0.27404007813E+03  0.17231196177E+03 0.  0.
        -24    2    5    5    0    0  0.35864067122E+02 -0.91698324062E+02  0.19513659153E+03  0.23196273361E+03  0.77676292945E+02 0.  0.
          5    1    3    3  501    0 -0.27446148073E+02  0.51065387668E+02  0.86400132198E+02  0.10415391354E+03  0.47000000000E+01 0. -1.
        -13    1    4    4    0    0  0.12980325510E+01  0.25046993460E+02  0.16195590566E+02  0.29855216022E+02  0.00000000000E+00 0.  1.
         14    1    4    4    0    0 -0.28793776417E+02 -0.21469944410E+02 -0.48871808818E+02  0.60650587552E+02  0.00000000000E+00 0. -1.
         -5    1    5    5    0  502  0.19077824817E+02  0.37055887344E+02  0.33631436693E+01  0.42077344521E+02  0.47000000000E+01 0.  1.
         11    1    6    6    0    0  0.23060413759E+02  0.80258199512E+01  0.30730199934E+02  0.39249734478E+02  0.00000000000E+00 0. -1.
        -12    1    6    6    0    0  0.12803653363E+02 -0.99724144013E+02  0.16440639159E+03  0.19271299913E+03  0.00000000000E+00 0.  1.
</event>
<event>
12    1  0.8313893E-002  0.1796136E+03  0.7818608E-02  0.1168901E+00
         21   -1    0    0  501  502  0.00000000000E+00  0.00000000000E+00  0.28925157057E+03  0.28925157057E+03  0.00000000000E+00 0.  1.
         21   -1    0    0  502  503 -0.00000000000E+00 -0.00000000000E+00 -0.15231241202E+03  0.15231241202E+03  0.00000000000E+00 0.  1.
         -6    2    1    2    0  503 -0.38720953569E+02  0.22737976322E+02 -0.48707842358E+02  0.18325051532E+03  0.17085657624E+03 0.  0.
        -24    2    3    3    0    0  0.25003822339E+02  0.21022041090E+02  0.18899614393E+02  0.90209396952E+02  0.81935477854E+02 0.  0.
          6    2    1    2  501    0  0.38720953569E+02 -0.22737976322E+02  0.18564700091E+03  0.25831346727E+03  0.17391006472E+03 0.  0.
         24    2    5    5    0    0  0.56704951435E+02  0.16864734686E+02  0.18935444615E+03  0.21440863782E+03  0.81339331829E+02 0.  0.
          5    1    5    5  501    0 -0.17983997866E+02 -0.39602711008E+02 -0.37074452415E+01  0.43904829445E+02  0.47000000000E+01 0. -1.
        -11    1    6    6    0    0  0.14402332388E+02 -0.26146683997E+02  0.11419508004E+03  0.11803216751E+03  0.00000000000E+00 0.  1.
         12    1    6    6    0    0  0.42302619047E+02  0.43011418683E+02  0.75159366113E+02  0.96376470312E+02  0.00000000000E+00 0. -1.
         -5    1    3    3    0  503 -0.63724775908E+02  0.17159352314E+01 -0.67607456751E+02  0.93041118365E+02  0.47000000000E+01 0.  1.
         13    1    4    4    0    0  0.54857650345E+02  0.19173500898E+02  0.97016897521E+01  0.58916107493E+02  0.00000000000E+00 0. -1.
        -14    1    4    4    0    0 -0.29853828006E+02  0.18485401919E+01  0.91979246409E+01  0.31293289459E+02  0.00000000000E+00 0.  1.
</event>
<event>
12    1  0.8313893E-002  0.1959061E+03  0.7818608E-02  0.1153664E+00
         21   -1    0    0  503  502  0.00000000000E+00  0.00000000000E+00  0.21423969748E+04  0.21423969748E+04  0.00000000000E+00 0.  1.
         21   -1    0    0  501  503 -0.00000000000E+00 -0.00000000000E+00 -0.33406574856E+02  0.33406574856E+02  0.00000000000E+00 0.  1.
          6    2    1    2  501    0 -0.66794229771E+02 -0.66853949370E+02  0.30661610264E+03  0.36281367380E+03  0.16937947874E+03 0.  0.
         24    2    3    3    0    0 -0.52923493918E+02 -0.10699607876E+03  0.17957482113E+03  0.22877873406E+03  0.76443022531E+02 0.  0.
         -6    2    1    2    0  502  0.66794229771E+02  0.66853949370E+02  0.18023742973E+04  0.18129898758E+04  0.17160496117E+03 0.  0.
        -24    2    5    5    0    0  0.93800983123E+02  0.47381647168E+02  0.86543242149E+03  0.87544483484E+03  0.79917068014E+02 0.  0.
          5    1    3    3  501    0 -0.13870735853E+02  0.40142129386E+02  0.12704128151E+03  0.13403493974E+03  0.47000000000E+01 0. -1.
        -11    1    4    4    0    0 -0.31584678584E+02 -0.70887278828E+02  0.49353346751E+02  0.91969294096E+02  0.00000000000E+00 0.  1.
         12    1    4    4    0    0 -0.21338815334E+02 -0.36108799928E+02  0.13022147438E+03  0.13680943996E+03  0.00000000000E+00 0. -1.
         -5    1    5    5    0  502 -0.27006753351E+02  0.19472302202E+02  0.93694187580E+03  0.93754504100E+03  0.47000000000E+01 0.  1.
         11    1    6    6    0    0 -0.11052860729E+02  0.11737982106E+02  0.21915497498E+03  0.21974723892E+03  0.00000000000E+00 0. -1.
        -12    1    6    6    0    0  0.10485384385E+03  0.35643665062E+02  0.64627744651E+03  0.65569759592E+03  0.00000000000E+00 0.  1.
</event>
<event>
12    1  0.8313893E-002  0.2591717E+03  0.7818608E-02  0.1107658E+00
         21   -1    0    0  501  502  0.00000000000E+00  0.00000000000E+00  0.10828697330E+03  0.10828697330E+03  0.00000000000E+00 0.  1.
         21   -1    0    0  502  503 -0.00000000000E+00 -0.00000000000E+00 -0.84447099738E+03  0.84447099738E+03  0.00000000000E+00 0. -1.
         -6    2    1    2    0  503 -0.41136318553E+02  0.18921656545E+03 -0.61373311511E+03  0.66621192196E+03  0.17226399228E+03 0.  0.
        -24    2    3    3    0    0 -0.22928689391E+02  0.15066761166E+03 -0.27304158205E+03  0.32283115620E+03  0.80260799167E+02 0.  0.
          6    2    1    2  501    0  0.41136318553E+02 -0.18921656545E+03 -0.12245090898E+03  0.28654604872E+03  0.17210260772E+03 0.  0.
         24    2    5    5    0    0  0.18030437958E+01 -0.19877101182E+03 -0.12166537523E+03  0.24578944175E+03  0.78082136492E+02 0.  0.
          5    1    5    5  501    0  0.39333274757E+02  0.95544463738E+01 -0.78553375269E+00  0.40756606973E+02  0.47000000000E+01 0. -1.
        -13    1    6    6    0    0  0.35691599583E+02 -0.10293820092E+03 -0.42483578763E+02  0.11694023240E+03  0.00000000000E+00 0.  1.
         14    1    6    6    0    0 -0.33888555787E+02 -0.95832810899E+02 -0.79181796464E+02  0.12884920935E+03  0.00000000000E+00 0. -1.
         -5    1    3    3    0  503 -0.18207629162E+02  0.38548953791E+02 -0.34069153306E+03  0.34338076576E+03  0.47000000000E+01 0.  1.
         11    1    4    4    0    0 -0.33600917294E+02  0.55032571405E+02 -0.55956764540E+02  0.85374264602E+02  0.00000000000E+00 0. -1.
        -12    1    4    4    0    0  0.10672227903E+02  0.95635040251E+02 -0.21708481751E+03  0.23745689159E+03  0.00000000000E+00 0.  1.
</event>
<event>
12    1  0.8313893E-002  0.2256893E+03  0.7818608E-02  0.1129859E+00
         21   -1    0    0  503  502  0.00000000000E+00  0.00000000000E+00  0.10018963743E+04  0.10018963743E+04  0.00000000000E+00 0.  1.
         21   -1    0    0  501  503 -0.00000000000E+00 -0.00000000000E+00 -0.25359087172E+03  0.25359087172E+03  0.00000000000E+00 0. -1.
          6    2    1    2  501    0  0.14145995427E+03 -0.39725144733E+02 -0.18753989376E+03  0.29281269786E+03  0.17023236616E+03 0.  0.
         24    2    3    3    0    0  0.11786480639E+03  0.24893230560E+02 -0.76320970307E+02  0.16195397877E+03  0.76762068859E+02 0.  0.
         -6    2    1    2    0  502 -0.14145995427E+03  0.39725144733E+02  0.93584539631E+03  0.96267454813E+03  0.17130870975E+03 0.  0.
        -24    2    5    5    0    0 -0.57310402197E+02  0.40139211899E+01  0.75066368465E+03  0.75610544363E+03  0.69992004327E+02 0.  0.
          5    1    3    3  501    0  0.23595147878E+02 -0.64618375292E+02 -0.11121892345E+03  0.13085871909E+03  0.47000000000E+01 0. -1.
        -11    1    4    4    0    0  0.10680358613E+03  0.91663588464E+01 -0.29261598292E+02  0.11111826709E+03  0.00000000000E+00 0.  1.
         12    1    4    4    0    0  0.11061220259E+02  0.15726871713E+02 -0.47059372015E+02  0.50835711680E+02  0.00000000000E+00 0. -1.
         -5    1    5    5    0  502 -0.84149552074E+02  0.35711223543E+02  0.18518171166E+03  0.20656910450E+03  0.47000000000E+01 0.  1.
         11    1    6    6    0    0 -0.54917693167E+02  0.17966653249E+02  0.72018851637E+03  0.72250277007E+03  0.00000000000E+00 0. -1.
        -12    1    6    6    0    0 -0.23927090298E+01 -0.13952732059E+02  0.30475168278E+02  0.33602673554E+02  0.00000000000E+00 0.  1.
</event>
<event>
12    1  0.8313893E-002  0.1758092E+03  0.7818608E-02  0.1172158E+00
         21   -1    0    0  501  502  0.00000000000E+00  0.00000000000E+00  0.29050376044E+03  0.29050376044E+03  0.00000000000E+00 0. -1.
         21   -1    0    0  502  503 -0.00000000000E+00 -0.00000000000E+00 -0.11747860867E+03  0.11747860867E+03  0.00000000000E+00 0. -1.
         -6    2    1    2    0  503  0.22724502436E+02 -0.27828142220E+02  0.15096337258E+03  0.23173004867E+03  0.17209900374E+03 0.  0.
        -24    2    3    3    0    0 -0.39114680686E+02 -0.24147318933E+02  0.14230896279E+03  0.16900348462E+03  0.78722840823E+02 0.  0.
          6    2    1    2  501    0 -0.22724502436E+02  0.27828142220E+02  0.22061779185E+02  0.17625232044E+03  0.17113547221E+03 0.  0.
         24    2    5    5    0    0  0.29310793950E+02 -0.29652641899E+02 -0.13993297571E+02  0.90614880187E+02  0.79226525361E+02 0.  0.
          5    1    5    5  501    0 -0.52035296386E+02  0.57480784119E+02  0.36055076756E+02  0.85637440251E+02  0.47000000000E+01 0. -1.
        -11    1    6    6    0    0  0.75070194492E+01  0.19059535988E+02  0.18942778981E+02  0.27900719142E+02  0.00000000000E+00 0.  1.
         12    1    6    6    0    0  0.21803774501E+02 -0.48712177887E+02 -0.32936076552E+02  0.62714161045E+02  0.00000000000E+00 0. -1.
         -5    1    3    3    0  503  0.61839183122E+02 -0.36808232868E+01  0.86544097933E+01  0.62726564055E+02  0.47000000000E+01 0.  1.
         11    1    4    4    0    0  0.82115076486E+01  0.14225867925E+02  0.80701729080E+02  0.82356379550E+02  0.00000000000E+00 0. -1.
        -12    1    4    4    0    0 -0.47326188335E+02 -0.38373186858E+02  0.61607233707E+02  0.86647105070E+02  0.00000000000E+00 0.  1.
</event>
<event>
12    1  0.8313893E-002  0.3007503E+03  0.7818608E-02  0.1085046E+00
         21   -1    0    0  503  502  0.00000000000E+00  0.00000000000E+00  0.55072045328E+02  0.55072045328E+02  0.00000000000E+00 0. -1.
         21   -1    0    0  501  503 -0.00000000000E+00 -0.00000000000E+00 -0.20290209327E+04  0.20290209327E+04  0.00000000000E+00 0.  1.
          6    2    1    2  501    0 -0.31689716030E+02 -0.24275460637E+03 -0.14445253708E+04  0.14752087380E+04  0.17220115210E+03 0.  0.
         24    2    3    3    0    0 -0.65896154764E+02 -0.86443587532E+02 -0.77676959966E+03  0.78853335986E+03  0.81234546941E+02 0.  0.
         -6    2    1    2    0  502  0.31689716030E+02  0.24275460637E+03 -0.52942351658E+03  0.60888424003E+03  0.17469035702E+03 0.  0.
        -24    2    5    5    0    0  0.69800618809E+02  0.20272697628E+03 -0.32629439716E+03  0.39831790550E+03  0.78859158816E+02 0.  0.
          5    1    3    3  501    0  0.34206438734E+02 -0.15631101884E+03 -0.66775577117E+03  0.68667537818E+03  0.47000000000E+01 0. -1.
        -11    1    4    4    0    0 -0.35636040766E+01 -0.41135619408E+02 -0.48516178563E+03  0.48691559504E+03  0.00000000000E+00 0.  1.
         12    1    4    4    0    0 -0.62332550687E+02 -0.45307968123E+02 -0.29160781403E+03  0.30161776481E+03  0.00000000000E+00 0. -1.
         -5    1    5    5    0  502 -0.38110902779E+02  0.40027630091E+02 -0.20312911942E+03  0.21056633453E+03  0.47000000000E+01 0.  1.
         11    1    6    6    0    0  0.79703298370E+02  0.14694120366E+03 -0.27536822528E+03  0.32213660549E+03  0.00000000000E+00 0. -1.
        -12    1    6    6    0    0 -0.99026795606E+01  0.55785772617E+02 -0.50926171882E+02  0.76181300012E+02  0.00000000000E+00 0.  1.
</event>
<event>
12    1  0.8313893E-002  0.1998574E+03  0.7818608E-02  0.1149902E+00
         21   -1    0    0  503  502  0.00000000000E+00  0.00000000000E+00  0.33948770761E+03  0.33948770761E+03  0.00000000000E+00 0. -1.
         21   -1    0    0  501  503 -0.00000000000E+00 -0.00000000000E+00 -0.12182865264E+03  0.12182865264E+03  0.00000000000E+00 0. -1.
          6    2    1    2  501    0 -0.81931558048E+01  0.10230054800E+03  0.65495126137E+02  0.21012547395E+03  0.17126171006E+03 0.  0.
         24    2    3    3    0    0  0.32794299353E+02 -0.65171151341E+00  0.49346454765E+02  0.98045106335E+02  0.78114527972E+02 0.  0.
         -6    2    1    2    0  502  0.81931558048E+01 -0.10230054800E+03  0.15216392883E+03  0.25119088629E+03  0.17149481098E+03 0.  0.
        -24    2    5    5    0    0 -0.39186856491E+02 -0.87207467387E+01  0.40929535996E+02  0.98229371788E+02  0.79762907543E+02 0.  0.
          5    1    3    3  501    0 -0.40987455158E+02  0.10295225951E+03  0.16148671372E+02  0.11208036762E+03  0.47000000000E+01 0. -1.
        -11    1    4    4    0    0  0.16122660962E+02 -0.68201049516E+00  0.69809531144E+02  0.71650373156E+02  0.00000000000E+00 0.  1.
         12    1    4    4    0    0  0.16671638391E+02  0.30298981752E-01 -0.20463076379E+02  0.26394733178E+02  0.00000000000E+00 0. -1.
         -5    1    5    5    0  502  0.47380012296E+02 -0.93579801257E+02  0.11123439284E+03  0.15296151450E+03  0.47000000000E+01 0.  1.
         11    1    6    6    0    0 -0.28189609498E+02 -0.40867464521E+02  0.40788328661E+02  0.64253338395E+02  0.00000000000E+00 0. -1.
        -12    1    6    6    0    0 -0.10997246993E+02  0.32146717782E+02  0.14120733543E+00  0.33976033393E+02  0.00000000000E+00 0.  1.
</event>
<event>
12    1  0.8313893E-002  0.3125424E+03  0.7818608E-02  0.1079312E+00
         21   -1    0    0  503  502  0.00000000000E+00  0.00000000000E+00  0.12657435121E+04  0.12657435121E+04  0.00000000000E+00 0. -1.
         21   -1    0    0  501  503 -0.00000000000E+00 -0.00000000000E+00 -0.13501049327E+03  0.13501049327E+03  0.00000000000E+00 0.  1.
          6    2    1    2  501    0  0.25606256368E+03 -0.47623063991E+02  0.10260030167E+04  0.10725506637E+04  0.17276209939E+03 0.  0.
         24    2    3    3    0    0  0.15074225717E+03  0.21560700651E+02  0.42192079128E+03  0.45544760469E+03  0.78913082540E+02 0.  0.
         -6    2    1    2    0  502 -0.25606256368E+03  0.47623063991E+02  0.10473000206E+03  0.32820334169E+03  0.17003842926E+03 0.  0.
        -24    2    5    5    0    0 -0.25721862055E+03  0.15041984345E+02  0.66371348109E+02  0.27764308505E+03  0.79327465452E+02 0.  0.
          5    1    3    3  501    0  0.10532030651E+03 -0.69183764642E+02  0.60408222547E+03  0.61710305897E+03  0.47000000000E+01 0. -1.
        -13    1    4    4    0    0  0.60586876871E+02  0.23914617400E+02  0.27859609698E+03  0.28610918165E+03  0.00000000000E+00 0.  1.
         14    1    4    4    0    0  0.90155380295E+02 -0.23539167487E+01  0.14332469430E+03  0.16933842303E+03  0.00000000000E+00 0. -1.
         -5    1    5    5    0  502  0.11560568778E+01  0.32581079646E+02  0.38358653947E+02  0.50560256636E+02  0.47000000000E+01 0.  1.
         11    1    6    6    0    0 -0.75364771847E+02 -0.22798396459E+02  0.44944829316E+02  0.90662304178E+02  0.00000000000E+00 0. -1.
        -12    1    6    6    0    0 -0.18185384871E+03  0.37840380804E+02  0.21426518793E+02  0.18698078087E+03  0.00000000000E+00 0.  1.
</event>
<event>
12    1  0.8313893E-002  0.2084821E+03  0.7818608E-02  0.1143370E+00
         21   -1    0    0  501  502  0.00000000000E+00  0.00000000000E+00  0.22858868342E+02  0.22858868342E+02  0.00000000000E+00 0.  1.
         21   -1    0    0  502  503 -0.00000000000E+00 -0.00000000000E+00 -0.20539219444E+04  0.20539219444E+04  0.00000000000E+00 0. -1.
         -6    2    1    2    0  503  0.11758781617E+03 -0.76706184918E+01 -0.13157895703E+04  0.13317432611E+04  0.16838107761E+03 0.  0.
        -24    2    3    3    0    0  0.70149432248E+02  0.43897696492E+02 -0.10650081121E+04  0.10713145354E+04  0.81391672756E+02 0.  0.
          6    2    1    2  501    0 -0.11758781617E+03  0.76706184918E+01 -0.71527350578E+03  0.74503755166E+03  0.17198555871E+03 0.  0.
         24    2    5    5    0    0 -0.10223573356E+02 -0.87203047078E+01 -0.14588497207E+03  0.16536425115E+03  0.76696449177E+02 0.  0.
          5    1    5    5  501    0 -0.10736424282E+03  0.16390923200E+02 -0.56938853370E+03  0.57967330050E+03  0.47000000000E+01 0. -1.
        -11    1    6    6    0    0 -0.36937454235E+02 -0.25195556142E+02 -0.10239758065E+03  0.11173386281E+03  0.00000000000E+00 0.  1.
         12    1    6    6    0    0  0.26713880879E+02  0.16475251434E+02 -0.43487391424E+02  0.53630388347E+02  0.00000000000E+00 0. -1.
         -5    1    3    3    0  503  0.47438383927E+02 -0.51568314984E+02 -0.25078145826E+03  0.26042872573E+03  0.47000000000E+01 0.  1.
         11    1    4    4    0    0  0.60203044018E+02  0.64651270705E+01 -0.34556019570E+03  0.35082481843E+03  0.00000000000E+00 0. -1.
        -12    1    4    4    0    0  0.99463882295E+01  0.37432569421E+02 -0.71944791636E+03  0.72048971696E+03  0.00000000000E+00 0.  1.
</event>
<event>
12    1  0.8313893E-002  0.1952417E+03  0.7818608E-02  0.1153957E+00
         21   -1    0    0  503  502  0.00000000000E+00  0.00000000000E+00  0.37534272542E+02  0.37534272542E+02  0.00000000000E+00 0.  1.
         21   -1    0    0  501  503 -0.00000000000E+00 -0.00000000000E+00 -0.12990904671E+04  0.12990904671E+04  0.00000000000E+00 0. -1.
          6    2    1    2  501    0  0.88470386568E+02  0.27619249768E+02 -0.94563075614E+03  0.96557591945E+03  0.17184148802E+03 0.  0.
         24    2    3    3    0    0  0.42686516513E+02  0.55717775514E+02 -0.30477464018E+03  0.32245513665E+03  0.78505570847E+02 0.  0.
         -6    2    1    2    0  502 -0.88470386568E+02 -0.27619249768E+02 -0.31592543845E+03  0.37104882022E+03  0.17110964927E+03 0.  0.
        -24    2    5    5    0    0 -0.17607456484E+02  0.44723148984E+02 -0.10274728974E+03  0.13499376181E+03  0.73185569612E+02 0.  0.
          5    1    3    3  501    0  0.45783870055E+02 -0.28098525746E+02 -0.64085611596E+03  0.64312078280E+03  0.47000000000E+01 0. -1.
        -11    1    4    4    0    0  0.39207160499E+02 -0.60076560918E+01 -0.79419774822E+02  0.88773836229E+02  0.00000000000E+00 0.  1.
         12    1    4    4    0    0  0.34793560144E+01  0.61725431606E+02 -0.22535486536E+03  0.23368130042E+03  0.00000000000E+00 0. -1.
         -5    1    5    5    0  502 -0.70862930084E+02 -0.72342398752E+02 -0.21317814871E+03  0.23605505841E+03  0.47000000000E+01 0.  1.
         13    1    6    6    0    0 -0.11383850361E+02  0.51878725124E+02 -0.28757276134E+02  0.60398469353E+02  0.00000000000E+00 0. -1.
        -14    1    6    6    0    0 -0.62236061232E+01 -0.71555761398E+01 -0.73990013609E+02  0.74595292458E+02  0.00000000000E+00 0.  1.
</event>
<event>
12    1  0.8313893E-002  0.2601444E+03  0.7818608E-02  0.1107637E+00
         21   -1    0    0  503  502  0.00000000000E+00  0.00000000000E+00  0.27722570656E+03  0.27722570656E+03  0.00000000000E+00 0.  1.
         21   -1    0    0  501  503 -0.00000000000E+00 -0.00000000000E+00 -0.25004304748E+03  0.25004304748E+03  0.00000000000E+00 0. -1.
          6    2    1    2  501    0 -0.52279947869E+02  0.18763188172E+03  0.65108285708E+02  0.26816818201E+03  0.17244178435E+03 0.  0.
         24    2    3    3    0    0 -0.56371566979E+02  0.31803547340E+02  0.36754376302E+02  0.10965873333E+03  0.80529090592E+02 0.  0.
         -6    2    1    2    0  502  0.52279947869E+02 -0.18763188172E+03 -0.37925626633E+02  0.25910057203E+03  0.16660083218E+03 0.  0.
        -24    2    5    5    0    0  0.24098228784E+02 -0.84079330027E+02  0.56370015747E+02  0.11616317865E+03  0.51635714687E+02 0.  0.
          5    1    3    3  501    0  0.40916191093E+01  0.15582833438E+03  0.28353909406E+02  0.15850944868E+03  0.47000000000E+01 0. -1.
        -11    1    4    4    0    0 -0.12873697701E+02 -0.10261688772E+02  0.45622124197E+02  0.48501675901E+02  0.00000000000E+00 0.  1.
         12    1    4    4    0    0 -0.43497869278E+02  0.42065236113E+02 -0.88677478945E+01  0.61157057431E+02  0.00000000000E+00 0. -1.
         -5    1    5    5    0  502  0.28181719085E+02 -0.10355255169E+03 -0.94295642380E+02  0.14293739337E+03  0.47000000000E+01 0.  1.
         11    1    6    6    0    0  0.34669527778E+02 -0.28490655307E+02  0.22253276912E+02  0.50088940192E+02  0.00000000000E+00 0. -1.
        -12    1    6    6    0    0 -0.10571298994E+02 -0.55588674720E+02  0.34116738835E+02  0.66074238461E+02  0.00000000000E+00 0.  1.
</event>
<event>
12    1  0.8313893E-002  0.1757475E+03  0.7818608E-02  0.1172028E+00
         21   -1    0    0  503  502  0.00000000000E+00  0.00000000000E+00  0.16950965295E+03  0.16950965295E+03  0.00000000000E+00 0. -1.
         21   -1    0    0  501  503 -0.00000000000E+00 -0.00000000000E+00 -0.19608380667E+03  0.19608380667E+03  0.00000000000E+00 0. -1.
          6    2    1    2  501    0 -0.34442087199E+02 -0.42374003788E+01  0.35661467467E+02  0.17915191235E+03  0.17210303455E+03 0.  0.
         24    2    3    3    0    0  0.88709029522E+01 -0.49316789212E+02 -0.19083898677E+02  0.95921439995E+02  0.79535456525E+02 0.  0.
         -6    2    1    2    0  502  0.34442087199E+02  0.42374003788E+01 -0.62235621190E+02  0.18644154727E+03  0.17228744897E+03 0.  0.
        -24    2    5    5    0    0 -0.17081041633E+02 -0.34734905425E+02 -0.79964594468E+02  0.11928590777E+03  0.79602234799E+02 0.  0.
          5    1    3    3  501    0 -0.43312990152E+02  0.45079388833E+02  0.54745366144E+02  0.83230472351E+02  0.47000000000E+01 0. -1.
        -11    1    4    4    0    0 -0.27627378361E+02 -0.50304682694E+02 -0.13818719488E+02  0.59032111129E+02  0.00000000000E+00 0.  1.
         12    1    4    4    0    0  0.36498281313E+02  0.98789348206E+00 -0.52651791892E+01  0.36889328866E+02  0.00000000000E+00 0. -1.
         -5    1    5    5    0  502  0.51523128833E+02  0.38972305803E+02  0.17728973278E+02  0.67155639509E+02  0.47000000000E+01 0.  1.
         11    1    6    6    0    0  0.14437638135E+02  0.19391135849E+02 -0.33436028214E+02  0.41260508082E+02  0.00000000000E+00 0. -1.
        -12    1    6    6    0    0 -0.31518679768E+02 -0.54126041273E+02 -0.46528566254E+02  0.78025399684E+02  0.00000000000E+00 0.  1.
</event>
<event>
12    1  0.8313893E-002  0.2780648E+03  0.7818608E-02  0.1096873E+00
         21   -1    0    0  503  502  0.00000000000E+00  0.00000000000E+00  0.62231981235E+03  0.62231981235E+03  0.00000000000E+00 0. -1.
         21   -1    0    0  501  503 -0.00000000000E+00 -0.00000000000E+00 -0.32659896157E+03  0.32659896157E+03  0.00000000000E+00 0. -1.
          6    2    1    2  501    0  0.31680062383E+02 -0.21563350830E+03 -0.22605829307E+03  0.35767137838E+03  0.17124551613E+03 0.  0.
         24    2    3    3    0    0 -0.88634318230E+01 -0.17708373047E+03 -0.22982335750E+03  0.30140303912E+03  0.81165314745E+02 0.  0.
         -6    2    1    2    0  502 -0.31680062383E+02  0.21563350830E+03  0.52177914386E+03  0.59124739554E+03  0.17268054759E+03 0.  0.
        -24    2    5    5    0    0 -0.26781553961E+02  0.18065608329E+03  0.51861882356E+03  0.55547739038E+03  0.78966923519E+02 0.  0.
          5    1    3    3  501    0  0.40543494206E+02 -0.38549777828E+02  0.37650644278E+01  0.56268339261E+02  0.47000000000E+01 0. -1.
        -11    1    4    4    0    0 -0.27606469626E+02 -0.14208478029E+02 -0.37038700335E+02  0.48330770070E+02  0.00000000000E+00 0.  1.
         12    1    4    4    0    0  0.18743037803E+02 -0.16287525244E+03 -0.19278465717E+03  0.25307226905E+03  0.00000000000E+00 0. -1.
         -5    1    5    5    0  502 -0.48985084221E+01  0.34977425004E+02  0.31603202948E+01  0.35770005158E+02  0.47000000000E+01 0.  1.
         11    1    6    6    0    0 -0.21280210803E+02  0.91382042388E+02  0.15645994112E+03  0.18243694313E+03  0.00000000000E+00 0. -1.
        -12    1    6    6    0    0 -0.55013431579E+01  0.89274040904E+02  0.36215888244E+03  0.37304044725E+03  0.00000000000E+00 0.  1.
</event>
<event>
12    1  0.8313893E-002  0.1864285E+03  0.7818608E-02  0.1161836E+00
         21   -1    0    0  501  502  0.00000000000E+00  0.00000000000E+00  0.66204989375E+03  0.66204989375E+03  0.00000000000E+00 0.  1.
         21   -1    0    0  502  503 -0.00000000000E+00 -0.00000000000E+00 -0.59640690879E+02  0.59640690879E+02  0.00000000000E+00 0.  1.
         -6    2    1    2    0  503 -0.13172435327E+02  0.68960334806E+02  0.42763292828E+03  0.46650349189E+03  0.17270363563E+03 0.  0.
        -24    2    3    3    0    0 -0.46992928860E+02  0.47418800181E+02  0.40878438658E+03  0.42194767272E+03  0.80487799280E+02 0.  0.
          6    2    1    2  501    0  0.13172435327E+02 -0.68960334806E+02  0.17477627458E+03  0.25518709274E+03  0.17217626234E+03 0.  0.
         24    2    5    5    0    0  0.66741633674E+02 -0.56768885364E+02  0.78637135244E+02  0.14435787924E+03  0.83535897970E+02 0.  0.
          5    1    5    5  501    0 -0.53569198347E+02 -0.12191449442E+02  0.96139139341E+02  0.11082921350E+03  0.47000000000E+01 0. -1.
        -11    1    6    6    0    0  0.14497849784E+02 -0.39516793898E+02 -0.69000189512E+01  0.42654131217E+02  0.00000000000E+00 0.  1.
         12    1    6    6    0    0  0.52243783890E+02 -0.17252091466E+02  0.85537154195E+02  0.10170374803E+03  0.00000000000E+00 0. -1.
         -5    1    3    3    0  503  0.33820493533E+02  0.21541534626E+02  0.18848541704E+02  0.44555819162E+02  0.47000000000E+01 0.  1.
         11    1    4    4    0    0  0.22410001588E+02  0.18344135643E+02  0.98470189506E+02  0.10264060456E+03  0.00000000000E+00 0. -1.
        -12    1    4    4    0    0 -0.69402930447E+02  0.29074664538E+02  0.31031419707E+03  0.31930706816E+03  0.00000000000E+00 0.  1.
</event>
<event>
12    1  0.8313893E-002  0.2223875E+03  0.7818608E-02  0.1132486E+00
         21   -1    0    0  503  502  0.00000000000E+00  0.00000000000E+00  0.14797038552E+03  0.14797038552E+03  0.00000000000E+00 0.  1.
         21   -1    0    0  501  503 -0.00000000000E+00 -0.00000000000E+00 -0.45818256852E+03  0.45818256852E+03  0.00000000000E+00 0.  1.
          6    2    1    2  501    0  0.38515279536E+02  0.13451558332E+03  0.49425288502E+01  0.22043455030E+03  0.17026183794E+03 0.  0.
         24    2    3    3    0    0  0.82619167548E+02  0.55567226593E+02  0.24476978602E+02  0.12779718907E+03  0.76284700530E+02 0.  0.
         -6    2    1    2    0  502 -0.38515279536E+02 -0.13451558332E+03 -0.31515471185E+03  0.38571840374E+03  0.17285348036E+03 0.  0.
        -24    2    5    5    0    0  0.64685950870E+01 -0.15372048002E+03 -0.25626289122E+03  0.30901955388E+03  0.78425675414E+02 0.  0.
          5    1    3    3  501    0 -0.44103888012E+02  0.78948356732E+02 -0.19534449751E+02  0.92637361230E+02  0.47000000000E+01 0. -1.
        -11    1    4    4    0    0  0.44425022995E+02  0.22844347288E+02 -0.26191946353E+02  0.56404476106E+02  0.00000000000E+00 0.  1.
         12    1    4    4    0    0  0.38194144554E+02  0.32722879305E+02  0.50668924954E+02  0.71392712963E+02  0.00000000000E+00 0. -1.
         -5    1    5    5    0  502 -0.44983874623E+02  0.19204896700E+02 -0.58891820626E+02  0.76698849861E+02  0.47000000000E+01 0.  1.
         13    1    6    6    0    0  0.19230121308E+02 -0.82746356117E+00 -0.30033875303E+02  0.35672341207E+02  0.00000000000E+00 0. -1.
        -14    1    6    6    0    0 -0.12761526221E+02 -0.15289301646E+03 -0.22622901592E+03  0.27334721268E+03  0.00000000000E+00 0.  1.
</event>
<event>
12    1  0.8313893E-002  0.2577316E+03  0.7818608E-02  0.1108887E+00
         21   -1    0    0  503  502  0.00000000000E+00  0.00000000000E+00  0.18493694428E+04  0.18493694428E+04  0.00000000000E+00 0. -1.
         21   -1    0    0  501  503 -0.00000000000E+00 -0.00000000000E+00 -0.46478425994E+02  0.46478425994E+02  0.00000000000E+00 0.  1.
          6    2    1    2  501    0  0.18929527190E+03  0.10116570253E+02  0.44567514186E+03  0.51483191380E+03  0.17461535568E+03 0.  0.
         24    2    3    3    0    0  0.18775893634E+03  0.32775049054E+02  0.44603535747E+03  0.49163737255E+03  0.80200648093E+02 0.  0.
         -6    2    1    2    0  502 -0.18929527190E+03 -0.10116570253E+02  0.13572158750E+04  0.13810159550E+04  0.17098272366E+03 0.  0.
        -24    2    5    5    0    0 -0.18129688198E+03 -0.57968346341E+02  0.11563924819E+04  0.11743619158E+04  0.75189417634E+02 0.  0.
          5    1    3    3  501    0  0.15363355531E+01 -0.22658478801E+02 -0.36021561190E+00  0.23194541250E+02  0.47000000000E+01 0. -1.
        -13    1    4    4    0    0  0.44701477325E+02 -0.22009617166E+02  0.15403907050E+03  0.16189712958E+03  0.00000000000E+00 0.  1.
         14    1    4    4    0    0  0.14305745902E+03  0.54784666220E+02  0.29199628696E+03  0.32974024297E+03  0.00000000000E+00 0. -1.
         -5    1    5    5    0  502 -0.79983899179E+01  0.47851776088E+02  0.20082339308E+03  0.20665403922E+03  0.47000000000E+01 0.  1.
         13    1    6    6    0    0 -0.38288212683E+02 -0.42643316469E+02  0.43614909547E+03  0.43989825318E+03  0.00000000000E+00 0. -1.
        -14    1    6    6    0    0 -0.14300866930E+03 -0.15325029871E+02  0.72024338640E+03  0.73446366261E+03  0.00000000000E+00 0.  1.
</event>
<event>
12    1  0.8313893E-002  0.2214995E+03  0.7818608E-02  0.1132775E+00
         21   -1    0    0  501  502  0.00000000000E+00  0.00000000000E+00  0.70873519163E+03  0.70873519163E+03  0.00000000000E+00 0.  1.
         21   -1    0    0  502  503 -0.00000000000E+00 -0.00000000000E+00 -0.70808335249E+02  0.70808335249E+02  0.00000000000E+00 0.  1.
         -6    2    1    2    0  503 -0.11347903247E+03 -0.82197414028E+02  0.26054711181E+03  0.34197487517E+03  0.17154623893E+03 0.  0.
        -24    2    3    3    0    0 -0.26631378243E+02 -0.12012049845E+02  0.39026145522E+02  0.93857707492E+02  0.80204174284E+02 0.  0.
          6    2    1    2  501    0  0.11347903247E+03  0.82197414028E+02  0.37737974457E+03  0.43756865171E+03  0.17151369526E+03 0.  0.
         24    2    5    5    0    0  0.80802979177E+02  0.39206771890E+02  0.36138863830E+03  0.38105559790E+03  0.80841378001E+02 0.  0.
          5    1    5    5  501    0  0.32676053298E+02  0.42990642137E+02  0.15991106270E+02  0.56513053804E+02  0.47000000000E+01 0. -1.
        -11    1    6    6    0    0  0.43265003398E+02 -0.15786732780E+02  0.84099631203E+02  0.95884458696E+02  0.00000000000E+00 0.  1.
         12    1    6    6    0    0  0.37537975778E+02  0.54993504671E+02  0.27728900709E+03  0.28517113921E+03  0.00000000000E+00 0. -1.
         -5    1    3    3    0  503 -0.86847654232E+02 -0.70185364182E+02  0.22152096629E+03  0.24811716768E+03  0.47000000000E+01 0.  1.
         11    1    4    4    0    0  0.14083329535E+02 -0.35088976401E+02  0.11304180271E+02  0.39463412514E+02  0.00000000000E+00 0. -1.
        -12    1    4    4    0    0 -0.40714707778E+02  0.23076926555E+02  0.27721965252E+02  0.54394294978E+02  0.00000000000E+00 0.  1.
</event>
<event>
12    1  0.8313893E-002  0.1812304E+03  0.7818608E-02  0.1166687E+00
         21   -1    0    0  503  502  0.00000000000E+00  0.00000000000E+00  0.36411282314E+03  0.36411282314E+03  0.00000000000E+00 0.  1.
         21   -1    0    0  501  503 -0.00000000000E+00 -0.00000000000E+00 -0.92069681594E+02  0.92069681594E+02  0.00000000000E+00 0. -1.
          6    2    1    2  501    0 -0.33475812765E+02  0.45726265512E+02  0.16961080509E+03  0.24800748161E+03  0.17183819230E+03 0.  0.
         24    2    3    3    0    0 -0.62406213041E+02  0.41436542802E+02  0.18509865545E+03  0.21458094589E+03  0.78561743781E+02 0.  0.
         -6    2    1    2    0  502  0.33475812765E+02 -0.45726265512E+02  0.10243233646E+03  0.20817502313E+03  0.17214219502E+03 0.  0.
        -24    2    5    5    0    0  0.71729507355E+02 -0.73316106958E+02  0.88515149134E+02  0.15877540164E+03  0.82790837498E+02 0.  0.
          5    1    3    3  501    0  0.28930400276E+02  0.42897227098E+01 -0.15487850359E+02  0.33426535713E+02  0.47000000000E+01 0. -1.
        -11    1    4    4    0    0 -0.42136939944E+02  0.52419876472E+02  0.17827330201E+03  0.19053801554E+03  0.00000000000E+00 0.  1.
         12    1    4    4    0    0 -0.20269273097E+02 -0.10983333670E+02  0.68253534413E+01  0.24042930353E+02  0.00000000000E+00 0. -1.
         -5    1    5    5    0  502 -0.38253694590E+02  0.27589841446E+02  0.13917187324E+02  0.49399621495E+02  0.47000000000E+01 0.  1.
         11    1    6    6    0    0  0.18986614515E+02 -0.38954983746E+02 -0.74852768170E+01  0.43977399405E+02  0.00000000000E+00 0. -1.
        -12    1    6    6    0    0  0.52742892840E+02 -0.34361123212E+02  0.96000425951E+02  0.11479800223E+03  0.00000000000E+00 0.  1.
</event>
<event>
12    1  0.8313893E-002  0.1948248E+03  0.7818608E-02  0.1154958E+00
         21   -1    0    0  501  502  0.00000000000E+00  0.00000000000E+00  0.52490699046E+02  0.52490699046E+02  0.00000000000E+00 0. -1.
         21   -1    0    0  502  503 -0.00000000000E+00 -0.00000000000E+00 -0.72375280222E+03  0.72375280222E+03  0.00000000000E+00 0. -1.
         -6    2    1    2    0  503  0.64704916179E+02  0.57305781553E+02 -0.27927073378E+03  0.33850620626E+03  0.17065646825E+03 0.  0.
        -24    2    3    3    0    0 -0.31885593688E+02  0.18465335688E+02 -0.12997475529E+03  0.15643565393E+03  0.78873424563E+02 0.  0.
          6    2    1    2  501    0 -0.64704916179E+02 -0.57305781553E+02 -0.39199136939E+03  0.43773729500E+03  0.17460248275E+03 0.  0.
         24    2    5    5    0    0 -0.83561696026E+02 -0.58149943193E+02 -0.16250362287E+03  0.20742662100E+03  0.79084781835E+02 0.  0.
          5    1    5    5  501    0  0.18856779847E+02  0.84416164009E+00 -0.22948774652E+03  0.23031067400E+03  0.47000000000E+01 0. -1.
        -11    1    6    6    0    0 -0.41695487205E+02 -0.25419856934E+02 -0.15691142664E+02  0.51292248322E+02  0.00000000000E+00 0.  1.
         12    1    6    6    0    0 -0.41866208820E+02 -0.32730086259E+02 -0.14681248021E+03  0.15613437268E+03  0.00000000000E+00 0. -1.
         -5    1    3    3    0  503  0.96590509867E+02  0.38840445864E+02 -0.14929597849E+03  0.18207055233E+03  0.47000000000E+01 0.  1.
         13    1    4    4    0    0  0.60388538260E+00  0.34676129454E+02 -0.18731114200E+02  0.39416408647E+02  0.00000000000E+00 0. -1.
        -14    1    4    4    0    0 -0.32489479071E+02 -0.16210793766E+02 -0.11124364109E+03  0.11701924529E+03  0.00000000000E+00 0.  1.
</event>
<event>
12    1  0.8313893E-002  0.1799920E+03  0.7818608E-02  0.1168847E+00
         21   -1    0    0  503  502  0.00000000000E+00  0.00000000000E+00  0.50866117077E+03  0.50866117077E+03  0.00000000000E+00 0.  1.
         21   -1    0    0  501  503 -0.00000000000E+00 -0.00000000000E+00 -0.42139817778E+03  0.42139817778E+03  0.00000000000E+00 0.  1.
          6    2    1    2  501    0  0.48713426964E+02 -0.28845785340E+02 -0.38562518440E+03  0.42556302638E+03  0.17085675076E+03 0.  0.
         24    2    3    3    0    0 -0.13011799232E+02  0.39548787198E+02 -0.17649631109E+03  0.19699181919E+03  0.76950734333E+02 0.  0.
         -6    2    1    2    0  502 -0.48713426964E+02  0.28845785340E+02  0.47288817739E+03  0.50449632217E+03  0.16639781690E+03 0.  0.
        -24    2    5    5    0    0  0.21244909892E+02  0.35177216170E+02  0.33199871200E+03  0.34699652099E+03  0.92166469393E+02 0.  0.
          5    1    3    3  501    0  0.61725226195E+02 -0.68394572538E+02 -0.20912887331E+03  0.22857120718E+03  0.47000000000E+01 0. -1.
        -11    1    4    4    0    0  0.23785275585E+02  0.89946879137E+01 -0.12138656849E+03  0.12402154150E+03  0.00000000000E+00 0.  1.
         12    1    4    4    0    0 -0.36797074817E+02  0.30554099284E+02 -0.55109742592E+02  0.72970277694E+02  0.00000000000E+00 0. -1.
         -5    1    5    5    0  502 -0.69958336856E+02 -0.63314308304E+01  0.14088946540E+03  0.15749980118E+03  0.47000000000E+01 0.  1.
         11    1    6    6    0    0 -0.15504656325E+02 -0.24345565495E+02  0.67681639441E+02  0.73579244658E+02  0.00000000000E+00 0. -1.
        -12    1    6    6    0    0  0.36749566217E+02  0.59522781665E+02  0.26431707256E+03  0.27341727634E+03  0.00000000000E+00 0.  1.
</event>
<event>
12    1  0.8313893E-002  0.3862648E+03  0.7818608E-02  0.1048699E+00
         21   -1    0    0  503  502  0.00000000000E+00  0.00000000000E+00  0.36102197409E+03  0.36102197409E+03  0.00000000000E+00 0.  1.
         21   -1    0    0  501  503 -0.00000000000E+00 -0.00000000000E+00 -0.79432927163E+03  0.79432927163E+03  0.00000000000E+00 0. -1.
          6    2    1    2  501    0 -0.16964047238E+03 -0.30108089293E+03  0.18389808593E+03  0.42724205527E+03  0.17114226196E+03 0.  0.
         24    2    3    3    0    0 -0.11563482803E+03 -0.30586134262E+03  0.15813232920E+03  0.36703054026E+03  0.52754237553E+02 0.  0.
         -6    2    1    2    0  502  0.16964047238E+03  0.30108089293E+03 -0.61720538346E+03  0.72810919045E+03  0.17254829436E+03 0.  0.
        -24    2    5    5    0    0  0.12127823820E+03  0.14517236022E+03 -0.28110339598E+03  0.35443418157E+03  0.10402425008E+03 0.  0.
          5    1    3    3  501    0 -0.54005644341E+02  0.47804496924E+01  0.25765756726E+02  0.60211515008E+02  0.47000000000E+01 0. -1.
        -11    1    4    4    0    0 -0.32430534527E+02 -0.95890125151E+02  0.76475255930E+02  0.12686654579E+03  0.00000000000E+00 0.  1.
         12    1    4    4    0    0 -0.83204293508E+02 -0.20997121747E+03  0.81657073271E+02  0.24016399447E+03  0.00000000000E+00 0. -1.
         -5    1    5    5    0  502  0.48362234178E+02  0.15590853271E+03 -0.33610198749E+03  0.37367500888E+03  0.47000000000E+01 0.  1.
         11    1    6    6    0    0 -0.13459743842E+02  0.47486461593E+02 -0.59842381911E+02  0.77570867030E+02  0.00000000000E+00 0. -1.
        -12    1    6    6    0    0  0.13473798204E+03  0.97685898629E+02 -0.22126101407E+03  0.27686331455E+03  0.00000000000E+00 0.  1.
</event>
<event>
12    1  0.8313893E-002  0.2572474E+03  0.7818608E-02  0.1108909E+00
         21   -1    0    0  501  502  0.00000000000E+00  0.00000000000E+00  0.16512593358E+04  0.16512593358E+04  0.00000000000E+00 0.  1.
         21   -1    0    0  502  503 -0.00000000000E+00 -0.00000000000E+00 -0.45013474390E+02  0.45013474390E+02  0.00000000000E+00 0. -1.
         -6    2    1    2    0  503  0.91361544973E+02  0.16813167478E+03  0.51840671317E+03  0.57843102903E+03  0.17094368404E+03 0.  0.
        -24    2    3    3    0    0  0.10988687309E+03  0.10410123113E+03  0.25732377728E+03  0.30893246705E+03  0.79445274499E+02 0.  0.
          6    2    1    2  501    0 -0.91361544973E+02 -0.16813167478E+03  0.10878391482E+04  0.11178417811E+04  0.17193325247E+03 0.  0.
         24    2    5    5    0    0 -0.57218304749E+02 -0.40324041252E+02  0.70073387032E+03  0.70872915824E+03  0.79806641471E+02 0.  0.
          5    1    5    5  501    0 -0.34143240224E+02 -0.12780763353E+03  0.38710527788E+03  0.40911262289E+03  0.47000000000E+01 0. -1.
        -13    1    6    6    0    0 -0.37380012356E+02 -0.37757179527E+02  0.18166650275E+03  0.18927648600E+03  0.00000000000E+00 0.  1.
         14    1    6    6    0    0 -0.19838292393E+02 -0.25668617251E+01  0.51906736756E+03  0.51945267224E+03  0.00000000000E+00 0. -1.
         -5    1    3    3    0  503 -0.18525328121E+02  0.64030443652E+02  0.26108293589E+03  0.26949856198E+03  0.47000000000E+01 0.  1.
         13    1    4    4    0    0  0.44119648794E+02  0.69404059865E+02  0.19597934420E+03  0.21253557417E+03  0.00000000000E+00 0. -1.
        -14    1    4    4    0    0  0.65767224299E+02  0.34697171267E+02  0.61344433080E+02  0.96396892875E+02  0.00000000000E+00 0.  1.
</event>
<event>
12    1  0.8313893E-002  0.1960441E+03  0.7818608E-02  0.1153524E+00
         21   -1    0    0  503  502  0.00000000000E+00  0.00000000000E+00  0.57713292370E+02  0.57713292370E+02  0.00000000000E+00 0.  1.
         21   -1    0    0  501  503 -0.00000000000E+00 -0.00000000000E+00 -0.74269716714E+03  0.74269716714E+03  0.00000000000E+00 0.  1.
          6    2    1    2  501    0 -0.31796713323E+02  0.84732670770E+02 -0.47487305260E+03  0.51304337486E+03  0.17180928940E+03 0.  0.
         24    2    3    3    0    0 -0.74889597702E+02  0.38832925561E+02 -0.20656027827E+03  0.23740299653E+03  0.81096154357E+02 0.  0.
         -6    2    1    2    0  502  0.31796713323E+02 -0.84732670770E+02 -0.21011082217E+03  0.28736708465E+03  0.17390407492E+03 0.  0.
        -24    2    5    5    0    0  0.70167118414E+02 -0.74929576027E+02 -0.20951686884E+03  0.24748185638E+03  0.82535356296E+02 0.  0.
          5    1    3    3  501    0  0.43092884379E+02  0.45899745209E+02 -0.26831277434E+03  0.27564037833E+03  0.47000000000E+01 0. -1.
        -13    1    4    4    0    0  0.16753983024E+02  0.96240499297E+01 -0.50646669767E+02  0.54207042372E+02  0.00000000000E+00 0.  1.
         14    1    4    4    0    0 -0.91643580726E+02  0.29208875631E+02 -0.15591360850E+03  0.18319595416E+03  0.00000000000E+00 0. -1.
         -5    1    5    5    0  502 -0.38370405092E+02 -0.98030947422E+01 -0.59395332452E+00  0.39885228268E+02  0.47000000000E+01 0.  1.
         11    1    6    6    0    0  0.32310141465E+02 -0.89596153384E+01 -0.14158781165E+03  0.14550370564E+03  0.00000000000E+00 0. -1.
        -12    1    6    6    0    0  0.37856976949E+02 -0.65969960689E+02 -0.67929057195E+02  0.10197815074E+03  0.00000000000E+00 0.  1.
</event>
<event>
12    1  0.8313893E-002  0.2577957E+03  0.7818608E-02  0.1108664E+00
         21   -1    0    0  501  502  0.00000000000E+00  0.00000000000E+00  0.17737423431E+03  0.17737423431E+03  0.00000000000E+00 0.  1.
         21   -1    0    0  502  503 -0.00000000000E+00 -0.00000000000E+00 -0.56222763367E+03  0.56222763367E+03  0.00000000000E+00 0.  1.
         -6    2    1    2    0  503 -0.14045981228E+03 -0.13063485304E+03 -0.40672700758E+03  0.48087983138E+03  0.17036469656E+03 0.  0.
        -24    2    3    3    0    0 -0.12211935491E+02 -0.93088411216E+02 -0.20101260409E+03  0.23552751531E+03  0.79073129405E+02 0.  0.
          6    2    1    2  501    0  0.14045981228E+03  0.13063485304E+03  0.21873608230E+02  0.25872203660E+03  0.17223302178E+03 0.  0.
         24    2    5    5    0    0  0.11668208868E+03  0.82490608069E+02 -0.48112570557E+02  0.17038516047E+03  0.79352840051E+02 0.  0.
          5    1    5    5  501    0  0.23777723606E+02  0.48144244974E+02  0.69986178788E+02  0.88336876135E+02  0.47000000000E+01 0. -1.
        -13    1    6    6    0    0  0.76203064215E+02  0.70347271065E+02  0.33876068110E+01  0.10376474075E+03  0.00000000000E+00 0.  1.
         14    1    6    6    0    0  0.40479024464E+02  0.12143337004E+02 -0.51500177368E+02  0.66620419723E+02  0.00000000000E+00 0. -1.
         -5    1    3    3    0  503 -0.12824787679E+03 -0.37546441827E+02 -0.20571440349E+03  0.24535231607E+03  0.47000000000E+01 0.  1.
         13    1    4    4    0    0  0.18631594310E+02 -0.30379672745E+02 -0.18627921042E+02  0.40212687861E+02  0.00000000000E+00 0. -1.
        -14    1    4    4    0    0 -0.30843529801E+02 -0.62708738471E+02 -0.18238468305E+03  0.19531482745E+03  0.00000000000E+00 0.  1.
</event>
<event>
12    1  0.8313893E-002  0.1835514E+03  0.7818608E-02  0.1164452E+00
         21   -1    0    0  503  502  0.00000000000E+00  0.00000000000E+00  0.63847067359E+03  0.63847067359E+03  0.00000000000E+00 0. -1.
         21   -1    0    0  501  503 -0.00000000000E+00 -0.00000000000E+00 -0.56158696039E+02  0.56158696039E+02  0.00000000000E+00 0. -1.
          6    2    1    2  501    0  0.50638037834E+02 -0.36929463756E+02  0.20530189931E+03  0.27539060788E+03  0.17251991445E+03 0.  0.
         24    2    3    3    0    0  0.76858373011E+02  0.15240318588E+02  0.18597493458E+03  0.21370743569E+03  0.70318667236E+02 0.  0.
         -6    2    1    2    0  502 -0.50638037834E+02  0.36929463756E+02  0.37701007824E+03  0.41923876175E+03  0.17232685248E+03 0.  0.
        -24    2    5    5    0    0 -0.71877475212E+02  0.44856565301E+02  0.14383879489E+03  0.18492083665E+03  0.79546426826E+02 0.  0.
          5    1    3    3  501    0 -0.26220335176E+02 -0.52169782344E+02  0.19326964727E+02  0.61683172196E+02  0.47000000000E+01 0. -1.
        -11    1    4    4    0    0  0.69705093118E+02  0.33526257972E+02  0.10516905551E+03  0.13055014446E+03  0.00000000000E+00 0.  1.
         12    1    4    4    0    0  0.71532798926E+01 -0.18285939384E+02  0.80805879068E+02  0.83157291227E+02  0.00000000000E+00 0. -1.
         -5    1    5    5    0  502  0.21239437377E+02 -0.79271015450E+01  0.23317128336E+03  0.23431792509E+03  0.47000000000E+01 0.  1.
         11    1    6    6    0    0 -0.41627296420E+02  0.52398045181E+02  0.13776491523E+03  0.15315860673E+03  0.00000000000E+00 0. -1.
        -12    1    6    6    0    0 -0.30250178792E+02 -0.75414798796E+01  0.60738796534E+01  0.31762229924E+02  0.00000000000E+00 0.  1.
</event>
<event>
12    1  0.8313893E-002  0.2476481E+03  0.7818608E-02  0.1114802E+00
         21   -1    0    0  501  502  0.00000000000E+00  0.00000000000E+00  0.65708767705E+03  0.65708767705E+03  0.00000000000E+00 0. -1.
         21   -1    0    0  502  503 -0.00000000000E+00 -0.00000000000E+00 -0.12241534516E+04  0.12241534516E+04  0.00000000000E+00 0. -1.
         -6    2    1    2    0  503  0.11648422181E+03  0.13408524005E+03 -0.11875860086E+04  0.12131323474E+04  0.17257502367E+03 0.  0.
        -24    2    3    3    0    0  0.37630743963E+02  0.11307991114E+03 -0.97061911354E+03  0.98127933708E+03  0.81268287914E+02 0.  0.
          6    2    1    2  501    0 -0.11648422181E+03 -0.13408524005E+03  0.62052023407E+03  0.66810878129E+03  0.17255885147E+03 0.  0.
         24    2    5    5    0    0 -0.45230990527E+02 -0.14242611099E+03  0.49776753745E+03  0.52585229594E+03  0.80106655233E+02 0.  0.
          5    1    5    5  501    0 -0.71253231286E+02  0.83408709388E+01  0.12275269662E+03  0.14225648535E+03  0.47000000000E+01 0. -1.
        -13    1    6    6    0    0 -0.62654019437E+02 -0.12202874058E+03  0.35488297970E+03  0.38047137732E+03  0.00000000000E+00 0.  1.
         14    1    6    6    0    0  0.17423028910E+02 -0.20397370414E+02  0.14288455775E+03  0.14538091862E+03  0.00000000000E+00 0. -1.
         -5    1    3    3    0  503  0.78853477849E+02  0.21005328918E+02 -0.21696689511E+03  0.23185301030E+03  0.47000000000E+01 0.  1.
         13    1    4    4    0    0  0.54740180492E+02  0.36726355905E+02 -0.42731258346E+03  0.43236715482E+03  0.00000000000E+00 0. -1.
        -14    1    4    4    0    0 -0.17109436529E+02  0.76353555231E+02 -0.54330653007E+03  0.54891218226E+03  0.00000000000E+00 0.  1.
</event>
<event>
12    1  0.8313893E-002  0.3091469E+03  0.7818608E-02  0.1080866E+00
         21   -1    0    0  503  502  0.00000000000E+00  0.00000000000E+00  0.21703840564E+04  0.21703840564E+04  0.00000000000E+00 0. -1.
         21   -1    0    0  501  503 -0.00000000000E+00 -0.00000000000E+00 -0.15956904349E+03  0.15956904349E+03  0.00000000000E+00 0.  1.
          6    2    1    2  501    0  0.17120821939E+03  0.19102373432E+03  0.13972963652E+02  0.30946251263E+03  0.17253834806E+03 0.  0.
         24    2    3    3    0    0  0.16939762532E+03  0.16778988542E+03 -0.36782232165E+02  0.25341547981E+03  0.77572364222E+02 0.  0.
         -6    2    1    2    0  502 -0.17120821939E+03 -0.19102373432E+03  0.19968420493E+04  0.20204905873E+04  0.17088511365E+03 0.  0.
        -24    2    5    5    0    0 -0.63463988927E+02 -0.53321897754E+02  0.11496739838E+04  0.11554550758E+04  0.80344635476E+02 0.  0.
          5    1    3    3  501    0  0.18105940701E+01  0.23233848902E+02  0.50755195817E+02  0.56047032822E+02  0.47000000000E+01 0. -1.
        -11    1    4    4    0    0  0.18398536113E+02  0.65943151381E+02 -0.63619472515E+01  0.68756670352E+02  0.00000000000E+00 0.  1.
         12    1    4    4    0    0  0.15099908921E+03  0.10184673404E+03 -0.30420284914E+02  0.18465880946E+03  0.00000000000E+00 0. -1.
         -5    1    5    5    0  502 -0.10774423047E+03 -0.13770183657E+03  0.84716806551E+03  0.86503551153E+03  0.47000000000E+01 0.  1.
         13    1    6    6    0    0 -0.20623175428E+01 -0.50604838864E+02  0.38537289194E+03  0.38868672310E+03  0.00000000000E+00 0. -1.
        -14    1    6    6    0    0 -0.61401671384E+02 -0.27170588897E+01  0.76430109183E+03  0.76676835265E+03  0.00000000000E+00 0.  1.
</event>
<event>
12    1  0.8313893E-002  0.2332031E+03  0.7818608E-02  0.1124505E+00
         21   -1    0    0  503  502  0.00000000000E+00  0.00000000000E+00  0.83925143782E+03  0.83925143782E+03  0.00000000000E+00 0. -1.
         21   -1    0    0  501  503 -0.00000000000E+00 -0.00000000000E+00 -0.17170429980E+03  0.17170429980E+03  0.00000000000E+00 0. -1.
          6    2    1    2  501    0 -0.57919489126E+02  0.14700995904E+03 -0.65529964051E+02  0.24167964512E+03  0.17072867186E+03 0.  0.
         24    2    3    3    0    0 -0.86185404287E+02  0.12890874951E+03 -0.66631583634E+01  0.17375316605E+03  0.78104900109E+02 0.  0.
         -6    2    1    2    0  502  0.57919489126E+02 -0.14700995904E+03  0.73307710207E+03  0.76927609250E+03  0.17151406247E+03 0.  0.
        -24    2    5    5    0    0  0.18692925128E+02 -0.16823268317E+03  0.56045849808E+03  0.59092699721E+03  0.80183083205E+02 0.  0.
          5    1    3    3  501    0  0.28265915160E+02  0.18101209533E+02 -0.58866805687E+02  0.67926479066E+02  0.47000000000E+01 0. -1.
        -11    1    4    4    0    0 -0.36738658181E+02  0.76157675994E+01  0.16059570027E+02  0.40812237264E+02  0.00000000000E+00 0.  1.
         12    1    4    4    0    0 -0.49446746106E+02  0.12129298191E+03 -0.22722728390E+02  0.13294092879E+03  0.00000000000E+00 0. -1.
         -5    1    5    5    0  502  0.39226563998E+02  0.21222724130E+02  0.17261860400E+03  0.17834909528E+03  0.47000000000E+01 0.  1.
         13    1    6    6    0    0 -0.16969491317E+01 -0.12721554940E+03  0.49462811462E+03  0.51072854572E+03  0.00000000000E+00 0. -1.
        -14    1    6    6    0    0  0.20389874260E+02 -0.41017133772E+02  0.65830383458E+02  0.80198451490E+02  0.00000000000E+00 0.  1.
</event>
<event>
12    1  0.8313893E-002  0.2322649E+03  0.7818608E-02  0.1125386E+00
         21   -1    0    0  501  502  0.00000000000E+00  0.00000000000E+00  0.15476591234E+03  0.15476591234E+03  0.00000000000E+00 0. -1.
         21   -1    0    0  502  503 -0.00000000000E+00 -0.00000000000E+00 -0.49048603189E+03  0.49048603189E+03  0.00000000000E+00 0.  1.
         -6    2    1    2    0  503 -0.14268106447E+03 -0.64044201937E+02 -0.34263885664E+03  0.41288403906E+03  0.16915170016E+03 0.  0.
        -24    2    3    3    0    0 -0.16678692168E+03 -0.35768937850E+02 -0.31036151212E+03  0.36344215519E+03  0.81661727907E+02 0.  0.
          6    2    1    2  501    0  0.14268106447E+03  0.64044201937E+02  0.69187370984E+01  0.23236790517E+03  0.17171903933E+03 0.  0.
         24    2    5    5    0    0  0.15393641252E+03  0.38891301096E+02  0.45962505183E+02  0.18434856420E+03  0.81626520439E+02 0.  0.
          5    1    5    5  501    0 -0.11255348052E+02  0.25152900841E+02 -0.39043768085E+02  0.48019340965E+02  0.47000000000E+01 0. -1.
        -13    1    6    6    0    0  0.47420293187E+02 -0.52629073646E+01  0.49816879085E+02  0.68979010152E+02  0.00000000000E+00 0.  1.
         14    1    6    6    0    0  0.10651611934E+03  0.44154208461E+02 -0.38543739019E+01  0.11536955405E+03  0.00000000000E+00 0. -1.
         -5    1    3    3    0  503  0.24105857210E+02 -0.28275264088E+02 -0.32277344522E+02  0.49441883868E+02  0.47000000000E+01 0.  1.
         11    1    4    4    0    0 -0.99751854924E+02 -0.57433805763E+02 -0.15700648564E+03  0.19467950878E+03  0.00000000000E+00 0. -1.
        -12    1    4    4    0    0 -0.67035066757E+02  0.21664867914E+02 -0.15335502649E+03  0.16876264642E+03  0.00000000000E+00 0.  1.
</event>
<event>
12    1  0.8313893E-002  0.2037833E+03  0.7818608E-02  0.1146641E+00
         21   -1    0    0  503  502  0.00000000000E+00  0.00000000000E+00  0.15207013445E+03  0.15207013445E+03  0.00000000000E+00 0. -1.
         21   -1    0    0  501  503 -0.00000000000E+00 -0.00000000000E+00 -0.47042166973E+03  0.47042166973E+03  0.00000000000E+00 0. -1.
          6    2    1    2  501    0  0.15163301371E+02 -0.10793624953E+03 -0.36100807519E+03  0.41455331568E+03  0.17218438232E+03 0.  0.
         24    2    3    3    0    0 -0.47369223947E+02 -0.43600155177E+02 -0.12491244372E+03  0.16194158405E+03  0.80480687981E+02 0.  0.
         -6    2    1    2    0  502 -0.15163301371E+02  0.10793624953E+03  0.42656539913E+02  0.20793848850E+03  0.17186819058E+03 0.  0.
        -24    2    5    5    0    0  0.14224514823E+01  0.39895997226E+02  0.83543006385E+02  0.12670822153E+03  0.86497546356E+02 0.  0.
          5    1    3    3  501    0  0.62532525318E+02 -0.64336094352E+02 -0.23609563147E+03  0.25261173163E+03  0.47000000000E+01 0. -1.
        -13    1    4    4    0    0 -0.15906640703E+02 -0.12505753209E+02  0.80783253964E+01  0.21787024188E+02  0.00000000000E+00 0.  1.
         14    1    4    4    0    0 -0.31462583244E+02 -0.31094401968E+02 -0.13299076912E+03  0.14015455986E+03  0.00000000000E+00 0. -1.
         -5    1    5    5    0  502 -0.16585752854E+02  0.68040252303E+02 -0.40886466472E+02  0.81230266968E+02  0.47000000000E+01 0.  1.
         11    1    6    6    0    0 -0.23876050275E+02  0.15453276776E+02 -0.72402496041E+01  0.29347755522E+02  0.00000000000E+00 0. -1.
        -12    1    6    6    0    0  0.25298501757E+02  0.24442720450E+02  0.90783255989E+02  0.97360466012E+02  0.00000000000E+00 0.  1.
</event>
<event>
12    1  0.8313893E-002  0.1736421E+03  0.7818608E-02  0.1174576E+00
         21   -1    0    0  501  502  0.00000000000E+00  0.00000000000E+00  0.11649173227E+03  0.11649173227E+03  0.00000000000E+00 0.  1.
         21   -1    0    0  502  503 -0.00000000000E+00 -0.00000000000E+00 -0.61086528452E+03  0.61086528452E+03  0.00000000000E+00 0.  1.
         -6    2    1    2    0  503  0.16639019765E+02  0.11306118832E+02  0.30531452695E+02  0.17447652440E+03  0.17060246968E+03 0.  0.
        -24    2    3    3    0    0 -0.47282689508E+02 -0.28108666229E+02  0.27444662680E+02  0.99169629162E+02  0.77818095545E+02 0.  0.
          6    2    1    2  501    0 -0.16639019765E+02 -0.11306118832E+02 -0.52490500494E+03  0.55288049238E+03  0.17247286553E+03 0.  0.
         24    2    5    5    0    0  0.10864786880E+02 -0.56622247053E+02 -0.18971851622E+03  0.21349563256E+03  0.79140048459E+02 0.  0.
          5    1    5    5  501    0 -0.27503806645E+02  0.45316128221E+02 -0.33518648872E+03  0.33938485982E+03  0.47000000000E+01 0. -1.
        -11    1    6    6    0    0  0.41294174605E+02 -0.11856008480E+02 -0.70410781421E+02  0.82483040279E+02  0.00000000000E+00 0.  1.
         12    1    6    6    0    0 -0.30429387724E+02 -0.44766238573E+02 -0.11930773480E+03  0.13101259228E+03  0.00000000000E+00 0. -1.
         -5    1    3    3    0  503  0.63921709273E+02  0.39414785062E+02  0.30867900149E+01  0.75306895238E+02  0.47000000000E+01 0.  1.
         13    1    4    4    0    0 -0.38327734655E+01 -0.23586021391E+02 -0.22496207630E+02  0.32818743352E+02  0.00000000000E+00 0. -1.
        -14    1    4    4    0    0 -0.43449916043E+02 -0.45226448382E+01  0.49940870310E+02  0.66350885810E+02  0.00000000000E+00 0.  1.
</event>
<event>
12    1  0.8313893E-002  0.1780545E+03  0.7818608E-02  0.1169827E+00
         21   -1    0    0  503  502  0.00000000000E+00  0.00000000000E+00  0.40585140684E+03  0.40585140684E+03  0.00000000000E+00 0. -1.
         21   -1    0    0  501  503 -0.00000000000E+00 -0.00000000000E+00 -0.21211064731E+03  0.21211064731E+03  0.00000000000E+00 0. -1.
          6    2    1    2  501    0 -0.29637336811E+02  0.10250790815E+02 -0.14897133520E+03  0.23175617597E+03  0.17474271356E+03 0.  0.
         24    2    3    3    0    0 -0.27922929168E+02 -0.38968675012E+02 -0.15554898222E+03  0.18184775534E+03  0.81085588406E+02 0.  0.
         -6    2    1    2    0  502  0.29637336811E+02 -0.10250790815E+02  0.34271209473E+03  0.38620587818E+03  0.17527107582E+03 0.  0.
        -24    2    5    5    0    0  0.51438971516E+01  0.35460649310E+02  0.31221722430E+03  0.32586110652E+03  0.86150729893E+02 0.  0.
          5    1    3    3  501    0 -0.17144076434E+01  0.49219465827E+02  0.65776470161E+01  0.49908420633E+02  0.47000000000E+01 0. -1.
        -13    1    4    4    0    0  0.10882038274E+02 -0.35959057895E+02 -0.23809056880E+02  0.44478576767E+02  0.00000000000E+00 0.  1.
         14    1    4    4    0    0 -0.38804967441E+02 -0.30096171167E+01 -0.13173992534E+03  0.13736917857E+03  0.00000000000E+00 0. -1.
         -5    1    5    5    0  502  0.24493439659E+02 -0.45711440125E+02  0.30494870429E+02  0.60344771664E+02  0.47000000000E+01 0.  1.
         11    1    6    6    0    0  0.28525122499E+02 -0.54914985171E+01  0.22359020752E+03  0.22546933288E+03  0.00000000000E+00 0. -1.
        -12    1    6    6    0    0 -0.23381225347E+02  0.40952147828E+02  0.88627016784E+02  0.10039177364E+03  0.00000000000E+00 0.  1.
</event>
<event>
12    1  0.8313893E-002  0.1954630E+03  0.7818608E-02  0.1154979E+00
         21   -1    0    0  503  502  0.00000000000E+00  0.00000000000E+00  0.20073424848E+03  0.20073424848E+03  0.00000000000E+00 0. -1.
         21   -1    0    0  501  503 -0.00000000000E+00 -0.00000000000E+00 -0.21668973700E+03  0.21668973700E+03  0.00000000000E+00 0.  1.
          6    2    1    2  501    0 -0.18943652004E+02  0.78847501178E+02 -0.88417108930E+02  0.20896184421E+03  0.17108967470E+03 0.  0.
         24    2    3    3    0    0 -0.44311495564E+02  0.10891526758E+03 -0.43030746858E+02  0.14871560013E+03  0.80241139047E+02 0.  0.
         -6    2    1    2    0  502  0.18943652004E+02 -0.78847501178E+02  0.72461620403E+02  0.20846214127E+03  0.17784821483E+03 0.  0.
        -24    2    5    5    0    0 -0.93204766098E+01  0.13086503708E+01 -0.20173434146E+02  0.82655889721E+02  0.79601788990E+02 0.  0.
          5    1    3    3  501    0  0.25367843560E+02 -0.30067766402E+02 -0.45386362073E+02  0.60246244078E+02  0.47000000000E+01 0. -1.
        -13    1    4    4    0    0 -0.31413512110E+02  0.13580450575E+01 -0.21973999499E+02  0.38360261775E+02  0.00000000000E+00 0.  1.
         14    1    4    4    0    0 -0.12897983454E+02  0.10755722252E+03 -0.21056747359E+02  0.11035533835E+03  0.00000000000E+00 0. -1.
         -5    1    5    5    0  502  0.28264128614E+02 -0.80156151549E+02  0.92635054549E+02  0.12580625155E+03  0.47000000000E+01 0.  1.
         13    1    6    6    0    0 -0.68003678570E+01 -0.37962758018E+02 -0.19685864642E+02  0.43300684360E+02  0.00000000000E+00 0. -1.
        -14    1    6    6    0    0 -0.25201087528E+01  0.39271408389E+02 -0.48756950422E+00  0.39355205361E+02  0.00000000000E+00 0.  1.
</event>
<event>
12    1  0.8313893E-002  0.2985319E+03  0.7818608E-02  0.1086173E+00
         21   -1    0    0  503  502  0.00000000000E+00  0.00000000000E+00  0.14699864661E+04  0.14699864661E+04  0.00000000000E+00 0.  1.
         21   -1    0    0  501  503 -0.00000000000E+00 -0.00000000000E+00 -0.77659759846E+02  0.77659759846E+02  0.00000000000E+00 0.  1.
          6    2    1    2  501    0  0.24394832320E+03  0.18015633931E+01  0.33183606644E+03  0.44635910543E+03  0.17206756228E+03 0.  0.
         24    2    3    3    0    0  0.16270471254E+03 -0.39742223469E+02  0.13444411603E+03  0.22884569760E+03  0.79011803961E+02 0.  0.
         -6    2    1    2    0  502 -0.24394832320E+03 -0.18015633931E+01  0.10604906398E+04  0.11012871205E+04  0.16934844156E+03 0.  0.
        -24    2    5    5    0    0 -0.18282549790E+03  0.31597494284E+02  0.55042532576E+03  0.58646655816E+03  0.80940844279E+02 0.  0.
          5    1    3    3  501    0  0.81243610660E+02  0.41543786862E+02  0.19739195042E+03  0.21751340784E+03  0.47000000000E+01 0. -1.
        -13    1    4    4    0    0  0.11275532156E+03 -0.63681265183E+02  0.88068421111E+02  0.15660495801E+03  0.00000000000E+00 0.  1.
         14    1    4    4    0    0  0.49949390974E+02  0.23939041714E+02  0.46375694917E+02  0.72240739586E+02  0.00000000000E+00 0. -1.
         -5    1    5    5    0  502 -0.61122825300E+02 -0.33399057677E+02  0.51006531403E+03  0.51482056234E+03  0.47000000000E+01 0.  1.
         13    1    6    6    0    0  0.48386566154E+01 -0.52732249180E+01  0.57209499630E+01  0.91623559938E+01  0.00000000000E+00 0. -1.
        -14    1    6    6    0    0 -0.18766415451E+03  0.36870719201E+02  0.54470437580E+03  0.57730420217E+03  0.00000000000E+00 0.  1.
</event>
<event>
12    1  0.8313893E-002  0.1797930E+03  0.7818608E-02  0.1168089E+00
         21   -1    0    0  501  502  0.00000000000E+00  0.00000000000E+00  0.25221038468E+03  0.25221038468E+03  0.00000000000E+00 0.  1.
         21   -1    0    0  502  503 -0.00000000000E+00 -0.00000000000E+00 -0.16028733449E+03  0.16028733449E+03  0.00000000000E+00 0.  1.
         -6    2    1    2    0  503 -0.34850181756E+02 -0.25585095428E+02 -0.46688330253E+02  0.18575611389E+03  0.17451762487E+03 0.  0.
        -24    2    3    3    0    0 -0.24468222966E+00 -0.78284398905E+02 -0.55424738631E+02  0.12193470670E+03  0.75283889809E+02 0.  0.
          6    2    1    2  501    0  0.34850181756E+02  0.25585095428E+02  0.13861138045E+03  0.22674160527E+03  0.17415369217E+03 0.  0.
         24    2    5    5    0    0  0.44571642637E+02 -0.25564062577E+01  0.10853922311E+02  0.95476571742E+02  0.83694692674E+02 0.  0.
          5    1    5    5  501    0 -0.97214608810E+01  0.28141501686E+02  0.12775745813E+03  0.13126503353E+03  0.47000000000E+01 0. -1.
        -13    1    6    6    0    0  0.86647387544E+01 -0.35418232760E+02 -0.16075668762E+02  0.39849166060E+02  0.00000000000E+00 0.  1.
         14    1    6    6    0    0  0.35906903883E+02  0.32861826503E+02  0.26929591073E+02  0.55627405682E+02  0.00000000000E+00 0. -1.
         -5    1    3    3    0  503 -0.34605499527E+02  0.52699303477E+02  0.87364083782E+01  0.63821407191E+02  0.47000000000E+01 0.  1.
         11    1    4    4    0    0  0.11651874925E+02  0.92964303056E+01  0.39959733275E+01  0.15432355897E+02  0.00000000000E+00 0. -1.
        -12    1    4    4    0    0 -0.11896557155E+02 -0.87580829211E+02 -0.59420711958E+02  0.10650235080E+03  0.00000000000E+00 0.  1.
</event>
<event>
12    1  0.8313893E-002  0.2428502E+03  0.7818608E-02  0.1117940E+00
         21   -1    0    0  501  502  0.00000000000E+00  0.00000000000E+00  0.22999431152E+03  0.22999431152E+03  0.00000000000E+00 0. -1.
         21   -1    0    0  502  503 -0.00000000000E+00 -0.00000000000E+00 -0.27063446669E+03  0.27063446669E+03  0.00000000000E+00 0.  1.
         -6    2    1    2    0  503  0.35372732525E+02 -0.16731591993E+03  0.37457751737E+02  0.24552972613E+03  0.17215085239E+03 0.  0.
        -24    2    3    3    0    0  0.45572106592E+02 -0.23643926565E+02 -0.41290066541E+01  0.95539001809E+02  0.80466141998E+02 0.  0.
          6    2    1    2  501    0 -0.35372732525E+02  0.16731591993E+03 -0.78097906910E+02  0.25509905208E+03  0.17242504470E+03 0.  0.
         24    2    5    5    0    0 -0.82820257279E+02  0.15621583438E+03 -0.58554151490E+02  0.20238730879E+03  0.79179872292E+02 0.  0.
          5    1    5    5  501    0  0.47447524754E+02  0.11100085548E+02 -0.19543755420E+02  0.52711743287E+02  0.47000000000E+01 0. -1.
        -13    1    6    6    0    0 -0.44925877552E+02  0.15738604656E+02 -0.74924457145E+01  0.48188949907E+02  0.00000000000E+00 0.  1.
         14    1    6    6    0    0 -0.37894379727E+02  0.14047722973E+03 -0.51061705775E+02  0.15419835889E+03  0.00000000000E+00 0. -1.
         -5    1    3    3    0  503 -0.10199374067E+02 -0.14367199337E+03  0.41586758391E+02  0.14999072432E+03  0.47000000000E+01 0.  1.
         13    1    4    4    0    0  0.56899913701E+02 -0.59527334333E+01  0.22626260106E+02  0.61522214369E+02  0.00000000000E+00 0. -1.
        -14    1    4    4    0    0 -0.11327807109E+02 -0.17691193132E+02 -0.26755266760E+02  0.34016787440E+02  0.00000000000E+00 0.  1.
</event>
<event>
12    1  0.8313893E-002  0.3624527E+03  0.7818608E-02  0.1058233E+00
         21   -1    0    0  501  502  0.00000000000E+00  0.00000000000E+00  0.10803957919E+04  0.10803957919E+04  0.00000000000E+00 0. -1.
         21   -1    0    0  502  503 -0.00000000000E+00 -0.00000000000E+00 -0.47797368702E+03  0.47797368702E+03  0.00000000000E+00 0.  1.
         -6    2    1    2    0  503  0.22231287076E+03 -0.21812867530E+03 -0.37420383250E+03  0.51665445451E+03  0.17291670137E+03 0.  0.
        -24    2    3    3    0    0  0.98623016941E+02 -0.44480517360E+02 -0.19576811815E+03  0.23860004104E+03  0.83065080538E+02 0.  0.
          6    2    1    2  501    0 -0.22231287076E+03  0.21812867530E+03  0.97662593733E+03  0.10417150244E+04  0.18538834649E+03 0.  0.
         24    2    5    5    0    0 -0.13431796719E+03  0.53603471554E+02  0.33221972921E+03  0.37082524445E+03  0.78909853458E+02 0.  0.
          5    1    5    5  501    0 -0.87994903575E+02  0.16452520375E+03  0.64440620812E+03  0.67088977991E+03  0.47000000000E+01 0. -1.
        -11    1    6    6    0    0 -0.24362286981E+02 -0.17127878589E+02  0.99893817063E+02  0.10423847629E+03  0.00000000000E+00 0.  1.
         12    1    6    6    0    0 -0.10995568020E+03  0.70731350144E+02  0.23232591215E+03  0.26658676816E+03  0.00000000000E+00 0. -1.
         -5    1    3    3    0  503  0.12368985382E+03 -0.17364815794E+03 -0.17843571436E+03  0.27805441348E+03  0.47000000000E+01 0.  1.
         13    1    4    4    0    0  0.11513833199E+02 -0.42135492007E+02 -0.99980284650E+02  0.10910556979E+03  0.00000000000E+00 0. -1.
        -14    1    4    4    0    0  0.87109183742E+02 -0.23450253525E+01 -0.95787833499E+02  0.12949447124E+03  0.00000000000E+00 0.  1.
</event>
<event>
12    1  0.8313893E-002  0.2097643E+03  0.7818608E-02  0.1141904E+00
         21   -1    0    0  501  502  0.00000000000E+00  0.00000000000E+00  0.19124536158E+03  0.19124536158E+03  0.00000000000E+00 0. -1.
         21   -1    0    0  502  503 -0.00000000000E+00 -0.00000000000E+00 -0.66621924344E+03  0.66621924344E+03  0.00000000000E+00 0. -1.
         -6    2    1    2    0  503  0.52736926137E+02 -0.10627887729E+03 -0.58456048463E+03  0.62079964674E+03  0.17206062323E+03 0.  0.
        -24    2    3    3    0    0  0.85066216276E+02 -0.37269749427E+02 -0.44852551087E+03  0.46480270185E+03  0.79000774492E+02 0.  0.
          6    2    1    2  501    0 -0.52736926137E+02  0.10627887729E+03  0.10958660277E+03  0.23666495828E+03  0.17298755977E+03 0.  0.
         24    2    5    5    0    0 -0.44556502061E+02 -0.11384566094E+02  0.54280241103E+02  0.10630971715E+03  0.78996969349E+02 0.  0.
          5    1    5    5  501    0 -0.81804240760E+01  0.11766344339E+03  0.55306361666E+02  0.13035524112E+03  0.47000000000E+01 0. -1.
        -13    1    6    6    0    0 -0.77073593954E+01  0.31256003797E+02  0.74689154348E+01  0.33047327577E+02  0.00000000000E+00 0.  1.
         14    1    6    6    0    0 -0.36849142665E+02 -0.42640569891E+02  0.46811325668E+02  0.73262389578E+02  0.00000000000E+00 0. -1.
         -5    1    3    3    0  503 -0.32329290140E+02 -0.69009127866E+02 -0.13603497376E+03  0.15599694489E+03  0.47000000000E+01 0.  1.
         11    1    4    4    0    0  0.55420003442E+02 -0.62015904576E+02 -0.31649296476E+03  0.32723866817E+03  0.00000000000E+00 0. -1.
        -12    1    4    4    0    0  0.29646212834E+02  0.24746155149E+02 -0.13203254611E+03  0.13756403368E+03  0.00000000000E+00 0.  1.
</event>
<event>
12    1  0.8313893E-002  0.2084875E+03  0.7818608E-02  0.1143154E+00
         21   -1    0    0  503  502  0.00000000000E+00  0.00000000000E+00  0.28203624569E+03  0.28203624569E+03  0.00000000000E+00 0. -1.
         21   -1    0    0  501  503 -0.00000000000E+00 -0.00000000000E+00 -0.16978058928E+03  0.16978058928E+03  0.00000000000E+00 0.  1.
          6    2    1    2  501    0  0.90955445083E+02 -0.68567230192E+02 -0.15748953837E+02  0.20716973569E+03  0.17232791936E+03 0.  0.
         24    2    3    3    0    0  0.68644427704E+02 -0.95462730976E+01  0.43340474095E+02  0.12059661419E+03  0.88667682238E+02 0.  0.
         -6    2    1    2    0  502 -0.90955445083E+02  0.68567230192E+02  0.12800461025E+03  0.24464709928E+03  0.17462149036E+03 0.  0.
        -24    2    5    5    0    0 -0.18625098939E+02 -0.22132530165E+02  0.38632397391E+02  0.98128813959E+02  0.85440381546E+02 0.  0.
          5    1    3    3  501    0  0.22311017378E+02 -0.59020957095E+02 -0.59089427931E+02  0.86573121499E+02  0.47000000000E+01 0. -1.
        -11    1    4    4    0    0 -0.24809770797E+01 -0.80733984302E+01 -0.22271315590E+02  0.23819036664E+02  0.00000000000E+00 0.  1.
         12    1    4    4    0    0  0.71125404784E+02 -0.14728746675E+01  0.65611789685E+02  0.96777577522E+02  0.00000000000E+00 0. -1.
         -5    1    5    5    0  502 -0.72330346144E+02  0.90699760358E+02  0.89372212860E+02  0.14651828532E+03  0.47000000000E+01 0.  1.
         13    1    6    6    0    0 -0.11634483774E+02 -0.35017357339E+02 -0.16978501677E+02  0.40618296948E+02  0.00000000000E+00 0. -1.
        -14    1    6    6    0    0 -0.69906151647E+01  0.12884827174E+02  0.55610899068E+02  0.57510517011E+02  0.00000000000E+00 0.  1.
</event>
<event>
12    1  0.8313893E-002  0.2179383E+03  0.7818608E-02  0.1135526E+00
         21   -1    0    0  501  502  0.00000000000E+00  0.00000000000E+00  0.16674232481E+03  0.16674232481E+03  0.00000000000E+00 0. -1.
         21   -1    0    0  502  503 -0.00000000000E+00 -0.00000000000E+00 -0.28790731912E+03  0.28790731912E+03  0.00000000000E+00 0. -1.
         -6    2    1    2    0  503 -0.11739232971E+03  0.62695698834E+02 -0.34668703027E+02  0.22017420714E+03  0.17193909618E+03 0.  0.
        -24    2    3    3    0    0 -0.77429031592E+02  0.10551553065E+03 -0.27807566193E+01  0.15331963124E+03  0.79814751611E+02 0.  0.
          6    2    1    2  501    0  0.11739232971E+03 -0.62695698834E+02 -0.86496291278E+02  0.23447543679E+03  0.17258450778E+03 0.  0.
         24    2    5    5    0    0  0.13076904791E+03 -0.10443680484E+02 -0.94045104846E+02  0.17981023216E+03  0.79231455180E+02 0.  0.
          5    1    5    5  501    0 -0.13376718198E+02 -0.52252018350E+02  0.75488135679E+01  0.54665204634E+02  0.47000000000E+01 0. -1.
        -11    1    6    6    0    0  0.80282214667E+02  0.18432356661E+02 -0.89249522415E+02  0.12145148420E+03  0.00000000000E+00 0.  1.
         12    1    6    6    0    0  0.50486833238E+02 -0.28876037145E+02 -0.47955824316E+01  0.58358747952E+02  0.00000000000E+00 0. -1.
         -5    1    3    3    0  503 -0.39963298116E+02 -0.42819831816E+02 -0.31887946407E+02  0.66854575903E+02  0.47000000000E+01 0.  1.
         13    1    4    4    0    0 -0.42830819034E+02  0.61028979166E+02 -0.41131463842E+02  0.85151703887E+02  0.00000000000E+00 0. -1.
        -14    1    4    4    0    0 -0.34598212558E+02  0.44486551484E+02  0.38350707222E+02  0.68167927353E+02  0.00000000000E+00 0.  1.
</event>
<event>
12    1  0.8313893E-002  0.1942512E+03  0.7818608E-02  0.1154891E+00
         21   -1    0    0  503  502  0.00000000000E+00  0.00000000000E+00  0.12050130680E+03  0.12050130680E+03  0.00000000000E+00 0. -1.
         21   -1    0    0  501  503 -0.00000000000E+00 -0.00000000000E+00 -0.41786369737E+03  0.41786369737E+03  0.00000000000E+00 0. -1.
          6    2    1    2  501    0  0.49709210838E+02 -0.72511246104E+02 -0.28414969166E+03  0.34366496352E+03  0.17215014792E+03 0.  0.
         24    2    3    3    0    0 -0.11003482711E+02 -0.30290790804E+02 -0.24360629914E+03  0.25919926231E+03  0.82471934406E+02 0.  0.
         -6    2    1    2    0  502 -0.49709210838E+02  0.72511246104E+02 -0.13212698911E+02  0.19470004065E+03  0.17321848620E+03 0.  0.
        -24    2    5    5    0    0 -0.43330309492E+02 -0.18888214823E+02  0.23442085997E+02  0.95906239745E+02  0.80088669900E+02 0.  0.
          5    1    3    3  501    0  0.60712693549E+02 -0.42220455300E+02 -0.40543392526E+02  0.84465701212E+02  0.47000000000E+01 0. -1.
        -13    1    4    4    0    0  0.20718651374E+02 -0.28554635382E+02 -0.40877665242E+02  0.53996418698E+02  0.00000000000E+00 0.  1.
         14    1    4    4    0    0 -0.31722134084E+02 -0.17361554215E+01 -0.20272863389E+03  0.20520284361E+03  0.00000000000E+00 0. -1.
         -5    1    5    5    0  502 -0.63789013461E+01  0.91399460927E+02 -0.36654784908E+02  0.98793800902E+02  0.47000000000E+01 0.  1.
         11    1    6    6    0    0 -0.53929155966E+02  0.10067586539E+02 -0.34819298629E+01  0.54971210624E+02  0.00000000000E+00 0. -1.
        -12    1    6    6    0    0  0.10598846474E+02 -0.28955801362E+02  0.26924015860E+02  0.40935029121E+02  0.00000000000E+00 0.  1.
</event>
<event>
12    1  0.8313893E-002  0.1989403E+03  0.7818608E-02  0.1150899E+00
         21   -1    0    0  503  502  0.00000000000E+00  0.00000000000E+00  0.16294542027E+04  0.16294542027E+04  0.00000000000E+00 0. -1.
         21   -1    0    0  501  503 -0.00000000000E+00 -0.00000000000E+00 -0.95703957113E+02  0.95703957113E+02  0.00000000000E+00 0. -1.
          6    2    1    2  501    0 -0.98144716148E+02  0.12855597657E+02  0.21567920846E+02  0.20010597623E+03  0.17256759491E+03 0.  0.
         24    2    3    3    0    0 -0.79232425102E+01 -0.12108261944E+02 -0.37710530538E+02  0.89204518213E+02  0.79535992966E+02 0.  0.
         -6    2    1    2    0  502  0.98144716148E+02 -0.12855597657E+02  0.15121823247E+04  0.15250521836E+04  0.17114650944E+03 0.  0.
        -24    2    5    5    0    0  0.26955263427E+02 -0.50849680498E+02  0.11391415194E+04  0.11433546319E+04  0.79398594664E+02 0.  0.
          5    1    3    3  501    0 -0.90221473638E+02  0.24963859601E+02  0.59278451384E+02  0.11090145802E+03  0.47000000000E+01 0. -1.
        -13    1    4    4    0    0 -0.25763251627E+02  0.11337089240E+02  0.12650198342E+02  0.30859394760E+02  0.00000000000E+00 0.  1.
         14    1    4    4    0    0  0.17840009116E+02 -0.23445351184E+02 -0.50360728881E+02  0.58345123454E+02  0.00000000000E+00 0. -1.
         -5    1    5    5    0  502  0.71189452721E+02  0.37994082841E+02  0.37304080528E+03  0.38169755162E+03  0.47000000000E+01 0.  1.
         11    1    6    6    0    0  0.24285980419E+02 -0.68893870083E+02  0.10390478711E+04  0.10416125252E+04  0.00000000000E+00 0. -1.
        -12    1    6    6    0    0  0.26692830076E+01  0.18044189584E+02  0.10009364834E+03  0.10174210676E+03  0.00000000000E+00 0.  1.
</event>
<event>
12    1  0.8313893E-002  0.1974542E+03  0.7818608E-02  0.1151964E+00
         21   -1    0    0  501  502  0.00000000000E+00  0.00000000000E+00  0.57074891569E+02  0.57074891569E+02  0.00000000000E+00 0.  1.
         21   -1    0    0  502  503 -0.00000000000E+00 -0.00000000000E+00 -0.85280164032E+03  0.85280164032E+03  0.00000000000E+00 0. -1.
         -6    2    1    2    0  503  0.95224187371E+02 -0.13174705669E+02 -0.60159691821E+03  0.63317218328E+03  0.17247302092E+03 0.  0.
        -24    2    3    3    0    0  0.67737013765E+02 -0.26285829969E+02 -0.17659179180E+03  0.20705143305E+03  0.80039909470E+02 0.  0.
          6    2    1    2  501    0 -0.95224187371E+02  0.13174705669E+02 -0.19412983054E+03  0.27670434861E+03  0.17215599527E+03 0.  0.
         24    2    5    5    0    0 -0.13034039745E+03  0.29404349054E+02 -0.17256143838E+03  0.23216408508E+03  0.79180031810E+02 0.  0.
          5    1    5    5  501    0  0.35116210080E+02 -0.16229643385E+02 -0.21568392168E+02  0.44540263532E+02  0.47000000000E+01 0. -1.
        -13    1    6    6    0    0 -0.80816216843E+02  0.56717058965E+02 -0.11175322314E+03  0.14912031573E+03  0.00000000000E+00 0.  1.
         14    1    6    6    0    0 -0.49524180608E+02 -0.27312709911E+02 -0.60808215235E+02  0.83043769349E+02  0.00000000000E+00 0. -1.
         -5    1    3    3    0  503  0.27487173606E+02  0.13111124300E+02 -0.42500512641E+03  0.42612075022E+03  0.47000000000E+01 0.  1.
         13    1    4    4    0    0  0.44929687637E+02  0.15236706004E+02 -0.13806541744E+03  0.14598936103E+03  0.00000000000E+00 0. -1.
        -14    1    4    4    0    0  0.22807326128E+02 -0.41522535974E+02 -0.38526374362E+02  0.61062072027E+02  0.00000000000E+00 0.  1.
</event>
<event>
12    1  0.8313893E-002  0.1813007E+03  0.7818608E-02  0.1166716E+00
         21   -1    0    0  501  502  0.00000000000E+00  0.00000000000E+00  0.32988472954E+02  0.32988472954E+02  0.00000000000E+00 0.  1.
         21   -1    0    0  502  503 -0.00000000000E+00 -0.00000000000E+00 -0.11127037417E+04  0.11127037417E+04  0.00000000000E+00 0.  1.
         -6    2    1    2    0  503 -0.45779328635E+02  0.26779884669E+02 -0.72896778828E+03  0.75117507074E+03  0.17336966687E+03 0.  0.
        -24    2    3    3    0    0 -0.36727251155E+02 -0.34451002191E+02 -0.23339146978E+03  0.25172623545E+03  0.79741814107E+02 0.  0.
          6    2    1    2  501    0  0.45779328635E+02 -0.26779884669E+02 -0.35074748048E+03  0.39451714393E+03  0.17264724915E+03 0.  0.
         24    2    5    5    0    0  0.52483022719E+02 -0.64584012666E+02 -0.33197882311E+03  0.35152360829E+03  0.80208140613E+02 0.  0.
          5    1    5    5  501    0 -0.67036940843E+01  0.37804127996E+02 -0.18768657363E+02  0.42993535644E+02  0.47000000000E+01 0. -1.
        -11    1    6    6    0    0  0.22282454772E+02 -0.30140636313E+02 -0.35831089099E+02  0.51853955433E+02  0.00000000000E+00 0.  1.
         12    1    6    6    0    0  0.30200567947E+02 -0.34443376352E+02 -0.29614773401E+03  0.29966965285E+03  0.00000000000E+00 0. -1.
         -5    1    3    3    0  503 -0.90520774798E+01  0.61230886860E+02 -0.49557631850E+03  0.49944883529E+03  0.47000000000E+01 0.  1.
         13    1    4    4    0    0 -0.61762496942E+02 -0.24051974784E+02 -0.18065439826E+03  0.19242950691E+03  0.00000000000E+00 0. -1.
        -14    1    4    4    0    0  0.25035245786E+02 -0.10399027406E+02 -0.52737071521E+02  0.59296728537E+02  0.00000000000E+00 0.  1.
</event>
<event>
12    1  0.8313893E-002  0.2192997E+03  0.7818608E-02  0.1134609E+00
         21   -1    0    0  501  502  0.00000000000E+00  0.00000000000E+00  0.31531358586E+02  0.31531358586E+02  0.00000000000E+00 0. -1.
         21   -1    0    0  502  503 -0.00000000000E+00 -0.00000000000E+00 -0.16617661875E+04  0.16617661875E+04  0.00000000000E+00 0. -1.
         -6    2    1    2    0  503 -0.11305292414E+03  0.73252872708E+02 -0.56399687029E+03  0.60474081318E+03  0.17167421012E+03 0.  0.
        -24    2    3    3    0    0 -0.15910816895E+02  0.87340433576E+02 -0.30907619094E+03  0.33153449713E+03  0.80656838214E+02 0.  0.
          6    2    1    2  501    0  0.11305292414E+03 -0.73252872708E+02 -0.10662379586E+04  0.10885567329E+04  0.17304747705E+03 0.  0.
         24    2    5    5    0    0  0.80018259577E+02  0.14638183321E+02 -0.41531769399E+03  0.43088249157E+03  0.80955150093E+02 0.  0.
          5    1    5    5  501    0  0.33034664568E+02 -0.87891056028E+02 -0.65092026462E+03  0.65767424131E+03  0.47000000000E+01 0. -1.
        -13    1    6    6    0    0  0.34508940066E+01 -0.27207740016E+02 -0.92495886336E+02  0.96476208338E+02  0.00000000000E+00 0.  1.
         14    1    6    6    0    0  0.76567365570E+02  0.41845923336E+02 -0.32282180765E+03  0.33440628323E+03  0.00000000000E+00 0. -1.
         -5    1    3    3    0  503 -0.97142107249E+02 -0.14087560868E+02 -0.25492067935E+03  0.27320631605E+03  0.47000000000E+01 0.  1.
         13    1    4    4    0    0 -0.16099697168E+02  0.24671089875E+02 -0.19675057390E+02  0.35425567149E+02  0.00000000000E+00 0. -1.
        -14    1    4    4    0    0  0.18888027268E+00  0.62669343701E+02 -0.28940113355E+03  0.29610892998E+03  0.00000000000E+00 0.  1.
</event>
<event>
12    1  0.8313893E-002  0.1992195E+03  0.7818608E-02  0.1150534E+00
         21   -1    0    0  501  502  0.00000000000E+00  0.00000000000E+00  0.86905855178E+03  0.86905855178E+03  0.00000000000E+00 0.  1.
         21   -1    0    0  502  503 -0.00000000000E+00 -0.00000000000E+00 -0.48204968524E+02  0.48204968524E+02  0.00000000000E+00 0. -1.
         -6    2    1    2    0  503  0.47757038379E+02  0.85553042761E+02  0.30163862064E+03  0.36114070843E+03  0.17273301939E+03 0.  0.
        -24    2    3    3    0    0  0.31631778740E+02  0.17059880670E+02  0.27076045010E+03  0.28415441961E+03  0.78363919554E+02 0.  0.
          6    2    1    2  501    0 -0.47757038379E+02 -0.85553042761E+02  0.51921496262E+03  0.55612281187E+03  0.17345992804E+03 0.  0.
         24    2    5    5    0    0  0.38833485153E+02 -0.62678967760E+02  0.28018393127E+03  0.30082090036E+03  0.80953605129E+02 0.  0.
          5    1    5    5  501    0 -0.86590523533E+02 -0.22874075000E+02  0.23903103135E+03  0.25530191151E+03  0.47000000000E+01 0. -1.
        -11    1    6    6    0    0 -0.14773372982E+02 -0.37093691983E+02  0.17979586092E+03  0.18417585656E+03  0.00000000000E+00 0.  1.
         12    1    6    6    0    0  0.53606858135E+02 -0.25585275777E+02  0.10038807035E+03  0.11664504381E+03  0.00000000000E+00 0. -1.
         -5    1    3    3    0  503  0.16125259639E+02  0.68493162090E+02  0.30878170534E+02  0.76986288825E+02  0.47000000000E+01 0.  1.
         13    1    4    4    0    0 -0.54752000897E+01  0.13032731095E+02  0.38557436378E+01  0.14652530663E+02  0.00000000000E+00 0. -1.
        -14    1    4    4    0    0  0.37106978830E+02  0.40271495748E+01  0.26690470646E+03  0.26950188894E+03  0.00000000000E+00 0.  1.
</event>
<event>
12    1  0.8313893E-002  0.2020395E+03  0.7818608E-02  0.1148097E+00
         21   -1    0    0  503  502  0.00000000000E+00  0.00000000000E+00  0.33927529016E+03  0.33927529016E+03  0.00000000000E+00 0. -1.
         21   -1    0    0  501  503 -0.00000000000E+00 -0.00000000000E+00 -0.31268354377E+03  0.31268354377E+03  0.00000000000E+00 0. -1.
          6    2    1    2  501    0 -0.64510269504E+02 -0.84253379488E+02 -0.24251204297E+03  0.31564546242E+03  0.17192952084E+03 0.  0.
         24    2    3    3    0    0 -0.23694671284E+01 -0.76992097702E+02 -0.22358770584E+03  0.25011359179E+03  0.81436779841E+02 0.  0.
         -6    2    1    2    0  502  0.64510269504E+02  0.84253379488E+02  0.26910378937E+03  0.33631337150E+03  0.17155065600E+03 0.  0.
        -24    2    5    5    0    0  0.62902371907E+02  0.68907709520E+01  0.22072064610E+03  0.24493187947E+03  0.85263303067E+02 0.  0.
          5    1    3    3  501    0 -0.62140802376E+02 -0.72612817859E+01 -0.18924337131E+02  0.65531870635E+02  0.47000000000E+01 0. -1.
        -11    1    4    4    0    0  0.16527687535E+02 -0.93360777027E+01 -0.13841502757E+03  0.13971058177E+03  0.00000000000E+00 0.  1.
         12    1    4    4    0    0 -0.18897154664E+02 -0.67656019999E+02 -0.85172678270E+02  0.11040301001E+03  0.00000000000E+00 0. -1.
         -5    1    5    5    0  502  0.16078975979E+01  0.77362608536E+02  0.48383143270E+02  0.91381492037E+02  0.47000000000E+01 0.  1.
         13    1    6    6    0    0  0.27203704873E+02  0.44995080754E+02  0.13045372953E+03  0.14065125097E+03  0.00000000000E+00 0. -1.
        -14    1    6    6    0    0  0.35698667033E+02 -0.38104309802E+02  0.90266916566E+02  0.10428062850E+03  0.00000000000E+00 0.  1.
</event>
<event>
12    1  0.8313893E-002  0.1875811E+03  0.7818608E-02  0.1160824E+00
         21   -1    0    0  501  502  0.00000000000E+00  0.00000000000E+00  0.17580281757E+03  0.17580281757E+03  0.00000000000E+00 0. -1.
         21   -1    0    0  502  503 -0.00000000000E+00 -0.00000000000E+00 -0.20918753627E+03  0.20918753627E+03  0.00000000000E+00 0. -1.
         -6    2    1    2    0  503 -0.60740422173E+02 -0.36705720826E+02 -0.58315011343E+02  0.19575982957E+03  0.17287151732E+03 0.  0.
        -24    2    3    3    0    0  0.13172376906E+02  0.78423107214E+01  0.13758969311E+02  0.83223712392E+02  0.80634134937E+02 0.  0.
          6    2    1    2  501    0  0.60740422173E+02  0.36705720826E+02  0.24930292642E+02  0.18923052426E+03  0.17363744698E+03 0.  0.
         24    2    5    5    0    0  0.10489028948E+03  0.40378267530E+02 -0.13309290455E+01  0.13751553468E+03  0.79223567144E+02 0.  0.
          5    1    5    5  501    0 -0.44149867307E+02 -0.36725467035E+01  0.26261221688E+02  0.51714989578E+02  0.47000000000E+01 0. -1.
        -11    1    6    6    0    0  0.85566003045E+01  0.40263831692E+02  0.44555406950E+00  0.41165398938E+02  0.00000000000E+00 0.  1.
         12    1    6    6    0    0  0.96333689176E+02  0.11443583769E+00 -0.17764831150E+01  0.96350135745E+02  0.00000000000E+00 0. -1.
         -5    1    3    3    0  503 -0.73912799079E+02 -0.44548031547E+02 -0.72073980654E+02  0.11253611718E+03  0.47000000000E+01 0.  1.
         13    1    4    4    0    0 -0.15476648412E+02 -0.30060274567E+02  0.18519211461E+00  0.33810960489E+02  0.00000000000E+00 0. -1.
        -14    1    4    4    0    0  0.28649025318E+02  0.37902585288E+02  0.13573777196E+02  0.49412751903E+02  0.00000000000E+00 0.  1.
</event>
<event>
12    1  0.8313893E-002  0.2073322E+03  0.7818608E-02  0.1144048E+00
         21   -1    0    0  503  502  0.00000000000E+00  0.00000000000E+00  0.94774604636E+03  0.94774604636E+03  0.00000000000E+00 0.  1.
         21   -1    0    0  501  503 -0.00000000000E+00 -0.00000000000E+00 -0.84967968709E+02  0.84967968709E+02  0.00000000000E+00 0.  1.
          6    2    1    2  501    0 -0.71835278308E+02  0.90585251447E+02  0.78107402009E+02  0.22155676909E+03  0.17210648068E+03 0.  0.
         24    2    3    3    0    0  0.17939672516E+02  0.82396321131E+02  0.59363770318E+02  0.12936124803E+03  0.78097949262E+02 0.  0.
         -6    2    1    2    0  502  0.71835278308E+02 -0.90585251447E+02  0.78467067564E+03  0.81115724597E+03  0.17000592196E+03 0.  0.
        -24    2    5    5    0    0 -0.48697031242E+01  0.20590831979E+01  0.22441854637E+03  0.23812045373E+03  0.79433700007E+02 0.  0.
          5    1    3    3  501    0 -0.89774950824E+02  0.81889303169E+01  0.18743631690E+02  0.92195521064E+02  0.47000000000E+01 0. -1.
        -13    1    4    4    0    0  0.20693345214E+02  0.97453676116E+02  0.51171850365E+02  0.11199996337E+03  0.00000000000E+00 0.  1.
         14    1    4    4    0    0 -0.27536726983E+01 -0.15057354986E+02  0.81919199539E+01  0.17361284659E+02  0.00000000000E+00 0. -1.
         -5    1    5    5    0  502  0.76704981432E+02 -0.92644334645E+02  0.56025212927E+03  0.57303679225E+03  0.47000000000E+01 0.  1.
         13    1    6    6    0    0 -0.21232311369E+01 -0.65215449416E+01  0.22823353971E+03  0.22833656586E+03  0.00000000000E+00 0. -1.
        -14    1    6    6    0    0 -0.27464719873E+01  0.85806281395E+01 -0.38149933417E+01  0.97838878695E+01  0.00000000000E+00 0.  1.
</event>
<event>
12    1  0.8313893E-002  0.2264297E+03  0.7818608E-02  0.1129707E+00
         21   -1    0    0  503  502  0.00000000000E+00  0.00000000000E+00  0.51924279373E+03  0.51924279373E+03  0.00000000000E+00 0. -1.
         21   -1    0    0  501  503 -0.00000000000E+00 -0.00000000000E+00 -0.11801785626E+03  0.11801785626E+03  0.00000000000E+00 0.  1.
          6    2    1    2  501    0 -0.11169257389E+02 -0.14602513434E+03  0.66581211086E+02  0.23321010442E+03  0.16883661618E+03 0.  0.
         24    2    3    3    0    0 -0.60189160835E+02 -0.13369537375E+03  0.10844019416E+02  0.15781979691E+03  0.57378632758E+02 0.  0.
         -6    2    1    2    0  502  0.11169257389E+02  0.14602513434E+03  0.33464372638E+03  0.40405054557E+03  0.17269142305E+03 0.  0.
        -24    2    5    5    0    0  0.66193860457E+02  0.80557980127E+02  0.25588813661E+03  0.28769682562E+03  0.80121842794E+02 0.  0.
          5    1    3    3  501    0  0.49019903446E+02 -0.12329760590E+02  0.55737191669E+02  0.75390307502E+02  0.47000000000E+01 0. -1.
        -11    1    4    4    0    0 -0.15944175814E+02 -0.11543276231E+02 -0.15747512253E+02  0.25208096134E+02  0.00000000000E+00 0.  1.
         12    1    4    4    0    0 -0.44244985021E+02 -0.12215209752E+03  0.26591531669E+02  0.13261170078E+03  0.00000000000E+00 0. -1.
         -5    1    5    5    0  502 -0.55024603069E+02  0.65467154212E+02  0.78755589775E+02  0.11635371994E+03  0.47000000000E+01 0.  1.
         11    1    6    6    0    0  0.70992970627E+01  0.18105915673E+02  0.15019562370E+03  0.15144949515E+03  0.00000000000E+00 0. -1.
        -12    1    6    6    0    0  0.59094563395E+02  0.62452064453E+02  0.10569251290E+03  0.13624733047E+03  0.00000000000E+00 0.  1.
</event>
<event>
12    1  0.8313893E-002  0.2267576E+03  0.7818608E-02  0.1128962E+00
         21   -1    0    0  503  502  0.00000000000E+00  0.00000000000E+00  0.19604188835E+03  0.19604188835E+03  0.00000000000E+00 0.  1.
         21   -1    0    0  501  503 -0.00000000000E+00 -0.00000000000E+00 -0.26717882468E+03  0.26717882468E+03  0.00000000000E+00 0.  1.
          6    2    1    2  501    0  0.14647643642E+03  0.24300119182E+01 -0.67307670897E+02  0.23653609003E+03  0.17308306660E+03 0.  0.
         24    2    3    3    0    0  0.29576377695E+02  0.71901311640E+01  0.23955575430E+02  0.88079521990E+02  0.79105451747E+02 0.  0.
         -6    2    1    2    0  502 -0.14647643642E+03 -0.24300119182E+01 -0.38292654336E+01  0.22668462300E+03  0.17294508853E+03 0.  0.
        -24    2    5    5    0    0 -0.22746028186E+02  0.19873502784E+02  0.26109105578E+02  0.97359232033E+02  0.88796378061E+02 0.  0.
          5    1    3    3  501    0  0.11690005873E+03 -0.47601192458E+01 -0.91263246327E+02  0.14845656804E+03  0.47000000000E+01 0. -1.
        -13    1    4    4    0    0  0.31173018106E+02 -0.30894395728E+02  0.16604787631E+01  0.43920131318E+02  0.00000000000E+00 0.  1.
         14    1    4    4    0    0 -0.15966404117E+01  0.38084526892E+02  0.22295096667E+02  0.44159390672E+02  0.00000000000E+00 0. -1.
         -5    1    5    5    0  502 -0.12373040823E+03 -0.22303514702E+02 -0.29938371012E+02  0.12932539097E+03  0.47000000000E+01 0.  1.
         11    1    6    6    0    0 -0.17460124086E+02 -0.17825693421E+02  0.47527605976E+02  0.53679461704E+02  0.00000000000E+00 0. -1.
        -12    1    6    6    0    0 -0.52859041006E+01  0.37699196205E+02 -0.21418500398E+02  0.43679770329E+02  0.00000000000E+00 0.  1.
</event>
<event>
12    1  0.8313893E-002  0.1758314E+03  0.7818608E-02  0.1172068E+00
         21   -1    0    0  503  502  0.00000000000E+00  0.00000000000E+00  0.29385725059E+03  0.29385725059E+03  0.00000000000E+00 0. -1.
         21   -1    0    0  501  503 -0.00000000000E+00 -0.00000000000E+00 -0.10813235818E+03  0.10813235818E+03  0.00000000000E+00 0. -1.
          6    2    1    2  501    0 -0.37514254272E+01  0.36670721925E+02  0.12793528191E+03  0.21690496930E+03  0.17123526013E+03 0.  0.
         24    2    3    3    0    0  0.45457511069E+01  0.69014057809E+02  0.14508560208E+03  0.17907432040E+03  0.78956800012E+02 0.  0.
         -6    2    1    2    0  502  0.37514254272E+01 -0.36670721925E+02  0.57789610503E+02  0.18508463946E+03  0.17192402288E+03 0.  0.
        -24    2    5    5    0    0  0.35449879919E+02  0.33643854870E+02  0.31129252537E+02  0.10334238347E+03  0.85568772933E+02 0.  0.
          5    1    3    3  501    0 -0.82971765342E+01 -0.32343335883E+02 -0.17150320170E+02  0.37830648903E+02  0.47000000000E+01 0. -1.
        -13    1    4    4    0    0 -0.86186502512E+01  0.28812122402E+02  0.13112238504E+03  0.13452694670E+03  0.00000000000E+00 0.  1.
         14    1    4    4    0    0  0.13164401358E+02  0.40201935406E+02  0.13963217036E+02  0.44547373700E+02  0.00000000000E+00 0. -1.
         -5    1    5    5    0  502 -0.31698454492E+02 -0.70314576796E+02  0.26660357965E+02  0.81742255988E+02  0.47000000000E+01 0.  1.
         13    1    6    6    0    0  0.18659741241E+02  0.15842014739E+01  0.56251763915E+02  0.59287069256E+02  0.00000000000E+00 0. -1.
        -14    1    6    6    0    0  0.16790138678E+02  0.32059653396E+02 -0.25122511377E+02  0.44055314216E+02  0.00000000000E+00 0.  1.
</event>
<event>
12    1  0.8313893E-002  0.1831492E+03  0.7818608E-02  0.1165089E+00
         21   -1    0    0  503  502  0.00000000000E+00  0.00000000000E+00  0.92124032409E+03  0.92124032409E+03  0.00000000000E+00 0. -1.
         21   -1    0    0  501  503 -0.00000000000E+00 -0.00000000000E+00 -0.44406370665E+02  0.44406370665E+02  0.00000000000E+00 0. -1.
          6    2    1    2  501    0  0.54412599939E+02 -0.26799186331E+02  0.22913496440E+03  0.29255114250E+03  0.17147714614E+03 0.  0.
         24    2    3    3    0    0 -0.10362296181E+02 -0.30055574646E+02  0.20665606982E+03  0.22374865757E+03  0.79661884354E+02 0.  0.
         -6    2    1    2    0  502 -0.54412599939E+02  0.26799186331E+02  0.64769898903E+03  0.67309555226E+03  0.17281410433E+03 0.  0.
        -24    2    5    5    0    0  0.31445475555E+02  0.40875931029E+02  0.28703597016E+03  0.30205691943E+03  0.78670672675E+02 0.  0.
          5    1    3    3  501    0  0.64774896120E+02  0.32563883148E+01  0.22478894576E+02  0.68802484937E+02  0.47000000000E+01 0. -1.
        -11    1    4    4    0    0 -0.44167215116E+02 -0.17239952927E+02  0.91551912466E+02  0.10310049245E+03  0.00000000000E+00 0.  1.
         12    1    4    4    0    0  0.33804918935E+02 -0.12815621719E+02  0.11510415736E+03  0.12064816511E+03  0.00000000000E+00 0. -1.
         -5    1    5    5    0  502 -0.85858075493E+02 -0.14076744698E+02  0.36066301887E+03  0.37103863283E+03  0.47000000000E+01 0.  1.
         11    1    6    6    0    0 -0.23451840614E+02  0.53430284773E+00  0.46826460864E+02  0.52373578689E+02  0.00000000000E+00 0. -1.
        -12    1    6    6    0    0  0.54897316168E+02  0.40341628182E+02  0.24020950929E+03  0.24968334074E+03  0.00000000000E+00 0.  1.
</event>
<event>
12    1  0.8313893E-002  0.2125129E+03  0.7818608E-02  0.1139854E+00
         21   -1    0    0  503  502  0.00000000000E+00  0.00000000000E+00  0.62785132821E+02  0.62785132821E+02  0.00000000000E+00 0. -1.
         21   -1    0    0  501  503 -0.00000000000E+00 -0.00000000000E+00 -0.71644105231E+03  0.71644105231E+03  0.00000000000E+00 0. -1.
          6    2    1    2  501    0  0.12323576438E+03  0.29202314999E+01 -0.30903012604E+03  0.37504845113E+03  0.17310730926E+03 0.  0.
         24    2    3    3    0    0  0.52051598292E+02 -0.18808462595E+02 -0.60347498839E+02  0.11542476053E+03  0.81350645829E+02 0.  0.
         -6    2    1    2    0  502 -0.12323576438E+03 -0.29202314999E+01 -0.34462579345E+03  0.40417773400E+03  0.17145588873E+03 0.  0.
        -24    2    5    5    0    0 -0.19001571261E+02 -0.49634280256E+02 -0.16762017427E+03  0.19346454366E+03  0.80668366425E+02 0.  0.
          5    1    3    3  501    0  0.71184166091E+02  0.21728694094E+02 -0.24868262720E+03  0.25962369060E+03  0.47000000000E+01 0. -1.
        -13    1    4    4    0    0  0.24568850470E+02 -0.47654378145E+01 -0.76571401895E+02  0.80557540920E+02  0.00000000000E+00 0.  1.
         14    1    4    4    0    0  0.27482747821E+02 -0.14043024780E+02  0.16223903055E+02  0.34867219607E+02  0.00000000000E+00 0. -1.
         -5    1    5    5    0  502 -0.10423419312E+03  0.46714048756E+02 -0.17700561918E+03  0.21071319035E+03  0.47000000000E+01 0.  1.
         13    1    6    6    0    0 -0.12716063138E+02 -0.21536169460E+02 -0.16226140627E+03  0.16417755274E+03  0.00000000000E+00 0. -1.
        -14    1    6    6    0    0 -0.62855081233E+01 -0.28098110795E+02 -0.53587680000E+01  0.29286990920E+02  0.00000000000E+00 0.  1.
</event>
<event>
12    1  0.8313893E-002  0.1974530E+03  0.7818608E-02  0.1151947E+00
         21   -1    0    0  503  502  0.00000000000E+00  0.00000000000E+00  0.49691044772E+03  0.49691044772E+03  0.00000000000E+00 0. -1.
         21   -1    0    0  501  503 -0.00000000000E+00 -0.00000000000E+00 -0.88590604539E+02  0.88590604539E+02  0.00000000000E+00 0. -1.
          6    2    1    2  501    0  0.69660620035E+02  0.66851616234E+02  0.10488309515E+03  0.22358031425E+03  0.17223806982E+03 0.  0.
         24    2    3    3    0    0  0.10577393206E+03  0.46243300944E+02  0.38897196732E+02  0.14544515728E+03  0.79465302352E+02 0.  0.
         -6    2    1    2    0  502 -0.69660620035E+02 -0.66851616234E+02  0.30343674803E+03  0.36192073801E+03  0.17202040567E+03 0.  0.
        -24    2    5    5    0    0 -0.11994386424E+01 -0.17750837009E+02  0.24791074910E+03  0.26091060765E+03  0.79360410761E+02 0.  0.
          5    1    3    3  501    0 -0.36113312024E+02  0.20608315289E+02  0.65985898414E+02  0.78135156965E+02  0.47000000000E+01 0. -1.
        -13    1    4    4    0    0  0.21290418864E+02 -0.17952338415E+02  0.26802891660E+02  0.38651822613E+02  0.00000000000E+00 0.  1.
         14    1    4    4    0    0  0.84483513196E+02  0.64195639359E+02  0.12094305071E+02  0.10679333467E+03  0.00000000000E+00 0. -1.
         -5    1    5    5    0  502 -0.68461181393E+02 -0.49100779225E+02  0.55525998932E+02  0.10101013036E+03  0.47000000000E+01 0.  1.
         13    1    6    6    0    0 -0.31127412846E+02 -0.53284613670E+01  0.42440247428E+02  0.52900689341E+02  0.00000000000E+00 0. -1.
        -14    1    6    6    0    0  0.29927974203E+02 -0.12422375642E+02  0.20547050167E+03  0.20800991831E+03  0.00000000000E+00 0.  1.
</event>
<event>
12    1  0.8313893E-002  0.1856035E+03  0.7818608E-02  0.1163716E+00
         21   -1    0    0  503  502  0.00000000000E+00  0.00000000000E+00  0.43670782100E+02  0.43670782100E+02  0.00000000000E+00 0.  1.
         21   -1    0    0  501  503 -0.00000000000E+00 -0.00000000000E+00 -0.88736379660E+03  0.88736379660E+03  0.00000000000E+00 0.  1.
          6    2    1    2  501    0  0.56937165488E+02 -0.32725434787E+02 -0.24513373523E+03  0.30435933373E+03  0.16802160869E+03 0.  0.
         24    2    3    3    0    0  0.21872949349E+02 -0.26110575244E+02 -0.39751575618E+02  0.95847518464E+02  0.80289295543E+02 0.  0.
         -6    2    1    2    0  502 -0.56937165488E+02  0.32725434787E+02 -0.59855927927E+03  0.62667524497E+03  0.17359682301E+03 0.  0.
        -24    2    5    5    0    0  0.88112852125E+01  0.54521408720E+02 -0.20125572339E+03  0.22335139399E+03  0.79572333417E+02 0.  0.
          5    1    3    3  501    0  0.35064216139E+02 -0.66148595433E+01 -0.20538215961E+03  0.20851181527E+03  0.47000000000E+01 0. -1.
        -11    1    4    4    0    0  0.48143009290E+02  0.27089662330E+01 -0.22139306099E+02  0.53058804322E+02  0.00000000000E+00 0.  1.
         12    1    4    4    0    0 -0.26270059942E+02 -0.28819541477E+02 -0.17612269519E+02  0.42788714141E+02  0.00000000000E+00 0. -1.
         -5    1    5    5    0  502 -0.65748450700E+02 -0.21795973933E+02 -0.39730355588E+03  0.40332385097E+03  0.47000000000E+01 0.  1.
         11    1    6    6    0    0  0.43996367237E+02  0.26055367008E+02 -0.95737984486E+02  0.10853720170E+03  0.00000000000E+00 0. -1.
        -12    1    6    6    0    0 -0.35185082025E+02  0.28466041712E+02 -0.10551773890E+03  0.11481419229E+03  0.00000000000E+00 0.  1.
</event>
<event>
12    1  0.8313893E-002  0.1770453E+03  0.7818608E-02  0.1170977E+00
         21   -1    0    0  501  502  0.00000000000E+00  0.00000000000E+00  0.22520349502E+03  0.22520349502E+03  0.00000000000E+00 0. -1.
         21   -1    0    0  502  503 -0.00000000000E+00 -0.00000000000E+00 -0.26200938505E+03  0.26200938505E+03  0.00000000000E+00 0. -1.
         -6    2    1    2    0  503 -0.28412463092E+02 -0.23182657255E+02 -0.18583274254E+03  0.25666877493E+03  0.17320608583E+03 0.  0.
        -24    2    3    3    0    0  0.14042185550E+02  0.48839888186E+02 -0.10003160657E+03  0.13677895394E+03  0.78228142474E+02 0.  0.
          6    2    1    2  501    0  0.28412463092E+02  0.23182657255E+02  0.14902685252E+03  0.23054410514E+03  0.17203743193E+03 0.  0.
         24    2    5    5    0    0  0.80026110013E+02  0.87191112034E+01  0.62876399867E+02  0.12897071687E+03  0.78738827556E+02 0.  0.
          5    1    5    5  501    0 -0.51613646921E+02  0.14463546051E+02  0.86150452651E+02  0.10157338827E+03  0.47000000000E+01 0. -1.
        -11    1    6    6    0    0  0.28261778534E+02  0.28740473913E+02  0.61401336247E+02  0.73449758744E+02  0.00000000000E+00 0.  1.
         12    1    6    6    0    0  0.51764331479E+02 -0.20021362709E+02  0.14750636200E+01  0.55520958123E+02  0.00000000000E+00 0. -1.
         -5    1    3    3    0  503 -0.42454648642E+02 -0.72022545441E+02 -0.85801135973E+02  0.11988982099E+03  0.47000000000E+01 0.  1.
         11    1    4    4    0    0  0.30882655109E+02 -0.96238293542E+01 -0.37725116597E+02  0.49694475551E+02  0.00000000000E+00 0. -1.
        -12    1    4    4    0    0 -0.16840469559E+02  0.58463717540E+02 -0.62306489973E+02  0.87084478389E+02  0.00000000000E+00 0.  1.
</event>
<event>
12    1  0.8313893E-002  0.3105199E+03  0.7818608E-02  0.1080162E+00
         21   -1    0    0  501  502  0.00000000000E+00  0.00000000000E+00  0.13632732702E+03  0.13632732702E+03  0.00000000000E+00 0.  1.
         21   -1    0    0  502  503 -0.00000000000E+00 -0.00000000000E+00 -0.96528641380E+03  0.96528641380E+03  0.00000000000E+00 0. -1.
         -6    2    1    2    0  503  0.16498134686E+03  0.19925523858E+03 -0.70018552533E+03  0.76595195122E+03  0.17175892050E+03 0.  0.
        -24    2    3    3    0    0  0.16426197004E+03  0.21497656305E+03 -0.69280742331E+03  0.74794628724E+03  0.79022815290E+02 0.  0.
          6    2    1    2  501    0 -0.16498134686E+03 -0.19925523858E+03 -0.12877356145E+03  0.33566178961E+03  0.17077678987E+03 0.  0.
         24    2    5    5    0    0 -0.15061831843E+03 -0.12075748007E+03 -0.14479843948E+03  0.25413215455E+03  0.79676326839E+02 0.  0.
          5    1    5    5  501    0 -0.14363028435E+02 -0.78497758510E+02  0.16024878035E+02  0.81529635059E+02  0.47000000000E+01 0. -1.
        -13    1    6    6    0    0 -0.86781587584E+02 -0.19189742011E+02 -0.60772579726E+02  0.10766892118E+03  0.00000000000E+00 0.  1.
         14    1    6    6    0    0 -0.63836730845E+02 -0.10156773806E+03 -0.84025859759E+02  0.14646323337E+03  0.00000000000E+00 0. -1.
         -5    1    3    3    0  503  0.71937682578E+00 -0.15721324463E+02 -0.73781020182E+01  0.18005663978E+02  0.47000000000E+01 0.  1.
         11    1    4    4    0    0  0.28778911516E+02  0.99226841642E+02 -0.23672672511E+03  0.25829001961E+03  0.00000000000E+00 0. -1.
        -12    1    4    4    0    0  0.13548305852E+03  0.11574972140E+03 -0.45608069821E+03  0.48965626763E+03  0.00000000000E+00 0.  1.
</event>
<event>
12    1  0.8313893E-002  0.1975840E+03  0.7818608E-02  0.1151825E+00
         21   -1    0    0  503  502  0.00000000000E+00  0.00000000000E+00  0.54730400963E+02  0.54730400963E+02  0.00000000000E+00 0. -1.
         21   -1    0    0  501  503 -0.00000000000E+00 -0.00000000000E+00 -0.15083613625E+04  0.15083613625E+04  0.00000000000E+00 0.  1.
          6    2    1    2  501    0  0.63801611215E+02 -0.76620923726E+02 -0.12942919703E+04  0.13092643712E+04  0.17041149545E+03 0.  0.
         24    2    3    3    0    0 -0.13766386933E+01  0.11575925851E+02 -0.38172715657E+03  0.39012155434E+03  0.79644886247E+02 0.  0.
         -6    2    1    2    0  502 -0.63801611215E+02  0.76620923726E+02 -0.15933899120E+03  0.25382739222E+03  0.17058141569E+03 0.  0.
        -24    2    5    5    0    0 -0.32703185625E+02 -0.15640013574E+02 -0.55078587904E+02  0.11109857831E+03  0.89415518126E+02 0.  0.
          5    1    3    3  501    0  0.65178249908E+02 -0.88196849577E+02 -0.91256481375E+03  0.91914281689E+03  0.47000000000E+01 0. -1.
        -13    1    4    4    0    0 -0.45330013031E+01  0.41033411415E+01 -0.38195749622E+03  0.38200643244E+03  0.00000000000E+00 0.  1.
         14    1    4    4    0    0  0.31563626099E+01  0.74725847092E+01  0.23033964438E+00  0.81151219038E+01  0.00000000000E+00 0. -1.
         -5    1    5    5    0  502 -0.31098425590E+02  0.92260937300E+02 -0.10426040330E+03  0.14272881391E+03  0.47000000000E+01 0.  1.
         11    1    6    6    0    0 -0.22874459494E+02 -0.45629854702E+02 -0.60415832161E+02  0.79091069742E+02  0.00000000000E+00 0. -1.
        -12    1    6    6    0    0 -0.98287261312E+01  0.29989841128E+02  0.53372442573E+01  0.32007508564E+02  0.00000000000E+00 0.  1.
</event>
<event>
12    1  0.8313893E-002  0.1893676E+03  0.7818608E-02  0.1159445E+00
         21   -1    0    0  503  502  0.00000000000E+00  0.00000000000E+00  0.51377698534E+02  0.51377698534E+02  0.00000000000E+00 0.  1.
         21   -1    0    0  501  503 -0.00000000000E+00 -0.00000000000E+00 -0.10854628418E+04  0.10854628418E+04  0.00000000000E+00 0.  1.
          6    2    1    2  501    0  0.81235256506E+01 -0.78789439665E+02 -0.86115100658E+03  0.88172622415E+03  0.17200671714E+03 0.  0.
         24    2    3    3    0    0  0.63258042532E+02 -0.79214263850E+02 -0.50230545711E+03  0.51863916323E+03  0.79995811488E+02 0.  0.
         -6    2    1    2    0  502 -0.81235256506E+01  0.78789439665E+02 -0.17293413667E+03  0.25511431617E+03  0.17000979742E+03 0.  0.
        -24    2    5    5    0    0 -0.59965456182E+02  0.46857634091E+02 -0.15628781181E+03  0.19181805957E+03  0.81097435531E+02 0.  0.
          5    1    3    3  501    0 -0.55134516881E+02  0.42482418468E+00 -0.35884554948E+03  0.36308706092E+03  0.47000000000E+01 0. -1.
        -13    1    4    4    0    0  0.32957578539E+02  0.99931754253E+01 -0.11548034154E+03  0.12050632689E+03  0.00000000000E+00 0.  1.
         14    1    4    4    0    0  0.30300463993E+02 -0.89207439275E+02 -0.38682511557E+03  0.39813283634E+03  0.00000000000E+00 0. -1.
         -5    1    5    5    0  502  0.51841930531E+02  0.31931805574E+02 -0.16646324863E+02  0.63296256602E+02  0.47000000000E+01 0.  1.
         11    1    6    6    0    0 -0.41764504798E+02 -0.56207476594E+00 -0.12585759567E+03  0.13260740619E+03  0.00000000000E+00 0. -1.
        -12    1    6    6    0    0 -0.18200951384E+02  0.47419708857E+02 -0.30430216140E+02  0.59210653380E+02  0.00000000000E+00 0.  1.
</event>
<event>
12    1  0.8313893E-002  0.2927461E+03  0.7818608E-02  0.1088933E+00
         21   -1    0    0  501  502  0.00000000000E+00  0.00000000000E+00  0.11410648588E+03  0.11410648588E+03  0.00000000000E+00 0. -1.
         21   -1    0    0  502  503 -0.00000000000E+00 -0.00000000000E+00 -0.79368852306E+03  0.79368852306E+03  0.00000000000E+00 0.  1.
         -6    2    1    2    0  503  0.21820605806E+03  0.91263000472E+02 -0.23441133030E+03  0.37503192004E+03  0.17250347893E+03 0.  0.
        -24    2    3    3    0    0  0.10351924188E+03 -0.20902673650E+02 -0.10249266026E+03  0.16728488693E+03  0.79538247308E+02 0.  0.
          6    2    1    2  501    0 -0.21820605806E+03 -0.91263000472E+02 -0.44517070688E+03  0.53276308891E+03  0.17238541589E+03 0.  0.
         24    2    5    5    0    0 -0.10062471045E+03 -0.16787583832E+02 -0.32124879348E+03  0.34634771505E+03  0.79679339136E+02 0.  0.
          5    1    5    5  501    0 -0.11758134761E+03 -0.74475416641E+02 -0.12392191340E+03  0.18641537386E+03  0.47000000000E+01 0. -1.
        -11    1    6    6    0    0 -0.42972089564E+02 -0.35005063309E+02 -0.77932746845E+02  0.95631940112E+02  0.00000000000E+00 0.  1.
         12    1    6    6    0    0 -0.57652620888E+02  0.18217479478E+02 -0.24331604663E+03  0.25071577494E+03  0.00000000000E+00 0. -1.
         -5    1    3    3    0  503  0.11468681618E+03  0.11216567412E+03 -0.13191867005E+03  0.20774703311E+03  0.47000000000E+01 0.  1.
         13    1    4    4    0    0  0.97396026483E+02 -0.84008742273E+01 -0.44079782619E+02  0.10723613150E+03  0.00000000000E+00 0. -1.
        -14    1    4    4    0    0  0.61232153956E+01 -0.12501799422E+02 -0.58412877638E+02  0.60048755437E+02  0.00000000000E+00 0.  1.
</event>
<event>
12    1  0.8313893E-002  0.1913911E+03  0.7818608E-02  0.1157249E+00
         21   -1    0    0  501  502  0.00000000000E+00  0.00000000000E+00  0.20810522768E+02  0.20810522768E+02  0.00000000000E+00 0.  1.
         21   -1    0    0  502  503 -0.00000000000E+00 -0.00000000000E+00 -0.24938538832E+04  0.24938538832E+04  0.00000000000E+00 0.  1.
         -6    2    1    2    0  503 -0.47092648808E+02  0.69092016861E+02 -0.19188116716E+04  0.19283169754E+04  0.17197878320E+03 0.  0.
        -24    2    3    3    0    0 -0.23002615072E+02 -0.25352950471E+02 -0.11767008961E+04  0.11798180277E+04  0.78572813616E+02 0.  0.
          6    2    1    2  501    0  0.47092648808E+02 -0.69092016861E+02 -0.55423168884E+03  0.58634743066E+03  0.17216015845E+03 0.  0.
         24    2    5    5    0    0  0.57163554159E+02 -0.10578777486E+03 -0.35266230486E+03  0.38116383397E+03  0.80351987068E+02 0.  0.
          5    1    5    5  501    0 -0.10070905350E+02  0.36695758002E+02 -0.20156938398E+03  0.20518359669E+03  0.47000000000E+01 0. -1.
        -13    1    6    6    0    0  0.47579771737E+01 -0.84699898788E+02 -0.24978577437E+03  0.26379849181E+03  0.00000000000E+00 0.  1.
         14    1    6    6    0    0  0.52405576985E+02 -0.21087876075E+02 -0.10287653049E+03  0.11736534217E+03  0.00000000000E+00 0. -1.
         -5    1    3    3    0  503 -0.24090033737E+02  0.94444967332E+02 -0.74211077551E+03  0.74849894770E+03  0.47000000000E+01 0.  1.
         11    1    4    4    0    0  0.23416825583E+02 -0.24537709350E+02 -0.30468452628E+03  0.30656664440E+03  0.00000000000E+00 0. -1.
        -12    1    4    4    0    0 -0.46419440655E+02 -0.81524112119E+00 -0.87201636985E+03  0.87325138326E+03  0.00000000000E+00 0.  1.
</event>
<event>
12    1  0.8313893E-002  0.1998019E+03  0.7818608E-02  0.1150601E+00
         21   -1    0    0  501  502  0.00000000000E+00  0.00000000000E+00  0.20845630652E+04  0.20845630652E+04  0.00000000000E+00 0. -1.
         21   -1    0    0  502  503 -0.00000000000E+00 -0.00000000000E+00 -0.19357560078E+02  0.19357560078E+02  0.00000000000E+00 0.  1.
         -6    2    1    2    0  503  0.42869016489E+02  0.85884410407E+02  0.12129814968E+04  0.12293270091E+04  0.17523384120E+03 0.  0.
        -24    2    3    3    0    0 -0.14738956187E+02 -0.87208122353E+01  0.67165832053E+03  0.67676778342E+03  0.81218493898E+02 0.  0.
          6    2    1    2  501    0 -0.42869016489E+02 -0.85884410407E+02  0.85222400826E+03  0.87459361615E+03  0.17150611837E+03 0.  0.
         24    2    5    5    0    0 -0.86504024274E+02 -0.48679373968E+02  0.67881186301E+03  0.69188595140E+03  0.89822027995E+02 0.  0.
          5    1    5    5  501    0  0.43635007785E+02 -0.37205036438E+02  0.17341214524E+03  0.18270766475E+03  0.47000000000E+01 0. -1.
        -13    1    6    6    0    0 -0.24017918181E+02 -0.46173704738E+02  0.13831469267E+03  0.14778303560E+03  0.00000000000E+00 0.  1.
         14    1    6    6    0    0 -0.62486106093E+02 -0.25056692301E+01  0.54049717035E+03  0.54410291580E+03  0.00000000000E+00 0. -1.
         -5    1    3    3    0  503  0.57607972676E+02  0.94605222642E+02  0.54132317630E+03  0.55255922566E+03  0.47000000000E+01 0.  1.
         11    1    4    4    0    0 -0.15697123402E+02 -0.22523526377E+02  0.65280641547E+03  0.65338344408E+03  0.00000000000E+00 0. -1.
        -12    1    4    4    0    0  0.95816721549E+00  0.13802714142E+02  0.18851905057E+02  0.23384339340E+02  0.00000000000E+00 0.  1.
</event>
<event>
12    1  0.8313893E-002  0.4280994E+03  0.7818608E-02  0.1034677E+00
         21   -1    0    0  503  502  0.00000000000E+00  0.00000000000E+00  0.23765393997E+03  0.23765393997E+03  0.00000000000E+00 0.  1.
         21   -1    0    0  501  503 -0.00000000000E+00 -0.00000000000E+00 -0.25259857785E+04  0.25259857785E+04  0.00000000000E+00 0. -1.
          6    2    1    2  501    0 -0.38946018282E+03 -0.25944323239E+01 -0.22985889864E+04  0.23381147112E+04  0.17771637351E+03 0.  0.
         24    2    3    3    0    0 -0.23488154792E+03  0.31228768115E+02 -0.10261427055E+04  0.10558588120E+04  0.75659773928E+02 0.  0.
         -6    2    1    2    0  502  0.38946018282E+03  0.25944323239E+01  0.10257147907E+02  0.42552500720E+03  0.17111504197E+03 0.  0.
        -24    2    5    5    0    0  0.12908409017E+03  0.25050210159E+02 -0.39107885069E+02  0.15951942820E+03  0.81405195983E+02 0.  0.
          5    1    3    3  501    0 -0.15457863490E+03 -0.33823200438E+02 -0.12724462809E+04  0.12822558992E+04  0.47000000000E+01 0. -1.
        -11    1    4    4    0    0 -0.86153771202E+02 -0.18821972903E+02 -0.28704183526E+03  0.30028279029E+03  0.00000000000E+00 0.  1.
         12    1    4    4    0    0 -0.14872777672E+03  0.50050741017E+02 -0.73910087022E+03  0.75557602172E+03  0.00000000000E+00 0. -1.
         -5    1    5    5    0  502  0.26037609264E+03 -0.22455777835E+02  0.49365032976E+02  0.26600557900E+03  0.47000000000E+01 0.  1.
         13    1    6    6    0    0  0.19809176801E+01 -0.25703987600E+01  0.17403794215E+02  0.17703757729E+02  0.00000000000E+00 0. -1.
        -14    1    6    6    0    0  0.12710317249E+03  0.27620608919E+02 -0.56511679284E+02  0.14181567047E+03  0.00000000000E+00 0.  1.
</event>
<event>
12    1  0.8313893E-002  0.3708156E+03  0.7818608E-02  0.1054448E+00
         21   -1    0    0  503  502  0.00000000000E+00  0.00000000000E+00  0.67781795142E+03  0.67781795142E+03  0.00000000000E+00 0. -1.
         21   -1    0    0  501  503 -0.00000000000E+00 -0.00000000000E+00 -0.22216085739E+03  0.22216085739E+03  0.00000000000E+00 0. -1.
          6    2    1    2  501    0 -0.11316282353E+03  0.30763809909E+03  0.36194459727E+03  0.51817764163E+03  0.17336998630E+03 0.  0.
         24    2    3    3    0    0 -0.10574995142E+03  0.31389034751E+03  0.37252339945E+03  0.50307657084E+03  0.67839151754E+02 0.  0.
         -6    2    1    2    0  502  0.11316282353E+03 -0.30763809909E+03  0.93712496768E+02  0.38180116718E+03  0.17188098954E+03 0.  0.
        -24    2    5    5    0    0  0.77383739564E+02 -0.29135608774E+03  0.11999171338E+03  0.33428344449E+03  0.80441264122E+02 0.  0.
          5    1    3    3  501    0 -0.74128721196E+01 -0.62522484165E+01 -0.10578802181E+02  0.15101070787E+02  0.47000000000E+01 0. -1.
        -13    1    4    4    0    0 -0.35828924434E+02  0.34226475623E+02  0.62096154608E+02  0.79442406036E+02  0.00000000000E+00 0.  1.
         14    1    4    4    0    0 -0.69921026981E+02  0.27966387189E+03  0.31042724484E+03  0.42363416481E+03  0.00000000000E+00 0. -1.
         -5    1    5    5    0  502  0.35779083971E+02 -0.16282011359E+02 -0.26279216612E+02  0.47517722688E+02  0.47000000000E+01 0.  1.
         11    1    6    6    0    0 -0.46710254584E+01 -0.78799060881E+02  0.58603376848E+02  0.98313103158E+02  0.00000000000E+00 0. -1.
        -12    1    6    6    0    0  0.82054765022E+02 -0.21255702685E+03  0.61388336531E+02  0.23597034134E+03  0.00000000000E+00 0.  1.
</event>
<event>
12    1  0.8313893E-002  0.2110117E+03  0.7818608E-02  0.1141648E+00
         21   -1    0    0  501  502  0.00000000000E+00  0.00000000000E+00  0.32494432898E+04  0.32494432898E+04  0.00000000000E+00 0. -1.
         21   -1    0    0  502  503 -0.00000000000E+00 -0.00000000000E+00 -0.13481644612E+02  0.13481644612E+02  0.00000000000E+00 0.  1.
         -6    2    1    2    0  503 -0.47605423242E+02  0.97742461931E+02  0.17482533470E+04  0.17609417031E+04  0.18084814441E+03 0.  0.
        -24    2    3    3    0    0 -0.25497776503E+02  0.82481081704E+01  0.36075427265E+03  0.37037571810E+03  0.79475527227E+02 0.  0.
          6    2    1    2  501    0  0.47605423242E+02 -0.97742461931E+02  0.14877082982E+04  0.15019832313E+04  0.17566383057E+03 0.  0.
         24    2    5    5    0    0  0.18824269844E+02 -0.13286776617E+03  0.12146435692E+04  0.12251284354E+04  0.87020035560E+02 0.  0.
          5    1    5    5  501    0  0.28781153398E+02  0.35125304242E+02  0.27306472899E+03  0.27685479589E+03  0.47000000000E+01 0. -1.
        -13    1    6    6    0    0  0.12947524087E+02 -0.66447023209E+02  0.27836641100E+03  0.28647984928E+03  0.00000000000E+00 0.  1.
         14    1    6    6    0    0  0.58767457570E+01 -0.66420742964E+02  0.93627715825E+03  0.93864858615E+03  0.00000000000E+00 0. -1.
         -5    1    3    3    0  503 -0.22107646739E+02  0.89494353761E+02  0.13874990743E+04  0.13905659850E+04  0.47000000000E+01 0.  1.
         13    1    4    4    0    0 -0.16387398771E+02  0.20847418027E+02  0.35104499575E+03  0.35204509757E+03  0.00000000000E+00 0. -1.
        -14    1    4    4    0    0 -0.91103777320E+01 -0.12599309856E+02  0.97092768946E+01  0.18330620532E+02  0.00000000000E+00 0.  1.
</event>
<event>
12    1  0.8313893E-002  0.1827010E+03  0.7818608E-02  0.1165431E+00
         21   -1    0    0  503  502  0.00000000000E+00  0.00000000000E+00  0.10028007088E+04  0.10028007088E+04  0.00000000000E+00 0. -1.
         21   -1    0    0  501  503 -0.00000000000E+00 -0.00000000000E+00 -0.48355333421E+02  0.48355333421E+02  0.00000000000E+00 0. -1.
          6    2    1    2  501    0 -0.48341918142E+02 -0.33892493498E+02  0.18140217943E+03  0.25681641632E+03  0.17193684545E+03 0.  0.
         24    2    3    3    0    0 -0.98466537168E+02 -0.13331699592E+02  0.12309032801E+03  0.17708194639E+03  0.79582622045E+02 0.  0.
         -6    2    1    2    0  502  0.48341918142E+02  0.33892493498E+02  0.77304319596E+03  0.79433962592E+03  0.17289886152E+03 0.  0.
        -24    2    5    5    0    0 -0.13228510687E+01  0.67844050762E+02  0.30113667790E+03  0.31859058563E+03  0.78816859360E+02 0.  0.
          5    1    3    3  501    0  0.50124619026E+02 -0.20560793906E+02  0.58311851426E+02  0.79734469931E+02  0.47000000000E+01 0. -1.
        -13    1    4    4    0    0 -0.27497570485E+02  0.30817313803E+02  0.57713260507E+02  0.70969314855E+02  0.00000000000E+00 0.  1.
         14    1    4    4    0    0 -0.70968966683E+02 -0.44149013395E+02  0.65377067500E+02  0.10611263153E+03  0.00000000000E+00 0. -1.
         -5    1    5    5    0  502  0.49664769211E+02 -0.33951557263E+02  0.47190651806E+03  0.47574904028E+03  0.47000000000E+01 0.  1.
         11    1    6    6    0    0  0.38005848112E+01  0.30533450182E+01  0.18838638395E+03  0.18844945482E+03  0.00000000000E+00 0. -1.
        -12    1    6    6    0    0 -0.51234358800E+01  0.64790705744E+02  0.11275029394E+03  0.13014113082E+03  0.00000000000E+00 0.  1.
</event>
<event>
12    1  0.8313893E-002  0.1962435E+03  0.7818608E-02  0.1153597E+00
         21   -1    0    0  503  502  0.00000000000E+00  0.00000000000E+00  0.57511659742E+02  0.57511659742E+02  0.00000000000E+00 0.  1.
         21   -1    0    0  501  503 -0.00000000000E+00 -0.00000000000E+00 -0.65955775062E+03  0.65955775062E+03  0.00000000000E+00 0.  1.
          6    2    1    2  501    0  0.88475139756E+02 -0.30946502525E+02 -0.30216743292E+03  0.35868590938E+03  0.16901150167E+03 0.  0.
         24    2    3    3    0    0  0.10208241940E+03 -0.31833306433E+02 -0.13256780159E+03  0.18847407246E+03  0.80709814903E+02 0.  0.
         -6    2    1    2    0  502 -0.88475139756E+02  0.30946502525E+02 -0.29987865795E+03  0.35838350098E+03  0.17241226146E+03 0.  0.
        -24    2    5    5    0    0 -0.14096102056E+02  0.17307423572E+02 -0.48332107013E+02  0.95674492730E+02  0.79494458844E+02 0.  0.
          5    1    3    3  501    0 -0.13607279646E+02  0.88680390798E+00 -0.16959963134E+03  0.17021183693E+03  0.47000000000E+01 0. -1.
        -13    1    4    4    0    0  0.44171842170E+02 -0.55627569157E+02 -0.77044049443E+02  0.10479200182E+03  0.00000000000E+00 0.  1.
         14    1    4    4    0    0  0.57910577233E+02  0.23794262724E+02 -0.55523752144E+02  0.83682070637E+02  0.00000000000E+00 0. -1.
         -5    1    5    5    0  502 -0.74379037700E+02  0.13639078953E+02 -0.25154655094E+03  0.26270900825E+03  0.47000000000E+01 0.  1.
         11    1    6    6    0    0 -0.19625246777E+02 -0.25906925679E+02 -0.39620310126E+02  0.51245371339E+02  0.00000000000E+00 0. -1.
        -12    1    6    6    0    0  0.55291447206E+01  0.43214349251E+02 -0.87117968869E+01  0.44429121391E+02  0.00000000000E+00 0.  1.
</event>
<event>
12    1  0.8313893E-002  0.2302505E+03  0.7818608E-02  0.1126612E+00
         21   -1    0    0  501  502  0.00000000000E+00  0.00000000000E+00  0.67333556633E+02  0.67333556633E+02  0.00000000000E+00 0. -1.
         21   -1    0    0  502  503 -0.00000000000E+00 -0.00000000000E+00 -0.79048775796E+03  0.79048775796E+03  0.00000000000E+00 0.  1.
         -6    2    1    2    0  503 -0.14580732732E+03  0.44956775844E+02 -0.32482644037E+03  0.39815512023E+03  0.17243664055E+03 0.  0.
        -24    2    3    3    0    0 -0.95416761891E+02  0.12083574812E+02 -0.85441516438E+02  0.15128047949E+03  0.79593715294E+02 0.  0.
          6    2    1    2  501    0  0.14580732732E+03 -0.44956775844E+02 -0.39832776096E+03  0.45966619437E+03  0.17131000176E+03 0.  0.
         24    2    5    5    0    0  0.52382332320E+02 -0.21780792154E+02 -0.32220090146E+03  0.33685436819E+03  0.80244207425E+02 0.  0.
          5    1    5    5  501    0  0.93424995001E+02 -0.23175983691E+02 -0.76126859498E+02  0.12281182617E+03  0.47000000000E+01 0. -1.
        -13    1    6    6    0    0  0.73407217414E+02 -0.11046005051E+02 -0.23021134132E+03  0.24188405377E+03  0.00000000000E+00 0.  1.
         14    1    6    6    0    0 -0.21024885095E+02 -0.10734787103E+02 -0.91989560142E+02  0.94970314428E+02  0.00000000000E+00 0. -1.
         -5    1    3    3    0  503 -0.50390565429E+02  0.32873201033E+02 -0.23938492393E+03  0.24687464073E+03  0.47000000000E+01 0.  1.
         11    1    4    4    0    0 -0.65204190123E+02  0.45185171931E+02 -0.62126996519E+02  0.10076234350E+03  0.00000000000E+00 0. -1.
        -12    1    4    4    0    0 -0.30212571768E+02 -0.33101597119E+02 -0.23314519919E+02  0.50518135989E+02  0.00000000000E+00 0.  1.
</event>
<event>
12    1  0.8313893E-002  0.2075391E+03  0.7818608E-02  0.1144099E+00
         21   -1    0    0  501  502  0.00000000000E+00  0.00000000000E+00  0.26401905418E+03  0.26401905418E+03  0.00000000000E+00 0. -1.
         21   -1    0    0  502  503 -0.00000000000E+00 -0.00000000000E+00 -0.22230206098E+03  0.22230206098E+03  0.00000000000E+00 0. -1.
         -6    2    1    2    0  503 -0.94793179497E+02  0.57479822580E+02 -0.10699472139E+03  0.23100237171E+03  0.17211783302E+03 0.  0.
        -24    2    3    3    0    0 -0.32686863679E+02  0.93987485621E+02 -0.97263666176E+02  0.15815467194E+03  0.75170479505E+02 0.  0.
          6    2    1    2  501    0  0.94793179497E+02 -0.57479822580E+02  0.14871171459E+03  0.25531874346E+03  0.17545030584E+03 0.  0.
         24    2    5    5    0    0  0.31065633227E+02 -0.66522320498E+02  0.15614334839E+03  0.19035501432E+03  0.80398964780E+02 0.  0.
          5    1    5    5  501    0  0.63727546271E+02  0.90424979182E+01 -0.74316338016E+01  0.64963729136E+02  0.47000000000E+01 0. -1.
        -11    1    6    6    0    0  0.22713831183E+02 -0.19474481210E+02  0.31635102456E+01  0.30086231776E+02  0.00000000000E+00 0.  1.
         12    1    6    6    0    0  0.83518020439E+01 -0.47047839288E+02  0.15297983815E+03  0.16026878255E+03  0.00000000000E+00 0. -1.
         -5    1    3    3    0  503 -0.62106315818E+02 -0.36507663041E+02 -0.97310552180E+01  0.72847699764E+02  0.47000000000E+01 0.  1.
         11    1    4    4    0    0 -0.27200096062E+02  0.11754568519E+02 -0.61594526921E+02  0.68351304694E+02  0.00000000000E+00 0. -1.
        -12    1    4    4    0    0 -0.54867676173E+01  0.82232917103E+02 -0.35669139255E+02  0.89803367249E+02  0.00000000000E+00 0.  1.
</event>
<event>
12    1  0.8313893E-002  0.2602201E+03  0.7818608E-02  0.1107256E+00
         21   -1    0    0  503  502  0.00000000000E+00  0.00000000000E+00  0.29304391629E+03  0.29304391629E+03  0.00000000000E+00 0. -1.
         21   -1    0    0  501  503 -0.00000000000E+00 -0.00000000000E+00 -0.41667921322E+03  0.41667921322E+03  0.00000000000E+00 0.  1.
          6    2    1    2  501    0  0.18370843330E+03 -0.65010874147E+02 -0.29946836879E+03  0.39566617535E+03  0.16998592938E+03 0.  0.
         24    2    3    3    0    0  0.17996808014E+03 -0.10145507926E+03 -0.25988948116E+03  0.34152978579E+03  0.80114974816E+02 0.  0.
         -6    2    1    2    0  502 -0.18370843330E+03  0.65010874147E+02  0.17583307186E+03  0.31405695416E+03  0.17245085988E+03 0.  0.
        -24    2    5    5    0    0 -0.15895950563E+03  0.62759199001E+02  0.63363286809E+02  0.19877849992E+03  0.79316734848E+02 0.  0.
          5    1    3    3  501    0  0.37403531606E+01  0.36444205113E+02 -0.39578887627E+02  0.54136389554E+02  0.47000000000E+01 0. -1.
        -11    1    4    4    0    0  0.63472420660E+02 -0.33060952142E+02 -0.15423803212E+03  0.17003277711E+03  0.00000000000E+00 0.  1.
         12    1    4    4    0    0  0.11649565948E+03 -0.68394127119E+02 -0.10565144904E+03  0.17149700868E+03  0.00000000000E+00 0. -1.
         -5    1    5    5    0  502 -0.24748927669E+02  0.22516751468E+01  0.11246978505E+03  0.11527845423E+03  0.47000000000E+01 0.  1.
         11    1    6    6    0    0 -0.23874105400E+02  0.46082774624E+02  0.23329812431E+02  0.56902330126E+02  0.00000000000E+00 0. -1.
        -12    1    6    6    0    0 -0.13508540023E+03  0.16676424376E+02  0.40033474378E+02  0.14187616980E+03  0.00000000000E+00 0.  1.
</event>
<event>
12    1  0.8313893E-002  0.1959847E+03  0.7818608E-02  0.1153547E+00
         21   -1    0    0  503  502  0.00000000000E+00  0.00000000000E+00  0.87313292954E+03  0.87313292954E+03  0.00000000000E+00 0. -1.
         21   -1    0    0  501  503 -0.00000000000E+00 -0.00000000000E+00 -0.33730199714E+03  0.33730199714E+03  0.00000000000E+00 0. -1.
          6    2    1    2  501    0  0.99450574439E+02  0.82536892835E+00 -0.29667527625E+03  0.35556465759E+03  0.16887542212E+03 0.  0.
         24    2    3    3    0    0  0.11272194835E+03 -0.43873596689E+02 -0.25236195031E+03  0.29106746580E+03  0.80016158073E+02 0.  0.
         -6    2    1    2    0  502 -0.99450574439E+02 -0.82536892835E+00  0.83250620865E+03  0.85487026909E+03  0.16686968428E+03 0.  0.
        -24    2    5    5    0    0 -0.53883354086E+02 -0.58263436188E+02  0.39254743844E+03  0.40881947307E+03  0.82108624944E+02 0.  0.
          5    1    3    3  501    0 -0.13271373915E+02  0.44698965618E+02 -0.44313325941E+02  0.64497191791E+02  0.47000000000E+01 0. -1.
        -13    1    4    4    0    0  0.18791566829E+02  0.14940293595E+02 -0.13014492719E+02  0.27307734753E+02  0.00000000000E+00 0.  1.
         14    1    4    4    0    0  0.93930381525E+02 -0.58813890285E+02 -0.23934745759E+03  0.26375973104E+03  0.00000000000E+00 0. -1.
         -5    1    5    5    0  502 -0.45567220353E+02  0.57438067259E+02  0.43995877021E+03  0.44605079602E+03  0.47000000000E+01 0.  1.
         11    1    6    6    0    0 -0.61427768700E+02 -0.30679740303E+02  0.35522866711E+03  0.36180384626E+03  0.00000000000E+00 0. -1.
        -12    1    6    6    0    0  0.75444146146E+01 -0.27583695885E+02  0.37318771332E+02  0.47015626809E+02  0.00000000000E+00 0.  1.
</event>
<event>
12    1  0.8313893E-002  0.3024142E+03  0.7818608E-02  0.1084113E+00
         21   -1    0    0  501  502  0.00000000000E+00  0.00000000000E+00  0.68932667976E+03  0.68932667976E+03  0.00000000000E+00 0. -1.
         21   -1    0    0  502  503 -0.00000000000E+00 -0.00000000000E+00 -0.13983351563E+03  0.13983351563E+03  0.00000000000E+00 0. -1.
         -6    2    1    2    0  503  0.22716001951E+03 -0.10178088694E+03  0.36998728613E+03  0.47748322706E+03  0.17070037145E+03 0.  0.
        -24    2    3    3    0    0  0.22877533401E+03 -0.10697975357E+03  0.38121643066E+03  0.46414826766E+03  0.79528776179E+02 0.  0.
          6    2    1    2  501    0 -0.22716001951E+03  0.10178088694E+03  0.17950587800E+03  0.35167696834E+03  0.17173615349E+03 0.  0.
         24    2    5    5    0    0 -0.22589266822E+03  0.13079294279E+03  0.16017249604E+03  0.31647504763E+03  0.79793081455E+02 0.  0.
          5    1    5    5  501    0 -0.12673512907E+01 -0.29012055843E+02  0.19333381956E+02  0.35201920706E+02  0.47000000000E+01 0. -1.
        -13    1    6    6    0    0 -0.10040453615E+03  0.16158738946E+02  0.75011103672E+02  0.12636788120E+03  0.00000000000E+00 0.  1.
         14    1    6    6    0    0 -0.12548813207E+03  0.11463420384E+03  0.85161392373E+02  0.19010716644E+03  0.00000000000E+00 0. -1.
         -5    1    3    3    0  503 -0.16153145071E+01  0.51988666214E+01 -0.11229144532E+02  0.13334959393E+02  0.47000000000E+01 0.  1.
         13    1    4    4    0    0  0.10035418256E+02 -0.29308828787E+02  0.29761310140E+02  0.42958731891E+02  0.00000000000E+00 0. -1.
        -14    1    4    4    0    0  0.21873991576E+03 -0.77670924779E+02  0.35145512052E+03  0.42118953577E+03  0.00000000000E+00 0.  1.
</event>
<event>
12    1  0.8313893E-002  0.1771447E+03  0.7818608E-02  0.1172045E+00
         21   -1    0    0  501  502  0.00000000000E+00  0.00000000000E+00  0.39683431057E+03  0.39683431057E+03  0.00000000000E+00 0. -1.
         21   -1    0    0  502  503 -0.00000000000E+00 -0.00000000000E+00 -0.37075193974E+03  0.37075193974E+03  0.00000000000E+00 0. -1.
         -6    2    1    2    0  503  0.29246437609E+02 -0.31775385002E+02 -0.32889229193E+03  0.37086562454E+03  0.16584975903E+03 0.  0.
        -24    2    3    3    0    0  0.48815947224E+02 -0.68481909653E+02 -0.15939704992E+03  0.19627736112E+03  0.77747117718E+02 0.  0.
          6    2    1    2  501    0 -0.29246437609E+02  0.31775385002E+02  0.35497466276E+03  0.39672062577E+03  0.17179992579E+03 0.  0.
         24    2    5    5    0    0 -0.13872861742E+02  0.49091634940E+02  0.89540145331E+02  0.13023653170E+03  0.79634613391E+02 0.  0.
          5    1    5    5  501    0 -0.15373575867E+02 -0.17316249938E+02  0.26543451743E+03  0.26648409406E+03  0.47000000000E+01 0. -1.
        -11    1    6    6    0    0 -0.15580667121E+02 -0.17358967122E+02  0.71961174078E+01  0.24410551677E+02  0.00000000000E+00 0.  1.
         12    1    6    6    0    0  0.17078053791E+01  0.66450602062E+02  0.82344027923E+02  0.10582598002E+03  0.00000000000E+00 0. -1.
         -5    1    3    3    0  503 -0.19569509616E+02  0.36706524650E+02 -0.16949524201E+03  0.17458826342E+03  0.47000000000E+01 0.  1.
         13    1    4    4    0    0  0.19939590708E+02 -0.76473478799E+02 -0.13943574817E+03  0.16027510132E+03  0.00000000000E+00 0. -1.
        -14    1    4    4    0    0  0.28876356517E+02  0.79915691459E+01 -0.19961301753E+02  0.36002259801E+02  0.00000000000E+00 0.  1.
</event>
<event>
12    1  0.8313893E-002  0.1727226E+03  0.7818608E-02  0.1175435E+00
         21   -1    0    0  503  502  0.00000000000E+00  0.00000000000E+00  0.29801758513E+03  0.29801758513E+03  0.00000000000E+00 0.  1.
         21   -1    0    0  501  503 -0.00000000000E+00 -0.00000000000E+00 -0.12497701730E+03  0.12497701730E+03  0.00000000000E+00 0.  1.
          6    2    1    2  501    0  0.13169545766E+02  0.69300988955E+01  0.18285855243E+03  0.25153596930E+03  0.17208030232E+03 0.  0.
         24    2    3    3    0    0  0.36980573166E+02  0.37649282107E+02  0.38833018157E+02  0.10228424312E+03  0.78543184664E+02 0.  0.
         -6    2    1    2    0  502 -0.13169545766E+02 -0.69300988955E+01 -0.98179846045E+01  0.17145863314E+03  0.17052919647E+03 0.  0.
        -24    2    5    5    0    0 -0.34417281992E+01  0.58803874583E+02 -0.25959917527E+02  0.10291494121E+03  0.80298360182E+02 0.  0.
          5    1    3    3  501    0 -0.23811027400E+02 -0.30719183212E+02  0.14402553428E+03  0.14925172618E+03  0.47000000000E+01 0. -1.
        -13    1    4    4    0    0 -0.13628866262E+02  0.32459989299E+02 -0.44543395638E+01  0.35485744206E+02  0.00000000000E+00 0.  1.
         14    1    4    4    0    0  0.50609439428E+02  0.51892928081E+01  0.43287357721E+02  0.66798498917E+02  0.00000000000E+00 0. -1.
         -5    1    5    5    0  502 -0.97278175670E+01 -0.65733973479E+02  0.16141932923E+02  0.68543691923E+02  0.47000000000E+01 0.  1.
         11    1    6    6    0    0 -0.17353220859E+02  0.18308460227E+02  0.25568713781E+02  0.35917866229E+02  0.00000000000E+00 0. -1.
        -12    1    6    6    0    0  0.13911492660E+02  0.40495414356E+02 -0.51528631308E+02  0.66997074984E+02  0.00000000000E+00 0.  1.
</event>
<event>
12    1  0.8313893E-002  0.2009134E+03  0.7818608E-02  0.1148983E+00
         21   -1    0    0  503  502  0.00000000000E+00  0.00000000000E+00  0.54472357667E+03  0.54472357667E+03  0.00000000000E+00 0. -1.
         21   -1    0    0  501  503 -0.00000000000E+00 -0.00000000000E+00 -0.76672423039E+02  0.76672423039E+02  0.00000000000E+00 0.  1.
          6    2    1    2  501    0  0.61165322438E+02 -0.83688609357E+02  0.17695662202E+03  0.26773092557E+03  0.17210817072E+03 0.  0.
         24    2    3    3    0    0  0.59490175975E+01  0.46075127876E+01  0.25620761410E+02  0.83965645363E+02  0.79606445729E+02 0.  0.
         -6    2    1    2    0  502 -0.61165322438E+02  0.83688609357E+02  0.29109453161E+03  0.35366507413E+03  0.17204062986E+03 0.  0.
        -24    2    5    5    0    0 -0.27248016022E+02  0.10489926832E+03  0.28274087524E+03  0.31252933173E+03  0.77368403026E+02 0.  0.
          5    1    3    3  501    0  0.55216304841E+02 -0.88296122144E+02  0.15133586061E+03  0.18376528021E+03  0.47000000000E+01 0. -1.
        -13    1    4    4    0    0 -0.10031809638E+02 -0.17218555132E+02 -0.21697916135E+02  0.29460404105E+02  0.00000000000E+00 0.  1.
         14    1    4    4    0    0  0.15980827236E+02  0.21826067919E+02  0.47318677545E+02  0.54505241258E+02  0.00000000000E+00 0. -1.
         -5    1    5    5    0  502 -0.33917306416E+02 -0.21210658968E+02  0.83536563736E+01  0.41135742405E+02  0.47000000000E+01 0.  1.
         11    1    6    6    0    0  0.20682835091E+02  0.45671769659E+02  0.66668921342E+02  0.83417236133E+02  0.00000000000E+00 0. -1.
        -12    1    6    6    0    0 -0.47930851113E+02  0.59227498666E+02  0.21607195390E+03  0.22911209560E+03  0.00000000000E+00 0.  1.
</event>
<event>
12    1  0.8313893E-002  0.1853023E+03  0.7818608E-02  0.1162948E+00
         21   -1    0    0  501  502  0.00000000000E+00  0.00000000000E+00  0.33467832744E+03  0.33467832744E+03  0.00000000000E+00 0. -1.
         21   -1    0    0  502  503 -0.00000000000E+00 -0.00000000000E+00 -0.10518039447E+03  0.10518039447E+03  0.00000000000E+00 0. -1.
         -6    2    1    2    0  503  0.29310066179E+02 -0.58327140980E+02  0.15172180870E+03  0.23889586871E+03  0.17259951766E+03 0.  0.
        -24    2    3    3    0    0 -0.83529470931E+01 -0.86607169497E+02  0.53485411431E+02  0.12985118828E+03  0.80187706839E+02 0.  0.
          6    2    1    2  501    0 -0.29310066179E+02  0.58327140980E+02  0.77776124269E+02  0.20096285321E+03  0.17342378011E+03 0.  0.
         24    2    5    5    0    0  0.44417803665E+02  0.57971577502E+02  0.35001707787E+02  0.11559502600E+03  0.82483000712E+02 0.  0.
          5    1    5    5  501    0 -0.73727869844E+02  0.35556347750E+00  0.42774416482E+02  0.85367827210E+02  0.47000000000E+01 0. -1.
        -13    1    6    6    0    0  0.31857497067E+02  0.59113099828E+02 -0.10866436866E+02  0.68024540725E+02  0.00000000000E+00 0.  1.
         14    1    6    6    0    0  0.12560306598E+02 -0.11415223261E+01  0.45868144652E+02  0.47570485271E+02  0.00000000000E+00 0. -1.
         -5    1    3    3    0  503  0.37663013272E+02  0.28280028517E+02  0.98236397268E+02  0.10904468043E+03  0.47000000000E+01 0.  1.
         11    1    4    4    0    0  0.73148924321E+01  0.60613494693E+01 -0.11998455275E+02  0.15303938632E+02  0.00000000000E+00 0. -1.
        -12    1    4    4    0    0 -0.15667839525E+02 -0.92668518966E+02  0.65483866706E+02  0.11454724965E+03  0.00000000000E+00 0.  1.
</event>
<event>
12    1  0.8313893E-002  0.1902840E+03  0.7818608E-02  0.1158237E+00
         21   -1    0    0  503  502  0.00000000000E+00  0.00000000000E+00  0.25259789738E+03  0.25259789738E+03  0.00000000000E+00 0.  1.
         21   -1    0    0  501  503 -0.00000000000E+00 -0.00000000000E+00 -0.14379130962E+03  0.14379130962E+03  0.00000000000E+00 0. -1.
          6    2    1    2  501    0  0.53592261958E+02 -0.61287696787E+02  0.42092254573E+02  0.19474892251E+03  0.17183443369E+03 0.  0.
         24    2    3    3    0    0 -0.63819135723E+01 -0.14012992241E+02  0.73111355654E+02  0.11218940426E+03  0.83690497256E+02 0.  0.
         -6    2    1    2    0  502 -0.53592261958E+02  0.61287696787E+02  0.66714333185E+02  0.20164028450E+03  0.17198746978E+03 0.  0.
        -24    2    5    5    0    0 -0.99475816152E+02  0.65199246993E+02  0.51974592475E+02  0.15306096044E+03  0.81116703206E+02 0.  0.
          5    1    3    3  501    0  0.59974175530E+02 -0.47274704546E+02 -0.31019101081E+02  0.82559518242E+02  0.47000000000E+01 0. -1.
        -11    1    4    4    0    0 -0.24516477300E+02 -0.36864456236E+02  0.70034837005E+02  0.82854838043E+02  0.00000000000E+00 0.  1.
         12    1    4    4    0    0  0.18134563728E+02  0.22851463996E+02  0.30765186486E+01  0.29334566220E+02  0.00000000000E+00 0. -1.
         -5    1    5    5    0  502  0.45883554194E+02 -0.39115502062E+01  0.14739740710E+02  0.48579324066E+02  0.47000000000E+01 0.  1.
         13    1    6    6    0    0 -0.27838891874E+02 -0.14444350752E+02 -0.49544203743E+01  0.31751999160E+02  0.00000000000E+00 0. -1.
        -14    1    6    6    0    0 -0.71636924278E+02  0.79643597745E+02  0.56929012850E+02  0.12130896128E+03  0.00000000000E+00 0.  1.
</event>
<event>
12    1  0.8313893E-002  0.1835427E+03  0.7818608E-02  0.1164639E+00
         21   -1    0    0  503  502  0.00000000000E+00  0.00000000000E+00  0.18911829989E+03  0.18911829989E+03  0.00000000000E+00 0.  1.
         21   -1    0    0  501  503 -0.00000000000E+00 -0.00000000000E+00 -0.23950852413E+03  0.23950852413E+03  0.00000000000E+00 0.  1.
          6    2    1    2  501    0  0.58279832769E+02  0.22140843669E+02 -0.13452980853E+03  0.22756577062E+03  0.17263010951E+03 0.  0.
         24    2    3    3    0    0  0.76814573601E+02  0.12056079867E+02 -0.22919498021E+02  0.11388116089E+03  0.79986171530E+02 0.  0.
         -6    2    1    2    0  502 -0.58279832769E+02 -0.22140843669E+02  0.84139584284E+02  0.20106105340E+03  0.17163718037E+03 0.  0.
        -24    2    5    5    0    0 -0.80040030158E+01 -0.69479031731E+02  0.76605402349E+02  0.13143765932E+03  0.80722182227E+02 0.  0.
          5    1    3    3  501    0 -0.18534740832E+02  0.10084763802E+02 -0.11161031051E+03  0.11368460973E+03  0.47000000000E+01 0. -1.
        -11    1    4    4    0    0  0.90708821472E+01  0.75476666800E+01  0.27095919252E+02  0.29553967845E+02  0.00000000000E+00 0.  1.
         12    1    4    4    0    0  0.67743691454E+02  0.45084131871E+01 -0.50015417273E+02  0.84327193042E+02  0.00000000000E+00 0. -1.
         -5    1    5    5    0  502 -0.50275829753E+02  0.47338188061E+02  0.75341819349E+01  0.69623394084E+02  0.47000000000E+01 0.  1.
         11    1    6    6    0    0  0.24103292486E+02 -0.26511739686E+02  0.68343859869E+02  0.77166859672E+02  0.00000000000E+00 0. -1.
        -12    1    6    6    0    0 -0.32107295502E+02 -0.42967292045E+02  0.82615424797E+01  0.54270799646E+02  0.00000000000E+00 0.  1.
</event>
<event>
12    1  0.8313893E-002  0.2107611E+03  0.7818608E-02  0.1141137E+00
         21   -1    0    0  501  502  0.00000000000E+00  0.00000000000E+00  0.12646876096E+03  0.12646876096E+03  0.00000000000E+00 0. -1.
         21   -1    0    0  502  503 -0.00000000000E+00 -0.00000000000E+00 -0.62433162687E+03  0.62433162687E+03  0.00000000000E+00 0. -1.
         -6    2    1    2    0  503 -0.11732062964E+03  0.30995728936E+02 -0.49816071821E+03  0.54091067398E+03  0.17232350597E+03 0.  0.
        -24    2    3    3    0    0  0.11228072511E+02 -0.15357292677E+00 -0.23757757235E+03  0.24864245173E+03  0.72483603135E+02 0.  0.
          6    2    1    2  501    0  0.11732062964E+03 -0.30995728936E+02  0.29785230356E+00  0.20988971385E+03  0.17125635145E+03 0.  0.
         24    2    5    5    0    0 -0.91446967368E+01 -0.11862267721E+02  0.56315865954E+01  0.81787774615E+02  0.80207147032E+02 0.  0.
          5    1    5    5  501    0  0.12646532638E+03 -0.19133461215E+02 -0.53337342919E+01  0.12810193923E+03  0.47000000000E+01 0. -1.
        -13    1    6    6    0    0  0.22771323800E+02  0.17306958155E+02 -0.16703708194E+02  0.33122165624E+02  0.00000000000E+00 0.  1.
         14    1    6    6    0    0 -0.31916020537E+02 -0.29169225876E+02  0.22335294790E+02  0.48665608991E+02  0.00000000000E+00 0. -1.
         -5    1    3    3    0  503 -0.12854870215E+03  0.31149301862E+02 -0.26058314586E+03  0.29226822225E+03  0.47000000000E+01 0.  1.
         13    1    4    4    0    0 -0.16237632820E+02  0.12018360667E+02 -0.19762669484E+03  0.19865651820E+03  0.00000000000E+00 0. -1.
        -14    1    4    4    0    0  0.27465705331E+02 -0.12171933593E+02 -0.39950877509E+02  0.49985933526E+02  0.00000000000E+00 0.  1.
</event>
<event>
12    1  0.8313893E-002  0.1696758E+03  0.7818608E-02  0.1179125E+00
         21   -1    0    0  503  502  0.00000000000E+00  0.00000000000E+00  0.21335359832E+03  0.21335359832E+03  0.00000000000E+00 0.  1.
         21   -1    0    0  501  503 -0.00000000000E+00 -0.00000000000E+00 -0.53204032168E+03  0.53204032168E+03  0.00000000000E+00 0.  1.
          6    2    1    2  501    0 -0.31228171926E+01 -0.23467689994E+02 -0.48204091056E+03  0.50986374841E+03  0.16442967500E+03 0.  0.
         24    2    3    3    0    0 -0.38735605642E+02  0.17283492492E+02 -0.40879378093E+03  0.41867075758E+03  0.79835341002E+02 0.  0.
         -6    2    1    2    0  502  0.31228171926E+01  0.23467689994E+02  0.16335418720E+03  0.23553017159E+03  0.16801603136E+03 0.  0.
        -24    2    5    5    0    0 -0.20165412515E+02  0.34361483031E+02  0.20174619843E+02  0.89984663663E+02  0.78120861687E+02 0.  0.
          5    1    3    3  501    0  0.35612788449E+02 -0.40751182486E+02 -0.73247129638E+02  0.91192990824E+02  0.47000000000E+01 0. -1.
        -13    1    4    4    0    0 -0.45136303251E+01 -0.40177662831E+01 -0.33098645574E+03  0.33104161248E+03  0.00000000000E+00 0.  1.
         14    1    4    4    0    0 -0.34221975317E+02  0.21301258775E+02 -0.77807325183E+02  0.87629145106E+02  0.00000000000E+00 0. -1.
         -5    1    5    5    0  502  0.23288229707E+02 -0.10893793037E+02  0.14317956736E+03  0.14554550793E+03  0.47000000000E+01 0.  1.
         13    1    6    6    0    0 -0.12570801101E+02  0.50475839832E+02  0.38279979890E+02  0.64584768386E+02  0.00000000000E+00 0. -1.
        -14    1    6    6    0    0 -0.75946114138E+01 -0.16114356801E+02 -0.18105360047E+02  0.25399895277E+02  0.00000000000E+00 0.  1.
</event>
<event>
12    1  0.8313893E-002  0.2263362E+03  0.7818608E-02  0.1129540E+00
         21   -1    0    0  503  502  0.00000000000E+00  0.00000000000E+00  0.90840283956E+03  0.90840283956E+03  0.00000000000E+00 0. -1.
         21   -1    0    0  501  503 -0.00000000000E+00 -0.00000000000E+00 -0.10093666560E+03  0.10093666560E+03  0.00000000000E+00 0.  1.
          6    2    1    2  501    0 -0.12085885013E+03  0.80522022281E+02  0.66142187361E+02  0.23423348482E+03  0.17146392838E+03 0.  0.
         24    2    3    3    0    0 -0.10199653418E+03  0.33250143159E+02  0.90983251921E+02  0.17740403816E+03  0.10809891591E+03 0.  0.
         -6    2    1    2    0  502  0.12085885013E+03 -0.80522022281E+02  0.74132398661E+03  0.77510602034E+03  0.17360135923E+03 0.  0.
        -24    2    5    5    0    0  0.13122446635E+03 -0.85998774286E+01  0.52135829535E+03  0.54340095727E+03  0.78589501719E+02 0.  0.
          5    1    3    3  501    0 -0.18862315945E+02  0.47271879122E+02 -0.24841064560E+02  0.56829446654E+02  0.47000000000E+01 0. -1.
        -11    1    4    4    0    0  0.39423458892E+00  0.84976556105E+01 -0.21605441245E+02  0.23219833401E+02  0.00000000000E+00 0.  1.
         12    1    4    4    0    0 -0.10239076877E+03  0.24752487549E+02  0.11258869317E+03  0.15418420476E+03  0.00000000000E+00 0. -1.
         -5    1    5    5    0  502 -0.10365616222E+02 -0.71922144853E+02  0.21996569126E+03  0.23170506307E+03  0.47000000000E+01 0.  1.
         11    1    6    6    0    0  0.17465884930E+02 -0.27864536638E+02  0.67190738350E+02  0.74806984022E+02  0.00000000000E+00 0. -1.
        -12    1    6    6    0    0  0.11375858142E+03  0.19264659210E+02  0.45416755700E+03  0.46859397325E+03  0.00000000000E+00 0.  1.
</event>
<event>
12    1  0.8313893E-002  0.2229265E+03  0.7818608E-02  0.1132080E+00
         21   -1    0    0  501  502  0.00000000000E+00  0.00000000000E+00  0.59603297936E+03  0.59603297936E+03  0.00000000000E+00 0. -1.
         21   -1    0    0  502  503 -0.00000000000E+00 -0.00000000000E+00 -0.11646744411E+03  0.11646744411E+03  0.00000000000E+00 0.  1.
         -6    2    1    2    0  503  0.69880238592E+02 -0.12199198700E+03  0.48562544889E+02  0.22815461658E+03  0.17300553651E+03 0.  0.
        -24    2    3    3    0    0 -0.11085986876E+02 -0.44809865325E+02  0.68170876994E+02  0.11449201825E+03  0.79563374970E+02 0.  0.
          6    2    1    2  501    0 -0.69880238592E+02  0.12199198700E+03  0.43100299036E+03  0.48434580689E+03  0.17047577633E+03 0.  0.
         24    2    5    5    0    0 -0.86437779852E+02  0.14094378855E+03  0.41526268351E+03  0.45429301642E+03  0.81255197628E+02 0.  0.
          5    1    5    5  501    0  0.16557541261E+02 -0.18951801557E+02  0.15740306852E+02  0.30052790463E+02  0.47000000000E+01 0. -1.
        -11    1    6    6    0    0 -0.94075783288E+01  0.30480488467E+02  0.22369946966E+02  0.38961227323E+02  0.00000000000E+00 0.  1.
         12    1    6    6    0    0 -0.77030201524E+02  0.11046330009E+03  0.39289273654E+03  0.41533178910E+03  0.00000000000E+00 0. -1.
         -5    1    3    3    0  503  0.80966225467E+02 -0.77182121673E+02 -0.19608332106E+02  0.11366259834E+03  0.47000000000E+01 0.  1.
         13    1    4    4    0    0 -0.54361411160E+01  0.22412994374E+02  0.26798148906E+02  0.35355830238E+02  0.00000000000E+00 0. -1.
        -14    1    4    4    0    0 -0.56498457598E+01 -0.67222859699E+02  0.41372728088E+02  0.79136188009E+02  0.00000000000E+00 0.  1.
</event>
<event>
12    1  0.8313893E-002  0.3891996E+03  0.7818608E-02  0.1047667E+00
         21   -1    0    0  501  502  0.00000000000E+00  0.00000000000E+00  0.44147033621E+03  0.44147033621E+03  0.00000000000E+00 0. -1.
         21   -1    0    0  502  503 -0.00000000000E+00 -0.00000000000E+00 -0.37437338620E+03  0.37437338620E+03  0.00000000000E+00 0.  1.
         -6    2    1    2    0  503  0.37322731300E+02  0.34624528387E+03 -0.85782599012E+02  0.39854105591E+03  0.17377438269E+03 0.  0.
        -24    2    3    3    0    0  0.35411059384E+02  0.20001279186E+03  0.18064146122E+02  0.21911465684E+03  0.80161458526E+02 0.  0.
          6    2    1    2  501    0 -0.37322731300E+02 -0.34624528387E+03  0.15287954902E+03  0.41730266649E+03  0.17172820408E+03 0.  0.
         24    2    5    5    0    0  0.39101724772E+02 -0.14362898405E+03  0.98090272988E+02  0.19387926305E+03  0.76218351099E+02 0.  0.
          5    1    5    5  501    0 -0.76424456073E+02 -0.20261629982E+03  0.54789276032E+02  0.22342340344E+03  0.47000000000E+01 0. -1.
        -11    1    6    6    0    0  0.48426684721E+02 -0.14584624334E+03  0.10096141319E+03  0.18387353655E+03  0.00000000000E+00 0.  1.
         12    1    6    6    0    0 -0.93249599482E+01  0.22172592850E+01 -0.28711401992E+01  0.10005726501E+02  0.00000000000E+00 0. -1.
         -5    1    3    3    0  503  0.19116719161E+01  0.14623249202E+03 -0.10384674513E+03  0.17942639908E+03  0.47000000000E+01 0.  1.
         11    1    4    4    0    0 -0.73951889332E+01  0.11503351248E+01  0.13746060812E+02  0.15651398599E+02  0.00000000000E+00 0. -1.
        -12    1    4    4    0    0  0.42806248317E+02  0.19886245673E+03  0.43180853101E+01  0.20346325824E+03  0.00000000000E+00 0.  1.
</event>
<event>
12    1  0.8313893E-002  0.1862267E+03  0.7818608E-02  0.1161961E+00
         21   -1    0    0  503  502  0.00000000000E+00  0.00000000000E+00  0.83848145472E+03  0.83848145472E+03  0.00000000000E+00 0.  1.
         21   -1    0    0  501  503 -0.00000000000E+00 -0.00000000000E+00 -0.43465694758E+02  0.43465694758E+02  0.00000000000E+00 0.  1.
          6    2    1    2  501    0 -0.60140344124E+02  0.35106979071E+02  0.29956332494E+03  0.35273015119E+03  0.17271656822E+03 0.  0.
         24    2    3    3    0    0 -0.84532151984E+02  0.33197065186E+02  0.11614770442E+03  0.16763021085E+03  0.79761322028E+02 0.  0.
         -6    2    1    2    0  502  0.60140344124E+02 -0.35106979071E+02  0.49545243501E+03  0.52921699828E+03  0.17247653446E+03 0.  0.
        -24    2    5    5    0    0  0.47503208897E+02 -0.88833478214E+02  0.30297022832E+03  0.32892290503E+03  0.79065646772E+02 0.  0.
          5    1    3    3  501    0  0.24391807860E+02  0.19099138850E+01  0.18341562053E+03  0.18509994034E+03  0.47000000000E+01 0. -1.
        -13    1    4    4    0    0 -0.20700242523E+02 -0.54216519016E+00 -0.94479654601E+01  0.22760888272E+02  0.00000000000E+00 0.  1.
         14    1    4    4    0    0 -0.63831909461E+02  0.33739230377E+02  0.12559566988E+03  0.14486932258E+03  0.00000000000E+00 0. -1.
         -5    1    5    5    0  502  0.12637135228E+02  0.53726499143E+02  0.19248220669E+03  0.20029409325E+03  0.47000000000E+01 0.  1.
         13    1    6    6    0    0 -0.20367769165E+02 -0.38505216656E+02  0.10174990570E+03  0.11068216225E+03  0.00000000000E+00 0. -1.
        -14    1    6    6    0    0  0.67870978062E+02 -0.50328261558E+02  0.20122032262E+03  0.21824074278E+03  0.00000000000E+00 0.  1.
</event>
<event>
12    1  0.8313893E-002  0.2043553E+03  0.7818608E-02  0.1146394E+00
         21   -1    0    0  503  502  0.00000000000E+00  0.00000000000E+00  0.32084587475E+03  0.32084587475E+03  0.00000000000E+00 0. -1.
         21   -1    0    0  501  503 -0.00000000000E+00 -0.00000000000E+00 -0.18514471686E+03  0.18514471686E+03  0.00000000000E+00 0. -1.
          6    2    1    2  501    0 -0.10974817217E+03  0.56230748286E+01 -0.71252992700E+02  0.21514509605E+03  0.17068726701E+03 0.  0.
         24    2    3    3    0    0 -0.11947943416E+02 -0.44671326807E+02 -0.24028298905E+02  0.95367496790E+02  0.79870642324E+02 0.  0.
         -6    2    1    2    0  502  0.10974817217E+03 -0.56230748286E+01  0.20695415059E+03  0.29084549557E+03  0.17229277867E+03 0.  0.
        -24    2    5    5    0    0 -0.33824083176E+00  0.34626969375E+02  0.88063734394E+02  0.12382422312E+03  0.79862854332E+02 0.  0.
          5    1    3    3  501    0 -0.97800228752E+02  0.50294401635E+02 -0.47224693795E+02  0.11977759926E+03  0.47000000000E+01 0. -1.
        -13    1    4    4    0    0 -0.42387219310E+01  0.44585157126E+01 -0.42030583705E+02  0.42478407368E+02  0.00000000000E+00 0.  1.
         14    1    4    4    0    0 -0.77092214849E+01 -0.49129842519E+02  0.18002284800E+02  0.52889089422E+02  0.00000000000E+00 0. -1.
         -5    1    5    5    0  502  0.11008641300E+03 -0.40250044204E+02  0.11889041620E+03  0.16702127244E+03  0.47000000000E+01 0.  1.
         13    1    6    6    0    0  0.69152551256E+01  0.58623698987E+02  0.45918893741E+02  0.74787055289E+02  0.00000000000E+00 0. -1.
        -14    1    6    6    0    0 -0.72534959574E+01 -0.23996729612E+02  0.42144840653E+02  0.49037167836E+02  0.00000000000E+00 0.  1.
</event>
<event>
12    1  0.8313893E-002  0.2046337E+03  0.7818608E-02  0.1146569E+00
         21   -1    0    0  503  502  0.00000000000E+00  0.00000000000E+00  0.29802983561E+03  0.29802983561E+03  0.00000000000E+00 0. -1.
         21   -1    0    0  501  503 -0.00000000000E+00 -0.00000000000E+00 -0.14245498746E+03  0.14245498746E+03  0.00000000000E+00 0.  1.
          6    2    1    2  501    0  0.10236317867E+03  0.44558046798E+02  0.11502097964E+03  0.23187143064E+03  0.16754370984E+03 0.  0.
         24    2    3    3    0    0  0.26561147100E+00  0.20696841370E+02  0.10589852084E+02  0.83813263838E+02  0.80523837687E+02 0.  0.
         -6    2    1    2    0  502 -0.10236317867E+03 -0.44558046798E+02  0.40553868516E+02  0.20861339243E+03  0.17149720513E+03 0.  0.
        -24    2    5    5    0    0  0.40993621875E+01 -0.25085798684E+02 -0.15703537946E+02  0.86546087904E+02  0.81225132573E+02 0.  0.
          5    1    3    3  501    0  0.10209756720E+03  0.23861205428E+02  0.10443112756E+03  0.14805816680E+03  0.47000000000E+01 0. -1.
        -13    1    4    4    0    0 -0.32726180965E+02 -0.63568539813E+01  0.21632924684E+02  0.39741614757E+02  0.00000000000E+00 0.  1.
         14    1    4    4    0    0  0.32991792436E+02  0.27053695351E+02 -0.11043072601E+02  0.44071649081E+02  0.00000000000E+00 0. -1.
         -5    1    5    5    0  502 -0.10646254086E+03 -0.19472248113E+02  0.56257406462E+02  0.12206730453E+03  0.47000000000E+01 0.  1.
         11    1    6    6    0    0  0.17508585192E+02 -0.47998225164E+02  0.70572215495E+01  0.51576976941E+02  0.00000000000E+00 0. -1.
        -12    1    6    6    0    0 -0.13409223004E+02  0.22912426480E+02 -0.22760759496E+02  0.34969110964E+02  0.00000000000E+00 0.  1.
</event>
<event>
12    1  0.8313893E-002  0.2204562E+03  0.7818608E-02  0.1137361E+00
         21   -1    0    0  501  502  0.00000000000E+00  0.00000000000E+00  0.53029756494E+02  0.53029756494E+02  0.00000000000E+00 0.  1.
         21   -1    0    0  502  503 -0.00000000000E+00 -0.00000000000E+00 -0.83792921601E+03  0.83792921601E+03  0.00000000000E+00 0.  1.
         -6    2    1    2    0  503  0.43281598166E+02 -0.10488714423E+03 -0.35974253986E+03  0.41204419855E+03  0.16580445353E+03 0.  0.
        -24    2    3    3    0    0  0.62880699919E+02 -0.26345239253E+02 -0.27830001083E+03  0.29711843485E+03  0.78615610713E+02 0.  0.
          6    2    1    2  501    0 -0.43281598166E+02  0.10488714423E+03 -0.42515691966E+03  0.47891477396E+03  0.18901413867E+03 0.  0.
         24    2    5    5    0    0 -0.49857481644E+01  0.32186766512E+02 -0.37084261623E+03  0.38030417309E+03  0.77757137500E+02 0.  0.
          5    1    5    5  501    0 -0.38295850002E+02  0.72700377714E+02 -0.54314303428E+02  0.98610600870E+02  0.47000000000E+01 0. -1.
        -11    1    6    6    0    0 -0.16348109198E+02  0.25329965593E+02 -0.44844650006E+02  0.54036195883E+02  0.00000000000E+00 0.  1.
         12    1    6    6    0    0  0.11362361034E+02  0.68568009190E+01 -0.32599796622E+03  0.32626797720E+03  0.00000000000E+00 0. -1.
         -5    1    3    3    0  503 -0.19599101753E+02 -0.78541904973E+02 -0.81442529030E+02  0.11492576370E+03  0.47000000000E+01 0.  1.
         13    1    4    4    0    0  0.64768890741E+02 -0.27154898040E+02 -0.12174382594E+03  0.14054877036E+03  0.00000000000E+00 0. -1.
        -14    1    4    4    0    0 -0.18881908220E+01  0.80965878684E+00 -0.15655618489E+03  0.15656966449E+03  0.00000000000E+00 0.  1.
</event>
<event>
12    1  0.8313893E-002  0.1756405E+03  0.7818608E-02  0.1172815E+00
         21   -1    0    0  501  502  0.00000000000E+00  0.00000000000E+00  0.46221089873E+02  0.46221089873E+02  0.00000000000E+00 0. -1.
         21   -1    0    0  502  503 -0.00000000000E+00 -0.00000000000E+00 -0.73852252773E+03  0.73852252773E+03  0.00000000000E+00 0. -1.
         -6    2    1    2    0  503  0.46933145329E+00 -0.23671416209E+02 -0.47432386053E+03  0.50480826662E+03  0.17113651031E+03 0.  0.
        -24    2    3    3    0    0 -0.32137197187E+02 -0.68191519781E+02 -0.33467805547E+03  0.35458088495E+03  0.89639948388E+02 0.  0.
          6    2    1    2  501    0 -0.46933145329E+00  0.23671416209E+02 -0.21797757733E+03  0.27993535099E+03  0.17403741062E+03 0.  0.
         24    2    5    5    0    0 -0.63682594261E+02 -0.10054064434E+02 -0.12026157086E+03  0.15867599028E+03  0.80985600207E+02 0.  0.
          5    1    5    5  501    0  0.63213262807E+02  0.33725480643E+02 -0.97716006470E+02  0.12125936071E+03  0.47000000000E+01 0. -1.
        -13    1    6    6    0    0 -0.52848214434E+02  0.10652705292E+02 -0.12380994322E+03  0.13503820178E+03  0.00000000000E+00 0.  1.
         14    1    6    6    0    0 -0.10834379827E+02 -0.20706769725E+02  0.35483723610E+01  0.23637788499E+02  0.00000000000E+00 0. -1.
         -5    1    3    3    0  503  0.32606528641E+02  0.44520103572E+02 -0.13964580507E+03  0.15022738167E+03  0.47000000000E+01 0.  1.
         13    1    4    4    0    0  0.46723507303E+01 -0.78630251372E+02 -0.21847848067E+03  0.23224425463E+03  0.00000000000E+00 0. -1.
        -14    1    4    4    0    0 -0.36809547918E+02  0.10438731591E+02 -0.11619957479E+03  0.12233663031E+03  0.00000000000E+00 0.  1.
</event>
<event>
12    1  0.8313893E-002  0.1947015E+03  0.7818608E-02  0.1154430E+00
         21   -1    0    0  503  502  0.00000000000E+00  0.00000000000E+00  0.10790961306E+04  0.10790961306E+04  0.00000000000E+00 0. -1.
         21   -1    0    0  501  503 -0.00000000000E+00 -0.00000000000E+00 -0.87576372713E+02  0.87576372713E+02  0.00000000000E+00 0. -1.
          6    2    1    2  501    0 -0.88190076410E+02  0.16964203313E+02  0.44165210179E+02  0.19964777687E+03  0.17275241025E+03 0.  0.
         24    2    3    3    0    0 -0.48195921599E+02 -0.16317510047E+02 -0.38552647264E+02  0.10181353541E+03  0.79313185461E+02 0.  0.
         -6    2    1    2    0  502  0.88190076410E+02 -0.16964203313E+02  0.94735454768E+03  0.96702472641E+03  0.17202008229E+03 0.  0.
        -24    2    5    5    0    0  0.38435295424E+01 -0.48865816451E+02  0.64351693809E+03  0.65005243126E+03  0.77791214468E+02 0.  0.
          5    1    3    3  501    0 -0.39994154811E+02  0.33281713361E+02  0.82717857443E+02  0.97834241466E+02  0.47000000000E+01 0. -1.
        -11    1    4    4    0    0 -0.29155837936E+01 -0.17519448213E+01  0.23434382493E+02  0.23679954019E+02  0.00000000000E+00 0.  1.
         12    1    4    4    0    0 -0.45280337806E+02 -0.14565565226E+02 -0.61987029758E+02  0.78133581387E+02  0.00000000000E+00 0. -1.
         -5    1    5    5    0  502  0.84346546868E+02  0.31901613138E+02  0.30383760959E+03  0.31697229515E+03  0.47000000000E+01 0.  1.
         13    1    6    6    0    0  0.27307748475E+02 -0.59633629938E+02  0.42838876583E+03  0.43338068442E+03  0.00000000000E+00 0. -1.
        -14    1    6    6    0    0 -0.23464218932E+02  0.10767813487E+02  0.21512817226E+03  0.21667174684E+03  0.00000000000E+00 0.  1.
</event>
<event>
12    1  0.8313893E-002  0.1838775E+03  0.7818608E-02  0.1164803E+00
         21   -1    0    0  501  502  0.00000000000E+00  0.00000000000E+00  0.81464957196E+02  0.81464957196E+02  0.00000000000E+00 0. -1.
         21   -1    0    0  502  503 -0.00000000000E+00 -0.00000000000E+00 -0.22001987888E+04  0.22001987888E+04  0.00000000000E+00 0. -1.
         -6    2    1    2    0  503  0.20829596398E+02  0.52314908050E+02 -0.20904740704E+04  0.20985453934E+04  0.17504344442E+03 0.  0.
        -24    2    3    3    0    0  0.42283657947E+02  0.65084468877E+02 -0.78649125623E+03  0.79431511921E+03  0.79649963378E+02 0.  0.
          6    2    1    2  501    0 -0.20829596398E+02 -0.52314908050E+02 -0.28259761141E+02  0.18311835254E+03  0.17193892883E+03 0.  0.
         24    2    5    5    0    0  0.43573926125E+02 -0.58414517148E+02  0.81843136886E+01  0.10871889330E+03  0.80261272844E+02 0.  0.
          5    1    5    5  501    0 -0.64403522524E+02  0.60996090981E+01 -0.36444074830E+02  0.74399459237E+02  0.47000000000E+01 0. -1.
        -11    1    6    6    0    0  0.26586809599E+02 -0.34458805747E+02 -0.35442397309E+02  0.56128702685E+02  0.00000000000E+00 0.  1.
         12    1    6    6    0    0  0.16987116527E+02 -0.23955711401E+02  0.43626710997E+02  0.52590190616E+02  0.00000000000E+00 0. -1.
         -5    1    3    3    0  503 -0.21454061549E+02 -0.12769560827E+02 -0.13039828142E+04  0.13042302742E+04  0.47000000000E+01 0.  1.
         11    1    4    4    0    0  0.28296716749E+02 -0.10784130597E+02 -0.32630027614E+03  0.32770241357E+03  0.00000000000E+00 0. -1.
        -12    1    4    4    0    0  0.13986941198E+02  0.75868599474E+02 -0.46019098009E+03  0.46661270564E+03  0.00000000000E+00 0.  1.
</event>
<event>
12    1  0.8313893E-002  0.2488135E+03  0.7818608E-02  0.1114173E+00
         21   -1    0    0  503  502  0.00000000000E+00  0.00000000000E+00  0.37722421267E+03  0.37722421267E+03  0.00000000000E+00 0. -1.
         21   -1    0    0  501  503 -0.00000000000E+00 -0.00000000000E+00 -0.20516953751E+03  0.20516953751E+03  0.00000000000E+00 0.  1.
          6    2    1    2  501    0  0.27468305420E+02  0.17787308657E+03  0.21714525029E+03  0.33024264767E+03  0.17179873074E+03 0.  0.
         24    2    3    3    0    0  0.57635929285E+01  0.18116142219E+03  0.12237599883E+03  0.23285061145E+03  0.79942743688E+02 0.  0.
         -6    2    1    2    0  502 -0.27468305420E+02 -0.17787308657E+03 -0.45090575135E+02  0.25215110252E+03  0.17074447519E+03 0.  0.
        -24    2    5    5    0    0 -0.31937956652E+02 -0.79264364882E+02 -0.85847378323E+02  0.14525458816E+03  0.80163897126E+02 0.  0.
          5    1    3    3  501    0  0.21704712492E+02 -0.32883356211E+01  0.94769251466E+02  0.97392036219E+02  0.47000000000E+01 0. -1.
        -13    1    4    4    0    0  0.18075300877E+02  0.35325324615E+02 -0.34664672821E+01  0.39832291629E+02  0.00000000000E+00 0.  1.
         14    1    4    4    0    0 -0.12311707949E+02  0.14583609758E+03  0.12584246611E+03  0.19301831982E+03  0.00000000000E+00 0. -1.
         -5    1    5    5    0  502  0.44696512320E+01 -0.98608721689E+02  0.40756803187E+02  0.10689651436E+03  0.47000000000E+01 0.  1.
         13    1    6    6    0    0  0.17012279933E+02 -0.16293443616E+02  0.52923982396E+01  0.24143393559E+02  0.00000000000E+00 0. -1.
        -14    1    6    6    0    0 -0.48950236586E+02 -0.62970921265E+02 -0.91139776562E+02  0.12111119460E+03  0.00000000000E+00 0.  1.
</event>
<event>
12    1  0.8313893E-002  0.1795317E+03  0.7818608E-02  0.1168842E+00
         21   -1    0    0  501  502  0.00000000000E+00  0.00000000000E+00  0.36351916343E+03  0.36351916343E+03  0.00000000000E+00 0.  1.
         21   -1    0    0  502  503 -0.00000000000E+00 -0.00000000000E+00 -0.91004706532E+02  0.91004706532E+02  0.00000000000E+00 0.  1.
         -6    2    1    2    0  503 -0.18267378534E+02  0.37109841067E+02  0.18180507946E+03  0.25550874493E+03  0.17470201600E+03 0.  0.
        -24    2    3    3    0    0 -0.68951731595E+02 -0.69472101750E+01  0.14279358024E+03  0.17770183983E+03  0.79908274301E+02 0.  0.
          6    2    1    2  501    0  0.18267378534E+02 -0.37109841067E+02  0.90709377433E+02  0.19901512503E+03  0.17224398803E+03 0.  0.
         24    2    5    5    0    0 -0.45637228726E+02 -0.16368659297E+02  0.11484725733E+02  0.95031323949E+02  0.80921962120E+02 0.  0.
          5    1    5    5  501    0  0.63904607259E+02 -0.20741181770E+02  0.79224651700E+02  0.10398380108E+03  0.47000000000E+01 0. -1.
        -11    1    6    6    0    0 -0.21427742142E+02 -0.30143225769E+02  0.40476044989E+02  0.54827661003E+02  0.00000000000E+00 0.  1.
         12    1    6    6    0    0 -0.24209486584E+02  0.13774566473E+02 -0.28991319255E+02  0.40203662946E+02  0.00000000000E+00 0. -1.
         -5    1    3    3    0  503  0.50684353062E+02  0.44057051242E+02  0.39011499217E+02  0.77806905096E+02  0.47000000000E+01 0.  1.
         11    1    4    4    0    0 -0.52427161892E+02  0.27679039122E+00  0.14952646354E+03  0.15845140333E+03  0.00000000000E+00 0. -1.
        -12    1    4    4    0    0 -0.16524569703E+02 -0.72240005662E+01 -0.67328832998E+01  0.19250436504E+02  0.00000000000E+00 0.  1.
</event>
<event>
12    1  0.8313893E-002  0.2316176E+03  0.7818608E-02  0.1125612E+00
         21   -1    0    0  501  502  0.00000000000E+00  0.00000000000E+00  0.88728927868E+03  0.88728927868E+03  0.00000000000E+00 0.  1.
         21   -1    0    0  502  503 -0.00000000000E+00 -0.00000000000E+00 -0.91539467509E+02  0.91539467509E+02  0.00000000000E+00 0.  1.
         -6    2    1    2    0  503 -0.50770002494E+02  0.14602363214E+03  0.11164241369E+03  0.25657558339E+03  0.17165811126E+03 0.  0.
        -24    2    3    3    0    0  0.34261788584E+02  0.74356665903E+02  0.83676698195E+02  0.14181177905E+03  0.80037534544E+02 0.  0.
          6    2    1    2  501    0  0.50770002494E+02 -0.14602363214E+03  0.68410739748E+03  0.72225316280E+03  0.17247088329E+03 0.  0.
         24    2    5    5    0    0 -0.49566336149E+00 -0.10808429957E+03  0.60920677123E+03  0.62376582724E+03  0.79173579087E+02 0.  0.
          5    1    5    5  501    0  0.51265665855E+02 -0.37939332575E+02  0.74900626252E+02  0.98487335555E+02  0.47000000000E+01 0. -1.
        -11    1    6    6    0    0 -0.31925480841E+02 -0.90035282736E+02  0.38657835373E+03  0.39820649422E+03  0.00000000000E+00 0.  1.
         12    1    6    6    0    0  0.31429817479E+02 -0.18049016832E+02  0.22262841750E+03  0.22555933302E+03  0.00000000000E+00 0. -1.
         -5    1    3    3    0  503 -0.85031791078E+02  0.71666966240E+02  0.27965715495E+02  0.11476380434E+03  0.47000000000E+01 0.  1.
         11    1    4    4    0    0 -0.91938157239E+01  0.18258487188E+02  0.65421082430E+02  0.68540620279E+02  0.00000000000E+00 0. -1.
        -12    1    4    4    0    0  0.43455604308E+02  0.56098178715E+02  0.18255615765E+02  0.73271158773E+02  0.00000000000E+00 0.  1.
</event>
<event>
12    1  0.8313893E-002  0.2142396E+03  0.7818608E-02  0.1139225E+00
         21   -1    0    0  503  502  0.00000000000E+00  0.00000000000E+00  0.41070174096E+03  0.41070174096E+03  0.00000000000E+00 0. -1.
         21   -1    0    0  501  503 -0.00000000000E+00 -0.00000000000E+00 -0.30883561292E+03  0.30883561292E+03  0.00000000000E+00 0. -1.
          6    2    1    2  501    0 -0.12831356467E+03  0.46777319828E+01 -0.23812083722E+03  0.32031259637E+03  0.17150036215E+03 0.  0.
         24    2    3    3    0    0 -0.76919056537E+02 -0.65758201919E+02 -0.14189452152E+03  0.19037334101E+03  0.76598115840E+02 0.  0.
         -6    2    1    2    0  502  0.12831356467E+03 -0.46777319828E+01  0.33998696526E+03  0.39922475750E+03  0.16523625025E+03 0.  0.
        -24    2    5    5    0    0  0.86671274558E+01  0.27136767388E+02  0.15272126017E+03  0.17468530304E+03  0.79872702125E+02 0.  0.
          5    1    3    3  501    0 -0.51394508135E+02  0.70435933902E+02 -0.96226315700E+02  0.12993925536E+03  0.47000000000E+01 0. -1.
        -11    1    4    4    0    0 -0.54413171734E+02 -0.12838930096E+02 -0.27426720380E+02  0.62272436720E+02  0.00000000000E+00 0.  1.
         12    1    4    4    0    0 -0.22505884803E+02 -0.52919271823E+02 -0.11446780114E+03  0.12810090429E+03  0.00000000000E+00 0. -1.
         -5    1    5    5    0  502  0.11964643722E+03 -0.31814499371E+02  0.18726570509E+03  0.22453945447E+03  0.47000000000E+01 0.  1.
         13    1    6    6    0    0  0.32529578736E+01 -0.27801059971E+02  0.36296405188E+02  0.45835681516E+02  0.00000000000E+00 0. -1.
        -14    1    6    6    0    0  0.54141695822E+01  0.54937827359E+02  0.11642485499E+03  0.12884962152E+03  0.00000000000E+00 0.  1.
</event>
<event>
12    1  0.8313893E-002  0.1929826E+03  0.7818608E-02  0.1155954E+00
         21   -1    0    0  503  502  0.00000000000E+00  0.00000000000E+00  0.96693805791E+02  0.96693805791E+02  0.00000000000E+00 0.  1.
         21   -1    0    0  501  503 -0.00000000000E+00 -0.00000000000E+00 -0.98585385855E+03  0.98585385855E+03  0.00000000000E+00 0.  1.
          6    2    1    2  501    0 -0.38172235223E+02 -0.77829703555E+02 -0.86790122695E+03  0.88909775429E+03  0.17241721100E+03 0.  0.
         24    2    3    3    0    0 -0.24537415380E+01 -0.10772687068E+03 -0.75690099503E+03  0.76862870068E+03  0.79245591122E+02 0.  0.
         -6    2    1    2    0  502  0.38172235223E+02  0.77829703555E+02 -0.21258825804E+02  0.19344991004E+03  0.17162851664E+03 0.  0.
        -24    2    5    5    0    0  0.18600014039E+01  0.95133042203E+02  0.30775916851E+02  0.12751290756E+03  0.79111498610E+02 0.  0.
          5    1    3    3  501    0 -0.35718493685E+02  0.29897167122E+02 -0.11100023192E+03  0.12046905362E+03  0.47000000000E+01 0. -1.
        -11    1    4    4    0    0 -0.33600860069E+02 -0.93773224957E+02 -0.55854657445E+03  0.56735941990E+03  0.00000000000E+00 0.  1.
         12    1    4    4    0    0  0.31147118531E+02 -0.13953645720E+02 -0.19835442058E+03  0.20126928078E+03  0.00000000000E+00 0. -1.
         -5    1    5    5    0  502  0.36312233819E+02 -0.17303338647E+02 -0.52034742655E+02  0.65937002483E+02  0.47000000000E+01 0.  1.
         13    1    6    6    0    0 -0.29466235887E+02  0.14293425002E+02  0.23900361204E+02  0.40543659446E+02  0.00000000000E+00 0. -1.
        -14    1    6    6    0    0  0.31326237291E+02  0.80839617201E+02  0.68755556479E+01  0.86969248113E+02  0.00000000000E+00 0.  1.
</event>
<event>
12    1  0.8313893E-002  0.1916823E+03  0.7818608E-02  0.1157167E+00
         21   -1    0    0  501  502  0.00000000000E+00  0.00000000000E+00  0.66767516792E+02  0.66767516792E+02  0.00000000000E+00 0.  1.
         21   -1    0    0  502  503 -0.00000000000E+00 -0.00000000000E+00 -0.13874922464E+04  0.13874922464E+04  0.00000000000E+00 0.  1.
         -6    2    1    2    0  503 -0.15683375443E+02  0.83790014367E+02 -0.12254547774E+04  0.12402072313E+04  0.17061017024E+03 0.  0.
        -24    2    3    3    0    0 -0.72354301100E+02  0.27707744310E+02 -0.70832784643E+03  0.71694900860E+03  0.79275966804E+02 0.  0.
          6    2    1    2  501    0  0.15683375443E+02 -0.83790014367E+02 -0.95269952108E+02  0.21405253186E+03  0.17168397667E+03 0.  0.
         24    2    5    5    0    0  0.32837069500E+02  0.16918324855E+02 -0.26980945758E+02  0.91081408429E+02  0.78761339997E+02 0.  0.
          5    1    5    5  501    0 -0.17153694057E+02 -0.10070833922E+03 -0.68289006350E+02  0.12297112343E+03  0.47000000000E+01 0. -1.
        -13    1    6    6    0    0  0.43041519686E+01 -0.23121960438E+02  0.13742494587E+02  0.27239804260E+02  0.00000000000E+00 0.  1.
         14    1    6    6    0    0  0.28532917532E+02  0.40040285294E+02 -0.40723440345E+02  0.63841604168E+02  0.00000000000E+00 0. -1.
         -5    1    3    3    0  503  0.56670925657E+02  0.56082270058E+02 -0.51712693102E+03  0.52325822269E+03  0.47000000000E+01 0.  1.
         11    1    4    4    0    0 -0.14192762258E+02 -0.13945544258E+02 -0.38746608170E+02  0.43557001157E+02  0.00000000000E+00 0. -1.
        -12    1    4    4    0    0 -0.58161538843E+02  0.41653288568E+02 -0.66958123826E+03  0.67339200744E+03  0.00000000000E+00 0.  1.
</event>
<event>
12    1  0.8313893E-002  0.1729584E+03  0.7818608E-02  0.1174966E+00
         21   -1    0    0  503  502  0.00000000000E+00  0.00000000000E+00  0.45339901787E+03  0.45339901787E+03  0.00000000000E+00 0.  1.
         21   -1    0    0  501  503 -0.00000000000E+00 -0.00000000000E+00 -0.23789191690E+03  0.23789191690E+03  0.00000000000E+00 0.  1.
          6    2    1    2  501    0  0.93953575085E+01  0.22825414285E+02 -0.18623371061E+03  0.25416057540E+03  0.17118799852E+03 0.  0.
         24    2    3    3    0    0 -0.49102497380E+02  0.17265427708E+02 -0.16512054020E+03  0.19154453558E+03  0.81947337190E+02 0.  0.
         -6    2    1    2    0  502 -0.93953575085E+01 -0.22825414285E+02  0.40174081159E+03  0.43713035937E+03  0.17052272314E+03 0.  0.
        -24    2    5    5    0    0  0.57562893181E+02 -0.17974844356E+01  0.18630821261E+03  0.21050539192E+03  0.79278321880E+02 0.  0.
          5    1    3    3  501    0  0.58497854888E+02  0.55599865770E+01 -0.21113170413E+02  0.62616039815E+02  0.47000000000E+01 0. -1.
        -11    1    4    4    0    0 -0.46709622819E+02 -0.26194918871E+02 -0.90809381616E+02  0.10542441097E+03  0.00000000000E+00 0.  1.
         12    1    4    4    0    0 -0.23928745603E+01  0.43460346578E+02 -0.74311158583E+02  0.86120124613E+02  0.00000000000E+00 0. -1.
         -5    1    5    5    0  502 -0.66958250690E+02 -0.21027929849E+02  0.21543259898E+03  0.22662496745E+03  0.47000000000E+01 0.  1.
         13    1    6    6    0    0 -0.74625190255E+01  0.26076017477E+02  0.47105834394E+02  0.54356301490E+02  0.00000000000E+00 0. -1.
        -14    1    6    6    0    0  0.65025412207E+02 -0.27873501913E+02  0.13920237822E+03  0.15614909043E+03  0.00000000000E+00 0.  1.
</event>
<event>
12    1  0.8313893E-002  0.1892109E+03  0.7818608E-02  0.1159233E+00
         21   -1    0    0  503  502  0.00000000000E+00  0.00000000000E+00  0.10422055672E+03  0.10422055672E+03  0.00000000000E+00 0.  1.
         21   -1    0    0  501  503 -0.00000000000E+00 -0.00000000000E+00 -0.35264372658E+03  0.35264372658E+03  0.00000000000E+00 0.  1.
          6    2    1    2  501    0 -0.36998650822E+02  0.69204820439E+02 -0.16181594121E+03  0.24877395092E+03  0.17188912849E+03 0.  0.
         24    2    3    3    0    0 -0.70390555120E+02  0.35599137053E+02 -0.45130345335E+02  0.12275022493E+03  0.82515094622E+02 0.  0.
         -6    2    1    2    0  502  0.36998650822E+02 -0.69204820439E+02 -0.86607228651E+02  0.20809033238E+03  0.17217016884E+03 0.  0.
        -24    2    5    5    0    0  0.23990608713E+02 -0.10475804595E+03 -0.10087926093E+03  0.16735923972E+03  0.79263436312E+02 0.  0.
          5    1    3    3  501    0  0.33391904298E+02  0.33605683387E+02 -0.11668559588E+03  0.12602372600E+03  0.47000000000E+01 0. -1.
        -11    1    4    4    0    0 -0.69559262558E+02  0.54110316254E+02 -0.18081469950E+02  0.89963086254E+02  0.00000000000E+00 0.  1.
         12    1    4    4    0    0 -0.83129256128E+00 -0.18511179202E+02 -0.27048875385E+02  0.32787138672E+02  0.00000000000E+00 0. -1.
         -5    1    5    5    0  502  0.13008042108E+02  0.35553225513E+02  0.14272032276E+02  0.40731092658E+02  0.47000000000E+01 0.  1.
         11    1    6    6    0    0 -0.13631187455E+02 -0.74149424389E+02 -0.29276916286E+02  0.80876969750E+02  0.00000000000E+00 0. -1.
        -12    1    6    6    0    0  0.37621796169E+02 -0.30608621563E+02 -0.71602344641E+02  0.86482269969E+02  0.00000000000E+00 0.  1.
</event>
<event>
12    1  0.8313893E-002  0.2116381E+03  0.7818608E-02  0.1140321E+00
         21   -1    0    0  501  502  0.00000000000E+00  0.00000000000E+00  0.32010142632E+03  0.32010142632E+03  0.00000000000E+00 0. -1.
         21   -1    0    0  502  503 -0.00000000000E+00 -0.00000000000E+00 -0.18552902670E+03  0.18552902670E+03  0.00000000000E+00 0.  1.
         -6    2    1    2    0  503 -0.44277229307E+02 -0.11509191641E+03 -0.58295262945E+02  0.21929389629E+03  0.17171154012E+03 0.  0.
        -24    2    3    3    0    0 -0.16468047027E+02 -0.28579069773E+01  0.11804494610E+02  0.83994637232E+02  0.81464033693E+02 0.  0.
          6    2    1    2  501    0  0.44277229307E+02  0.11509191641E+03  0.19286766257E+03  0.28633655673E+03  0.17200019242E+03 0.  0.
         24    2    5    5    0    0  0.63797076994E+02  0.14337823890E+02  0.13147771129E+03  0.16665686867E+03  0.78819306540E+02 0.  0.
          5    1    5    5  501    0 -0.19519847686E+02  0.10075409252E+03  0.61389951288E+02  0.11967968806E+03  0.47000000000E+01 0. -1.
        -13    1    6    6    0    0  0.68224982599E+02  0.33664910428E+02  0.75131797787E+02  0.10692409216E+03  0.00000000000E+00 0.  1.
         14    1    6    6    0    0 -0.44279056056E+01 -0.19327086538E+02  0.56345913499E+02  0.59732776515E+02  0.00000000000E+00 0. -1.
         -5    1    3    3    0  503 -0.27809182280E+02 -0.11223400944E+03 -0.70099757555E+02  0.13529925906E+03  0.47000000000E+01 0.  1.
         11    1    4    4    0    0  0.28687097521E+02 -0.18091386024E+02 -0.31156432189E+01  0.34058112765E+02  0.00000000000E+00 0. -1.
        -12    1    4    4    0    0 -0.45155144548E+02  0.15233479047E+02  0.14920137828E+02  0.49936524467E+02  0.00000000000E+00 0.  1.
</event>
<event>
12    1  0.8313893E-002  0.1771601E+03  0.7818608E-02  0.1172736E+00
         21   -1    0    0  503  502  0.00000000000E+00  0.00000000000E+00  0.63746838504E+02  0.63746838504E+02  0.00000000000E+00 0.  1.
         21   -1    0    0  501  503 -0.00000000000E+00 -0.00000000000E+00 -0.50985329748E+03  0.50985329748E+03  0.00000000000E+00 0.  1.
          6    2    1    2  501    0  0.10901858918E+02 -0.74256777890E+01 -0.29916132070E+03  0.34342940760E+03  0.16814360226E+03 0.  0.
         24    2    3    3    0    0 -0.49541685087E+02  0.27790031427E+02 -0.18679144351E+03  0.21098074779E+03  0.79969795287E+02 0.  0.
         -6    2    1    2    0  502 -0.10901858918E+02  0.74256777890E+01 -0.14694513828E+03  0.23017072838E+03  0.17666833141E+03 0.  0.
        -24    2    5    5    0    0  0.20719165858E+02 -0.57584117660E+02 -0.17163890412E+02  0.81538884524E+02  0.51076179523E+02 0.  0.
          5    1    3    3  501    0  0.60443544006E+02 -0.35215709216E+02 -0.11236987718E+03  0.13244865981E+03  0.47000000000E+01 0. -1.
        -11    1    4    4    0    0 -0.28604256873E+02 -0.22429145657E+02 -0.11682121605E+03  0.12234568487E+03  0.00000000000E+00 0.  1.
         12    1    4    4    0    0 -0.20937428215E+02  0.50219177084E+02 -0.69970227462E+02  0.88635062917E+02  0.00000000000E+00 0. -1.
         -5    1    5    5    0  502 -0.31621024776E+02  0.65009795449E+02 -0.12978124786E+03  0.14863184386E+03  0.47000000000E+01 0.  1.
         11    1    6    6    0    0  0.11633326681E+02 -0.73004396294E+01 -0.26262717309E+02  0.29637156221E+02  0.00000000000E+00 0. -1.
        -12    1    6    6    0    0  0.90858391772E+01 -0.50283678031E+02  0.90988268968E+01  0.51901728302E+02  0.00000000000E+00 0.  1.
</event>
<event>
12    1  0.8313893E-002  0.3669247E+03  0.7818608E-02  0.1055920E+00
         21   -1    0    0  503  502  0.00000000000E+00  0.00000000000E+00  0.27960825152E+03  0.27960825152E+03  0.00000000000E+00 0.  1.
         21   -1    0    0  501  503 -0.00000000000E+00 -0.00000000000E+00 -0.55316648440E+03  0.55316648440E+03  0.00000000000E+00 0. -1.
          6    2    1    2  501    0  0.29782808656E+03  0.12769703437E+03 -0.28735391660E+03  0.46605366153E+03  0.17212100484E+03 0.  0.
         24    2    3    3    0    0  0.24192174215E+03  0.72357921984E+02 -0.14002147417E+03  0.29897022340E+03  0.77558900531E+02 0.  0.
         -6    2    1    2    0  502 -0.29782808656E+03 -0.12769703437E+03  0.13795683708E+02  0.36672107440E+03  0.17113130568E+03 0.  0.
        -24    2    5    5    0    0 -0.12980924963E+03 -0.76319153172E+02 -0.52359520572E+02  0.17892166733E+03  0.81218158162E+02 0.  0.
          5    1    3    3  501    0  0.55906344412E+02  0.55339112391E+02 -0.14733244243E+03  0.16708343813E+03  0.47000000000E+01 0. -1.
        -11    1    4    4    0    0  0.19315282938E+03  0.86723252582E+02 -0.99429500350E+02  0.23391272641E+03  0.00000000000E+00 0.  1.
         12    1    4    4    0    0  0.48768912766E+02 -0.14365330599E+02 -0.40591973821E+02  0.65057496988E+02  0.00000000000E+00 0. -1.
         -5    1    5    5    0  502 -0.16801883693E+03 -0.51377881202E+02  0.66155204281E+02  0.18779940707E+03  0.47000000000E+01 0.  1.
         13    1    6    6    0    0 -0.12466714044E+03 -0.77464930035E+02 -0.68478940251E+02  0.16196319504E+03  0.00000000000E+00 0. -1.
        -14    1    6    6    0    0 -0.51421091900E+01  0.11457768626E+01  0.16119419678E+02  0.16958472287E+02  0.00000000000E+00 0.  1.
</event>
<event>
12    1  0.8313893E-002  0.1805204E+03  0.7818608E-02  0.1168296E+00
         21   -1    0    0  501  502  0.00000000000E+00  0.00000000000E+00  0.82043070834E+02  0.82043070834E+02  0.00000000000E+00 0. -1.
         21   -1    0    0  502  503 -0.00000000000E+00 -0.00000000000E+00 -0.39460097349E+03  0.39460097349E+03  0.00000000000E+00 0. -1.
         -6    2    1    2    0  503 -0.31810016875E+01  0.51192985287E+02 -0.18821846885E+03  0.26079455486E+03  0.17308023375E+03 0.  0.
        -24    2    3    3    0    0 -0.43661596816E+02 -0.26762337787E+02 -0.10935460063E+03  0.14265349219E+03  0.75954146664E+02 0.  0.
          6    2    1    2  501    0  0.31810016875E+01 -0.51192985287E+02 -0.12433943380E+03  0.21584948946E+03  0.16881903562E+03 0.  0.
         24    2    5    5    0    0  0.72746816749E+00  0.63972318843E+01 -0.28805586398E+01  0.81324394048E+02  0.81017934208E+02 0.  0.
          5    1    5    5  501    0  0.24535335200E+01 -0.57590217171E+02 -0.12145887516E+03  0.13452509541E+03  0.47000000000E+01 0. -1.
        -13    1    6    6    0    0 -0.32758412466E+02  0.10370543406E+02  0.20757287864E+02  0.40143825892E+02  0.00000000000E+00 0.  1.
         14    1    6    6    0    0  0.33485880633E+02 -0.39733115219E+01 -0.23637846503E+02  0.41180568155E+02  0.00000000000E+00 0. -1.
         -5    1    3    3    0  503  0.40480595129E+02  0.77955323074E+02 -0.78863868229E+02  0.11814106267E+03  0.47000000000E+01 0.  1.
         11    1    4    4    0    0  0.62206149402E+01  0.97381865205E+01  0.50565484101E+01  0.12613366274E+02  0.00000000000E+00 0. -1.
        -12    1    4    4    0    0 -0.49882211757E+02 -0.36500524307E+02 -0.11441114904E+03  0.13004012591E+03  0.00000000000E+00 0.  1.
</event>
<event>
12    1  0.8313893E-002  0.1949097E+03  0.7818608E-02  0.1154264E+00
         21   -1    0    0  501  502  0.00000000000E+00  0.00000000000E+00  0.16373467283E+03  0.16373467283E+03  0.00000000000E+00 0. -1.
         21   -1    0    0  502  503 -0.00000000000E+00 -0.00000000000E+00 -0.24071971494E+03  0.24071971494E+03  0.00000000000E+00 0.  1.
         -6    2    1    2    0  503  0.61007276374E+02 -0.67291395475E+02 -0.78860916885E+02  0.21025894083E+03  0.17245219138E+03 0.  0.
        -24    2    3    3    0    0  0.10389825191E+03 -0.19139499068E+02 -0.58301086974E+02  0.14241325183E+03  0.75639608530E+02 0.  0.
          6    2    1    2  501    0 -0.61007276374E+02  0.67291395475E+02  0.18758747748E+01  0.19419544695E+03  0.17163430028E+03 0.  0.
         24    2    5    5    0    0 -0.85238156982E+02 -0.53887411655E+01 -0.86962475098E+01  0.11671385167E+03  0.79069061670E+02 0.  0.
          5    1    5    5  501    0  0.24230880609E+02  0.72680136640E+02  0.10572122285E+02  0.77481595277E+02  0.47000000000E+01 0. -1.
        -11    1    6    6    0    0 -0.39827279789E+02 -0.18975396816E+02 -0.40293195280E+02  0.59747966372E+02  0.00000000000E+00 0.  1.
         12    1    6    6    0    0 -0.45410877193E+02  0.13586655650E+02  0.31596947770E+02  0.56965885296E+02  0.00000000000E+00 0. -1.
         -5    1    3    3    0  503 -0.42890975541E+02 -0.48151896407E+02 -0.20559829912E+02  0.67845689004E+02  0.47000000000E+01 0.  1.
         11    1    4    4    0    0  0.18105382824E+02 -0.18198578768E+02  0.14856452151E+02  0.29659860534E+02  0.00000000000E+00 0. -1.
        -12    1    4    4    0    0  0.85792869090E+02 -0.94092030012E+00 -0.73157539124E+02  0.11275339129E+03  0.00000000000E+00 0.  1.
</event>
<event>
12    1  0.8313893E-002  0.1732291E+03  0.7818608E-02  0.1174978E+00
         21   -1    0    0  501  502  0.00000000000E+00  0.00000000000E+00  0.43490027261E+03  0.43490027261E+03  0.00000000000E+00 0.  1.
         21   -1    0    0  502  503 -0.00000000000E+00 -0.00000000000E+00 -0.10373571163E+03  0.10373571163E+03  0.00000000000E+00 0.  1.
         -6    2    1    2    0  503  0.98844549999E+01 -0.47050796788E+01  0.75956133420E+01  0.17161394242E+03  0.17109591364E+03 0.  0.
        -24    2    3    3    0    0 -0.28961276511E+02  0.52722298436E+02 -0.70870037811E+01  0.10058884925E+03  0.80308745981E+02 0.  0.
          6    2    1    2  501    0 -0.98844549999E+01  0.47050796788E+01  0.32356894764E+03  0.36702204182E+03  0.17288283627E+03 0.  0.
         24    2    5    5    0    0 -0.36067234191E+02  0.38149513759E+02  0.30711038035E+03  0.32122856483E+03  0.78197022746E+02 0.  0.
          5    1    5    5  501    0  0.26182779191E+02 -0.33444434080E+02  0.16458567296E+02  0.45793476987E+02  0.47000000000E+01 0. -1.
        -13    1    6    6    0    0 -0.15775131912E+02 -0.15291276264E+02  0.18613932985E+03  0.18743139554E+03  0.00000000000E+00 0.  1.
         14    1    6    6    0    0 -0.20292102279E+02  0.53440790023E+02  0.12097105050E+03  0.13379716930E+03  0.00000000000E+00 0. -1.
         -5    1    3    3    0  503  0.38845731511E+02 -0.57427378115E+02  0.14682617123E+02  0.71025093167E+02  0.47000000000E+01 0.  1.
         13    1    4    4    0    0 -0.35616540389E+02  0.14995914746E+02  0.28722254852E+02  0.48149593271E+02  0.00000000000E+00 0. -1.
        -14    1    4    4    0    0  0.66552638774E+01  0.37726383690E+02 -0.35809258633E+02  0.52439255978E+02  0.00000000000E+00 0.  1.
</event>
<event>
12    1  0.8313893E-002  0.2108531E+03  0.7818608E-02  0.1143115E+00
         21   -1    0    0  501  502  0.00000000000E+00  0.00000000000E+00  0.73330855305E+03  0.73330855305E+03  0.00000000000E+00 0. -1.
         21   -1    0    0  502  503 -0.00000000000E+00 -0.00000000000E+00 -0.14082910862E+03  0.14082910862E+03  0.00000000000E+00 0. -1.
         -6    2    1    2    0  503 -0.72140322921E+02  0.10146071368E+03 -0.36652843541E+02  0.21401513146E+03  0.17017797431E+03 0.  0.
        -24    2    3    3    0    0 -0.11457257228E+03  0.52725323141E+02 -0.23378575730E+02  0.14787943563E+03  0.73586246408E+02 0.  0.
          6    2    1    2  501    0  0.72140322921E+02 -0.10146071368E+03  0.62913228797E+03  0.66012253022E+03  0.15638355578E+03 0.  0.
         24    2    5    5    0    0 -0.14076980569E+02 -0.50267537653E+02  0.37501036059E+03  0.38689330654E+03  0.79552959562E+02 0.  0.
          5    1    5    5  501    0  0.86217303489E+02 -0.51193176030E+02  0.25412192739E+03  0.27322922368E+03  0.47000000000E+01 0. -1.
        -11    1    6    6    0    0 -0.21172686926E+02  0.11752017992E+02  0.19218470353E+03  0.19370429234E+03  0.00000000000E+00 0.  1.
         12    1    6    6    0    0  0.70957063577E+01 -0.62019555645E+02  0.18282565706E+03  0.19318901420E+03  0.00000000000E+00 0. -1.
         -5    1    3    3    0  503  0.42432249357E+02  0.48735390541E+02 -0.13274267811E+02  0.66135695827E+02  0.47000000000E+01 0.  1.
         11    1    4    4    0    0 -0.51644551460E+02 -0.10037956931E+02  0.88284051045E+01  0.53346611997E+02  0.00000000000E+00 0. -1.
        -12    1    4    4    0    0 -0.62928020817E+02  0.62763280073E+02 -0.32206980835E+02  0.94532823633E+02  0.00000000000E+00 0.  1.
</event>
<event>
12    1  0.8313893E-002  0.1726130E+03  0.7818608E-02  0.1175192E+00
         21   -1    0    0  501  502  0.00000000000E+00  0.00000000000E+00  0.13852753202E+03  0.13852753202E+03  0.00000000000E+00 0. -1.
         21   -1    0    0  502  503 -0.00000000000E+00 -0.00000000000E+00 -0.21806350389E+03  0.21806350389E+03  0.00000000000E+00 0. -1.
         -6    2    1    2    0  503  0.14462235249E+02 -0.11338158361E+02 -0.18250255183E+02  0.17357507203E+03  0.17163194263E+03 0.  0.
        -24    2    3    3    0    0 -0.26774387308E+02  0.10342060979E+02 -0.65903552852E+02  0.10676625727E+03  0.78942570087E+02 0.  0.
          6    2    1    2  501    0 -0.14462235249E+02  0.11338158361E+02 -0.61285716691E+02  0.18301596388E+03  0.17146776339E+03 0.  0.
         24    2    5    5    0    0  0.52168894947E+02  0.31604836517E+02 -0.33461652829E+02  0.10787134142E+03  0.82438369701E+02 0.  0.
          5    1    5    5  501    0 -0.66631130196E+02 -0.20266678156E+02 -0.27824063862E+02  0.75144622458E+02  0.47000000000E+01 0. -1.
        -13    1    6    6    0    0 -0.14570253119E+01  0.45739119292E+02 -0.65483156931E+01  0.46228458711E+02  0.00000000000E+00 0.  1.
         14    1    6    6    0    0  0.53625920259E+02 -0.14134282775E+02 -0.26913337136E+02  0.61642882712E+02  0.00000000000E+00 0. -1.
         -5    1    3    3    0  503  0.41236622557E+02 -0.21680219340E+02  0.47653297669E+02  0.66808814757E+02  0.47000000000E+01 0.  1.
         13    1    4    4    0    0 -0.17260470753E+01 -0.79255386190E+01  0.16684176841E+02  0.18551419293E+02  0.00000000000E+00 0. -1.
        -14    1    4    4    0    0 -0.25048340233E+02  0.18267599598E+02 -0.82587729693E+02  0.88214837978E+02  0.00000000000E+00 0.  1.
</event>
<event>
12    1  0.8313893E-002  0.1949298E+03  0.7818608E-02  0.1155370E+00
         21   -1    0    0  503  502  0.00000000000E+00  0.00000000000E+00  0.28624638520E+04  0.28624638520E+04  0.00000000000E+00 0. -1.
         21   -1    0    0  501  503 -0.00000000000E+00 -0.00000000000E+00 -0.74136822847E+02  0.74136822847E+02  0.00000000000E+00 0.  1.
          6    2    1    2  501    0  0.54427137214E+02 -0.63671682993E+02  0.63203009396E+02  0.20492009900E+03  0.17601485760E+03 0.  0.
         24    2    3    3    0    0  0.15202815203E+02 -0.47713469993E+02 -0.32663570087E+02  0.10001202943E+03  0.80173539340E+02 0.  0.
         -6    2    1    2    0  502 -0.54427137214E+02  0.63671682993E+02  0.27251240198E+04  0.27316805759E+04  0.16959200728E+03 0.  0.
        -24    2    5    5    0    0 -0.49094257812E+02  0.42137358777E+02  0.26709538982E+04  0.26729552934E+04  0.80681295177E+02 0.  0.
          5    1    3    3  501    0  0.39224322011E+02 -0.15958213000E+02  0.95866579483E+02  0.10490806957E+03  0.47000000000E+01 0. -1.
        -11    1    4    4    0    0  0.19155864688E+02 -0.42143950667E+02 -0.57748951399E+02  0.74013519828E+02  0.00000000000E+00 0.  1.
         12    1    4    4    0    0 -0.39530494851E+01 -0.55695193267E+01  0.25085381312E+02  0.25998509598E+02  0.00000000000E+00 0. -1.
         -5    1    5    5    0  502 -0.53328794020E+01  0.21534324216E+02  0.54170121607E+02  0.58725282435E+02  0.47000000000E+01 0.  1.
         11    1    6    6    0    0  0.15230882671E+02  0.26782753503E+02  0.13453904233E+04  0.13457431726E+04  0.00000000000E+00 0. -1.
        -12    1    6    6    0    0 -0.64325140483E+02  0.15354605274E+02  0.13255634749E+04  0.13272121208E+04  0.00000000000E+00 0.  1.
</event>
<event>
12    1  0.8313893E-002  0.1823728E+03  0.7818608E-02  0.1167000E+00
         21   -1    0    0  501  502  0.00000000000E+00  0.00000000000E+00  0.24337488007E+04  0.24337488007E+04  0.00000000000E+00 0.  1.
         21   -1    0    0  502  503 -0.00000000000E+00 -0.00000000000E+00 -0.21994942946E+02  0.21994942946E+02  0.00000000000E+00 0. -1.
         -6    2    1    2    0  503  0.34460514693E+02  0.44595186796E+02  0.41783202899E+03  0.45349898319E+03  0.16703731782E+03 0.  0.
        -24    2    3    3    0    0  0.70549057735E+02  0.21872012061E+02  0.17030008275E+03  0.20227621348E+03  0.80361644440E+02 0.  0.
          6    2    1    2  501    0 -0.34460514693E+02 -0.44595186796E+02  0.19939218287E+04  0.20022447604E+04  0.17344614093E+03 0.  0.
         24    2    5    5    0    0  0.14212075671E+02 -0.82134647981E+02  0.15655128356E+04  0.15694231025E+04  0.72872166493E+02 0.  0.
          5    1    5    5  501    0 -0.48672590364E+02  0.37539461185E+02  0.42840899314E+03  0.43282165797E+03  0.47000000000E+01 0. -1.
        -11    1    6    6    0    0  0.20085007783E+02 -0.34348572668E+01  0.70621416556E+03  0.70650807031E+03  0.00000000000E+00 0.  1.
         12    1    6    6    0    0 -0.58729321114E+01 -0.78699790714E+02  0.85929867005E+03  0.86291503216E+03  0.00000000000E+00 0. -1.
         -5    1    3    3    0  503 -0.36088543042E+02  0.22723174734E+02  0.24753194624E+03  0.25122276971E+03  0.47000000000E+01 0.  1.
         13    1    4    4    0    0  0.12080311852E+02  0.33727581025E+02  0.21068664145E+02  0.41561668218E+02  0.00000000000E+00 0. -1.
        -14    1    4    4    0    0  0.58468745882E+02 -0.11855568963E+02  0.14923141860E+03  0.16071454526E+03  0.00000000000E+00 0.  1.
</event>
<event>
12    1  0.8313893E-002  0.1831549E+03  0.7818608E-02  0.1166444E+00
         21   -1    0    0  503  502  0.00000000000E+00  0.00000000000E+00  0.22651348497E+03  0.22651348497E+03  0.00000000000E+00 0. -1.
         21   -1    0    0  501  503 -0.00000000000E+00 -0.00000000000E+00 -0.14258904648E+03  0.14258904648E+03  0.00000000000E+00 0. -1.
          6    2    1    2  501    0 -0.33922604532E+02 -0.54162110278E+02  0.41097070504E+02  0.18100707318E+03  0.16428729119E+03 0.  0.
         24    2    3    3    0    0  0.10702688285E+02 -0.86671239728E+02  0.46048346932E+02  0.12537555877E+03  0.77279551952E+02 0.  0.
         -6    2    1    2    0  502  0.33922604532E+02  0.54162110278E+02  0.42827367980E+02  0.18809545828E+03  0.17164335317E+03 0.  0.
        -24    2    5    5    0    0  0.88829916744E+00 -0.39679277246E+02  0.60522911677E+01  0.81925935258E+02  0.71414245928E+02 0.  0.
          5    1    3    3  501    0 -0.44625292817E+02  0.32509129449E+02 -0.49512764280E+01  0.55631514404E+02  0.47000000000E+01 0. -1.
        -11    1    4    4    0    0 -0.70191345497E+01  0.13103525697E+02  0.95415004666E+01  0.17663829332E+02  0.00000000000E+00 0.  1.
         12    1    4    4    0    0  0.17721822835E+02 -0.99774765425E+02  0.36506846465E+02  0.10771172944E+03  0.00000000000E+00 0. -1.
         -5    1    5    5    0  502  0.33034305365E+02  0.93841387524E+02  0.36775076812E+02  0.10616952302E+03  0.47000000000E+01 0.  1.
         13    1    6    6    0    0  0.24563646297E+01  0.58766921868E+01  0.29838049625E+02  0.30510300616E+02  0.00000000000E+00 0. -1.
        -14    1    6    6    0    0 -0.15680654622E+01 -0.45555969433E+02 -0.23785758458E+02  0.51415634642E+02  0.00000000000E+00 0.  1.
</event>
<event>
12    1  0.8313893E-002  0.1744801E+03  0.7818608E-02  0.1173408E+00
         21   -1    0    0  503  502  0.00000000000E+00  0.00000000000E+00  0.10313935642E+04  0.10313935642E+04  0.00000000000E+00 0.  1.
         21   -1    0    0  501  503 -0.00000000000E+00 -0.00000000000E+00 -0.30575098858E+02  0.30575098858E+02  0.00000000000E+00 0.  1.
          6    2    1    2  501    0  0.17221092191E+02  0.22779316319E+02  0.39777959062E+03  0.43436379779E+03  0.17212740297E+03 0.  0.
         24    2    3    3    0    0  0.68423320137E+02  0.31127400844E+02  0.18328279333E+03  0.21363245723E+03  0.79972361649E+02 0.  0.
         -6    2    1    2    0  502 -0.17221092191E+02 -0.22779316319E+02  0.60303887475E+03  0.62760486529E+03  0.17151244622E+03 0.  0.
        -24    2    5    5    0    0 -0.14631331874E+02  0.13100242698E+02  0.13021278239E+03  0.15338903549E+03  0.78658345272E+02 0.  0.
          5    1    3    3  501    0 -0.51202227945E+02 -0.83480845249E+01  0.21449679729E+03  0.22073134057E+03  0.47000000000E+01 0. -1.
        -13    1    4    4    0    0  0.70315452828E+02  0.41662644535E+01  0.16893699647E+03  0.18303368390E+03  0.00000000000E+00 0.  1.
         14    1    4    4    0    0 -0.18921326910E+01  0.26961136390E+02  0.14345796864E+02  0.30598773329E+02  0.00000000000E+00 0. -1.
         -5    1    5    5    0  502 -0.25897603178E+01 -0.35879559017E+02  0.47282609236E+03  0.47421582980E+03  0.47000000000E+01 0.  1.
         11    1    6    6    0    0 -0.14732175370E+01  0.22025008816E+02  0.13499362192E+03  0.13678651009E+03  0.00000000000E+00 0. -1.
        -12    1    6    6    0    0 -0.13158114337E+02 -0.89247661187E+01 -0.47808395314E+01  0.16602525404E+02  0.00000000000E+00 0.  1.
</event>
<event>
12    1  0.8313893E-002  0.2611679E+03  0.7818608E-02  0.1106642E+00
         21   -1    0    0  503  502  0.00000000000E+00  0.00000000000E+00  0.27486476296E+03  0.27486476296E+03  0.00000000000E+00 0. -1.
         21   -1    0    0  501  503 -0.00000000000E+00 -0.00000000000E+00 -0.24931817748E+03  0.24931817748E+03  0.00000000000E+00 0. -1.
          6    2    1    2  501    0  0.67675525849E+02 -0.18145284846E+03  0.38624841533E+02  0.26400861805E+03  0.17522431054E+03 0.  0.
         24    2    3    3    0    0  0.76359079052E+02 -0.96303974812E+02  0.83627292364E+02  0.16719412863E+03  0.76519200870E+02 0.  0.
         -6    2    1    2    0  502 -0.67675525849E+02  0.18145284846E+03 -0.13078256056E+02  0.26017432239E+03  0.17324700354E+03 0.  0.
        -24    2    5    5    0    0 -0.66711846183E+02  0.14799123047E+03 -0.70432584194E+02  0.19359942086E+03  0.78537329492E+02 0.  0.
          5    1    3    3  501    0 -0.86835532036E+01 -0.85148873651E+02 -0.45002450832E+02  0.96814489417E+02  0.47000000000E+01 0. -1.
        -13    1    4    4    0    0  0.40050889059E+02 -0.39357473787E+01  0.49564669349E+01  0.40547877704E+02  0.00000000000E+00 0.  1.
         14    1    4    4    0    0  0.36308189993E+02 -0.92368227434E+02  0.78670825430E+02  0.12664625093E+03  0.00000000000E+00 0. -1.
         -5    1    5    5    0  502 -0.96367966515E+00  0.33461617990E+02  0.57354328138E+02  0.66574901525E+02  0.47000000000E+01 0.  1.
         13    1    6    6    0    0 -0.65795396770E+02  0.14552237851E+03 -0.42122196655E+02  0.16516681366E+03  0.00000000000E+00 0. -1.
        -14    1    6    6    0    0 -0.91644941314E+00  0.24688519587E+01 -0.28310387539E+02  0.28432607199E+02  0.00000000000E+00 0.  1.
</event>
<event>
12    1  0.8313893E-002  0.1801349E+03  0.7818608E-02  0.1167910E+00
         21   -1    0    0  503  502  0.00000000000E+00  0.00000000000E+00  0.31311281553E+03  0.31311281553E+03  0.00000000000E+00 0.  1.
         21   -1    0    0  501  503 -0.00000000000E+00 -0.00000000000E+00 -0.15477520714E+03  0.15477520714E+03  0.00000000000E+00 0.  1.
          6    2    1    2  501    0  0.32530862142E+02  0.39887131422E+02 -0.56191292212E+02  0.18776085976E+03  0.17160256086E+03 0.  0.
         24    2    3    3    0    0  0.68465906212E+02  0.54823731208E+02  0.26560874305E+00  0.11903021834E+03  0.80466766507E+02 0.  0.
         -6    2    1    2    0  502 -0.32530862142E+02 -0.39887131422E+02  0.21452890061E+03  0.28012716291E+03  0.17262484745E+03 0.  0.
        -24    2    5    5    0    0  0.13487316205E+02 -0.48067668502E+02  0.21222401329E+03  0.23309529679E+03  0.82474099659E+02 0.  0.
          5    1    3    3  501    0 -0.35935044070E+02 -0.14936599786E+02 -0.56456900955E+02  0.68730641426E+02  0.47000000000E+01 0. -1.
        -13    1    4    4    0    0 -0.90204816357E+01  0.32654062139E+02  0.15084518521E+02  0.37083683233E+02  0.00000000000E+00 0.  1.
         14    1    4    4    0    0  0.77486387848E+02  0.22169669069E+02 -0.14818909778E+02  0.81946535103E+02  0.00000000000E+00 0. -1.
         -5    1    5    5    0  502 -0.46018178347E+02  0.81805370795E+01  0.23048873220E+01  0.47031866121E+02  0.47000000000E+01 0.  1.
         13    1    6    6    0    0  0.91785435490E+01  0.15452443850E+02  0.11810921320E+03  0.11946886592E+03  0.00000000000E+00 0. -1.
        -14    1    6    6    0    0  0.43087726560E+01 -0.63520112352E+02  0.94114800092E+02  0.11362643087E+03  0.00000000000E+00 0.  1.
</event>
<event>
12    1  0.8313893E-002  0.1980961E+03  0.7818608E-02  0.1152328E+00
         21   -1    0    0  503  502  0.00000000000E+00  0.00000000000E+00  0.23177702464E+04  0.23177702464E+04  0.00000000000E+00 0. -1.
         21   -1    0    0  501  503 -0.00000000000E+00 -0.00000000000E+00 -0.16557411407E+02  0.16557411407E+02  0.00000000000E+00 0.  1.
          6    2    1    2  501    0  0.25526092471E+02 -0.95382757072E+02  0.11103474420E+04  0.11270984073E+04  0.16652304998E+03 0.  0.
         24    2    3    3    0    0  0.14610612773E+02  0.95296117367E+01  0.63250134374E+03  0.63772663003E+03  0.79580282166E+02 0.  0.
         -6    2    1    2    0  502 -0.25526092471E+02  0.95382757072E+02  0.11908653930E+04  0.12072292505E+04  0.17173417587E+03 0.  0.
        -24    2    5    5    0    0 -0.32553650990E+02 -0.15409322551E+02  0.45587406771E+03  0.46388638895E+03  0.77924507284E+02 0.  0.
          5    1    3    3  501    0  0.10915479698E+02 -0.10491236881E+03  0.47784609824E+03  0.48937177731E+03  0.47000000000E+01 0. -1.
        -13    1    4    4    0    0  0.82926600112E+01  0.11056751433E+02  0.15803514140E+02  0.20994547423E+02  0.00000000000E+00 0.  1.
         14    1    4    4    0    0  0.63179527616E+01 -0.15271396959E+01  0.61669782960E+03  0.61673208261E+03  0.00000000000E+00 0. -1.
         -5    1    5    5    0  502  0.70275585194E+01  0.11079207962E+03  0.73499132531E+03  0.74334286151E+03  0.47000000000E+01 0.  1.
         13    1    6    6    0    0 -0.21954887120E+02 -0.45204534537E+02  0.34315078843E+03  0.34681108778E+03  0.00000000000E+00 0. -1.
        -14    1    6    6    0    0 -0.10598763870E+02  0.29795211985E+02  0.11272327928E+03  0.11707530117E+03  0.00000000000E+00 0.  1.
</event>
<event>
12    1  0.8313893E-002  0.1898717E+03  0.7818608E-02  0.1158688E+00
         21   -1    0    0  503  502  0.00000000000E+00  0.00000000000E+00  0.18312816070E+04  0.18312816070E+04  0.00000000000E+00 0.  1.
         21   -1    0    0  501  503 -0.00000000000E+00 -0.00000000000E+00 -0.39064881473E+02  0.39064881473E+02  0.00000000000E+00 0.  1.
          6    2    1    2  501    0  0.78249497906E+02  0.18770787279E+02  0.23717137524E+03  0.30381167908E+03  0.17197659357E+03 0.  0.
         24    2    3    3    0    0  0.48042140261E+02  0.57761972914E+02  0.93782487906E+02  0.15210386774E+03  0.93252017603E+02 0.  0.
         -6    2    1    2    0  502 -0.78249497906E+02 -0.18770787279E+02  0.15550453503E+04  0.15665348094E+04  0.17143494741E+03 0.  0.
        -24    2    5    5    0    0 -0.10152037144E+03 -0.57649476822E+02  0.12150312461E+04  0.12234826747E+04  0.83540878236E+02 0.  0.
          5    1    3    3  501    0  0.30207357645E+02 -0.38991185635E+02  0.14338888733E+03  0.15170781135E+03  0.47000000000E+01 0. -1.
        -11    1    4    4    0    0  0.55980631184E+02  0.70524498277E+02  0.44223275386E+02  0.10031567181E+03  0.00000000000E+00 0.  1.
         12    1    4    4    0    0 -0.79384909229E+01 -0.12762525363E+02  0.49559212520E+02  0.51788195927E+02  0.00000000000E+00 0. -1.
         -5    1    5    5    0  502  0.23270873539E+02  0.38878689544E+02  0.34001410425E+03  0.34305213473E+03  0.47000000000E+01 0.  1.
         13    1    6    6    0    0  0.30823570580E+01  0.15024102279E+02  0.17780107512E+03  0.17846133163E+03  0.00000000000E+00 0. -1.
        -14    1    6    6    0    0 -0.10460272850E+03 -0.72673579101E+02  0.10372301709E+04  0.10450213431E+04  0.00000000000E+00 0.  1.
</event>
<event>
12    1  0.8313893E-002  0.2006455E+03  0.7818608E-02  0.1151111E+00
         21   -1    0    0  503  502  0.00000000000E+00  0.00000000000E+00  0.84522857594E+03  0.84522857594E+03  0.00000000000E+00 0. -1.
         21   -1    0    0  501  503 -0.00000000000E+00 -0.00000000000E+00 -0.54200231000E+02  0.54200231000E+02  0.00000000000E+00 0.  1.
          6    2    1    2  501    0  0.45498400367E+02 -0.76433319213E+02  0.20826628464E+03  0.28309267099E+03  0.16986600109E+03 0.  0.
         24    2    3    3    0    0  0.77546848134E+01 -0.11062233551E+03  0.13941508951E+03  0.19732522978E+03  0.84871920417E+02 0.  0.
         -6    2    1    2    0  502 -0.45498400367E+02  0.76433319213E+02  0.58276206030E+03  0.61633613595E+03  0.17985120749E+03 0.  0.
        -24    2    5    5    0    0 -0.87981456852E+02  0.35655553802E+02  0.25944225005E+03  0.28766391939E+03  0.80176019742E+02 0.  0.
          5    1    3    3  501    0  0.37743715554E+02  0.34189016301E+02  0.68851195130E+02  0.85767441201E+02  0.47000000000E+01 0. -1.
        -13    1    4    4    0    0 -0.38734636497E+02 -0.50099437548E+02  0.62903336356E+02  0.89258923542E+02  0.00000000000E+00 0.  1.
         14    1    4    4    0    0  0.46489321311E+02 -0.60522897966E+02  0.76511753154E+02  0.10806630624E+03  0.00000000000E+00 0. -1.
         -5    1    5    5    0  502  0.42483056485E+02  0.40777765410E+02  0.32331981025E+03  0.32867221656E+03  0.47000000000E+01 0.  1.
         13    1    6    6    0    0 -0.15813741517E+02  0.46058883447E+02  0.13394346518E+03  0.14252139148E+03  0.00000000000E+00 0. -1.
        -14    1    6    6    0    0 -0.72167715335E+02 -0.10403329645E+02  0.12549878487E+03  0.14514252791E+03  0.00000000000E+00 0.  1.
</event>
<event>
12    1  0.8313893E-002  0.1914395E+03  0.7818608E-02  0.1158447E+00
         21   -1    0    0  503  502  0.00000000000E+00  0.00000000000E+00  0.37367561436E+03  0.37367561436E+03  0.00000000000E+00 0. -1.
         21   -1    0    0  501  503 -0.00000000000E+00 -0.00000000000E+00 -0.26438051619E+03  0.26438051619E+03  0.00000000000E+00 0.  1.
          6    2    1    2  501    0 -0.44406745100E+02 -0.55981851261E+02 -0.20083178346E+03  0.27360067908E+03  0.17151676204E+03 0.  0.
         24    2    3    3    0    0 -0.38924773362E+02 -0.58476397252E+02 -0.22462743729E+03  0.24860872208E+03  0.80088601511E+02 0.  0.
         -6    2    1    2    0  502  0.44406745100E+02  0.55981851261E+02  0.31012688163E+03  0.36445545146E+03  0.17760396028E+03 0.  0.
        -24    2    5    5    0    0  0.56420481160E+02 -0.30363797538E+02  0.15750066996E+03  0.18862385188E+03  0.81653325506E+02 0.  0.
          5    1    3    3  501    0 -0.54819717378E+01  0.24945459901E+01  0.23795653826E+02  0.24991957003E+02  0.47000000000E+01 0. -1.
        -11    1    4    4    0    0  0.95531215469E+01 -0.35648189318E+02 -0.32590392410E+02  0.49236056000E+02  0.00000000000E+00 0.  1.
         12    1    4    4    0    0 -0.48477894909E+02 -0.22828207933E+02 -0.19203704488E+03  0.19937266608E+03  0.00000000000E+00 0. -1.
         -5    1    5    5    0  502 -0.12013736060E+02  0.86345648799E+02  0.15262621168E+03  0.17583159958E+03  0.47000000000E+01 0.  1.
         11    1    6    6    0    0  0.12989319397E+01  0.15553491986E+01  0.10783285959E+03  0.10785189819E+03  0.00000000000E+00 0. -1.
        -12    1    6    6    0    0  0.55121549221E+02 -0.31919146736E+02  0.49667810368E+02  0.80771953694E+02  0.00000000000E+00 0.  1.
</event>
<event>
12    1  0.8313893E-002  0.2469288E+03  0.7818608E-02  0.1115282E+00
         21   -1    0    0  503  502  0.00000000000E+00  0.00000000000E+00  0.87546100728E+02  0.87546100728E+02  0.00000000000E+00 0.  1.
         21   -1    0    0  501  503 -0.00000000000E+00 -0.00000000000E+00 -0.73297752142E+03  0.73297752142E+03  0.00000000000E+00 0. -1.
          6    2    1    2  501    0 -0.12871181808E+03  0.12167124536E+03 -0.23062054164E+03  0.33777947502E+03  0.17186772664E+03 0.  0.
         24    2    3    3    0    0 -0.13132487825E+02  0.10359891999E+03 -0.12701502562E+03  0.18144207235E+03  0.76702088788E+02 0.  0.
         -6    2    1    2    0  502  0.12871181808E+03 -0.12167124536E+03 -0.41481087906E+03  0.48274414713E+03  0.17205586926E+03 0.  0.
        -24    2    5    5    0    0  0.91747760959E+01 -0.17329064582E+02 -0.19266712667E+03  0.20971240572E+03  0.80462403748E+02 0.  0.
          5    1    3    3  501    0 -0.11557933025E+03  0.18072325364E+02 -0.10360551602E+03  0.15633740267E+03  0.47000000000E+01 0. -1.
        -11    1    4    4    0    0 -0.22605023069E+02  0.14987114105E+02 -0.10522571094E+01  0.27142363607E+02  0.00000000000E+00 0.  1.
         12    1    4    4    0    0  0.94725352440E+01  0.88611805887E+02 -0.12596276851E+03  0.15429970874E+03  0.00000000000E+00 0. -1.
         -5    1    5    5    0  502  0.11953704198E+03 -0.10434218077E+03 -0.22214375239E+03  0.27303174141E+03  0.47000000000E+01 0.  1.
         13    1    6    6    0    0  0.27648302759E+01 -0.42309400131E+02 -0.17053888604E+03  0.17573059289E+03  0.00000000000E+00 0. -1.
        -14    1    6    6    0    0  0.64099458200E+01  0.24980335550E+02 -0.22128240628E+02  0.33981812825E+02  0.00000000000E+00 0.  1.
</event>
<event>
12    1  0.8313893E-002  0.1825543E+03  0.7818608E-02  0.1166226E+00
         21   -1    0    0  503  502  0.00000000000E+00  0.00000000000E+00  0.17083597933E+03  0.17083597933E+03  0.00000000000E+00 0.  1.
         21   -1    0    0  501  503 -0.00000000000E+00 -0.00000000000E+00 -0.35075600761E+03  0.35075600761E+03  0.00000000000E+00 0.  1.
          6    2    1    2  501    0 -0.30478521513E+02  0.52901477066E+02 -0.26535041385E+03  0.32003695973E+03  0.16818236207E+03 0.  0.
         24    2    3    3    0    0  0.21258735565E+02  0.84389342151E+02 -0.18431469462E+03  0.21875958215E+03  0.79437731740E+02 0.  0.
         -6    2    1    2    0  502  0.30478521513E+02 -0.52901477066E+02  0.85430385567E+02  0.20155502722E+03  0.17204235429E+03 0.  0.
        -24    2    5    5    0    0 -0.13517025634E+02 -0.11759037417E+02 -0.15782468900E+02  0.83680346227E+02  0.80201802206E+02 0.  0.
          5    1    3    3  501    0 -0.51737257077E+02 -0.31487865085E+02 -0.81035719232E+02  0.10127737758E+03  0.47000000000E+01 0. -1.
        -13    1    4    4    0    0  0.46128347083E+02  0.24404157023E+02 -0.70347889777E+02  0.87591168965E+02  0.00000000000E+00 0.  1.
         14    1    4    4    0    0 -0.24869611518E+02  0.59985185127E+02 -0.11396680484E+03  0.13116841318E+03  0.00000000000E+00 0. -1.
         -5    1    5    5    0  502  0.43995547146E+02 -0.41142439650E+02  0.10121285447E+03  0.11787468099E+03  0.47000000000E+01 0.  1.
         13    1    6    6    0    0  0.23771238259E+02  0.21400548049E+02 -0.96262939542E+01  0.33402406507E+02  0.00000000000E+00 0. -1.
        -14    1    6    6    0    0 -0.37288263893E+02 -0.33159585466E+02 -0.61561749456E+01  0.50277939719E+02  0.00000000000E+00 0.  1.
</event>
<event>
12    1  0.8313893E-002  0.3201926E+03  0.7818608E-02  0.1075716E+00
         21   -1    0    0  501  502  0.00000000000E+00  0.00000000000E+00  0.18946127867E+03  0.18946127867E+03  0.00000000000E+00 0. -1.
         21   -1    0    0  502  503 -0.00000000000E+00 -0.00000000000E+00 -0.57900746452E+03  0.57900746452E+03  0.00000000000E+00 0. -1.
         -6    2    1    2    0  503  0.21459983834E+03  0.16166383032E+03 -0.29556755428E+03  0.43476937909E+03  0.17168561151E+03 0.  0.
        -24    2    3    3    0    0  0.26469891273E+02  0.76368003832E+02 -0.10152211882E+03  0.15131924939E+03  0.77833459864E+02 0.  0.
          6    2    1    2  501    0 -0.21459983834E+03 -0.16166383032E+03 -0.93978631562E+02  0.33369936411E+03  0.17416945129E+03 0.  0.
         24    2    5    5    0    0 -0.13133485506E+03 -0.58060392692E+02  0.90787998380E+01  0.16544463491E+03  0.81667920642E+02 0.  0.
          5    1    5    5  501    0 -0.83264983286E+02 -0.10360343763E+03 -0.10305743140E+03  0.16825472920E+03  0.47000000000E+01 0. -1.
        -13    1    6    6    0    0 -0.77134250436E+02 -0.40758068155E+01 -0.25708421854E+02  0.81407786763E+02  0.00000000000E+00 0.  1.
         14    1    6    6    0    0 -0.54200604620E+02 -0.53984585877E+02  0.34787221692E+02  0.84036848147E+02  0.00000000000E+00 0. -1.
         -5    1    3    3    0  503  0.18812994707E+03  0.85295826487E+02 -0.19404543547E+03  0.28345012970E+03  0.47000000000E+01 0.  1.
         11    1    4    4    0    0  0.37031948151E+02  0.36700461036E+01 -0.22787903963E+02  0.43636257737E+02  0.00000000000E+00 0. -1.
        -12    1    4    4    0    0 -0.10562056877E+02  0.72697957728E+02 -0.78734214853E+02  0.10768299166E+03  0.00000000000E+00 0.  1.
</event>
<event>
12    1  0.8313893E-002  0.1812567E+03  0.7818608E-02  0.1167347E+00
         21   -1    0    0  503  502  0.00000000000E+00  0.00000000000E+00  0.76287022713E+02  0.76287022713E+02  0.00000000000E+00 0.  1.
         21   -1    0    0  501  503 -0.00000000000E+00 -0.00000000000E+00 -0.48936267298E+03  0.48936267298E+03  0.00000000000E+00 0.  1.
          6    2    1    2  501    0  0.28674684618E+02 -0.37989421783E+02 -0.31201133933E+03  0.36083940816E+03  0.17489588019E+03 0.  0.
         24    2    3    3    0    0  0.53182855244E+01  0.14004655805E+02 -0.28804228836E+03  0.29882722479E+03  0.78134088871E+02 0.  0.
         -6    2    1    2    0  502 -0.28674684618E+02  0.37989421783E+02 -0.10106431094E+03  0.20481028753E+03  0.17166195044E+03 0.  0.
        -24    2    5    5    0    0 -0.69625392427E+02 -0.95903610045E+01 -0.33273842061E+02  0.11229848358E+03  0.81019322101E+02 0.  0.
          5    1    3    3  501    0  0.23356399094E+02 -0.51994077587E+02 -0.23969050969E+02  0.62012183376E+02  0.47000000000E+01 0. -1.
        -13    1    4    4    0    0  0.37852025383E+02 -0.52249834672E+01 -0.18890689852E+03  0.19273269725E+03  0.00000000000E+00 0.  1.
         14    1    4    4    0    0 -0.32533739858E+02  0.19229639272E+02 -0.99135389838E+02  0.10609452754E+03  0.00000000000E+00 0. -1.
         -5    1    5    5    0  502  0.40950707809E+02  0.47579782787E+02 -0.67790468879E+02  0.92511803955E+02  0.47000000000E+01 0.  1.
         13    1    6    6    0    0  0.16073059412E+02 -0.59994621711E+01  0.57098514958E+01  0.18081459823E+02  0.00000000000E+00 0. -1.
        -14    1    6    6    0    0 -0.85698451840E+02 -0.35908988334E+01 -0.38983693556E+02  0.94217023756E+02  0.00000000000E+00 0.  1.
</event>
<event>
12    1  0.8313893E-002  0.1844167E+03  0.7818608E-02  0.1163992E+00
         21   -1    0    0  501  502  0.00000000000E+00  0.00000000000E+00  0.88386842601E+03  0.88386842601E+03  0.00000000000E+00 0. -1.
         21   -1    0    0  502  503 -0.00000000000E+00 -0.00000000000E+00 -0.67816383910E+02  0.67816383910E+02  0.00000000000E+00 0. -1.
         -6    2    1    2    0  503  0.33153163549E+02 -0.57922997158E+02  0.92135854964E+02  0.20464787876E+03  0.17011035435E+03 0.  0.
        -24    2    3    3    0    0  0.27254093307E+02  0.23856740520E+02  0.85301594565E+02  0.12223718989E+03  0.79709716392E+02 0.  0.
          6    2    1    2  501    0 -0.33153163549E+02  0.57922997158E+02  0.72391618713E+03  0.74703693116E+03  0.17191662126E+03 0.  0.
         24    2    5    5    0    0  0.38788975782E+01 -0.14619206931E+02  0.19349550303E+03  0.21037881182E+03  0.81178616103E+02 0.  0.
          5    1    5    5  501    0 -0.37032061127E+02  0.72542204089E+02  0.53042068411E+03  0.53665811934E+03  0.47000000000E+01 0. -1.
        -11    1    6    6    0    0  0.17853335687E+02 -0.39063566714E+02  0.16428714801E+03  0.16980863005E+03  0.00000000000E+00 0.  1.
         12    1    6    6    0    0 -0.13974438108E+02  0.24444359782E+02  0.29208355020E+02  0.40570181767E+02  0.00000000000E+00 0. -1.
         -5    1    3    3    0  503  0.58990702413E+01 -0.81779737678E+02  0.68342603990E+01  0.82410688868E+02  0.47000000000E+01 0.  1.
         13    1    4    4    0    0  0.15833401351E+02  0.77191780585E+01 -0.13047466103E+02  0.21920736301E+02  0.00000000000E+00 0. -1.
        -14    1    4    4    0    0  0.11420691956E+02  0.16137562462E+02  0.98349060668E+02  0.10031645359E+03  0.00000000000E+00 0.  1.
</event>
<event>
12    1  0.8313893E-002  0.1786335E+03  0.7818608E-02  0.1169203E+00
         21   -1    0    0  503  502  0.00000000000E+00  0.00000000000E+00  0.21999783565E+02  0.21999783565E+02  0.00000000000E+00 0.  1.
         21   -1    0    0  501  503 -0.00000000000E+00 -0.00000000000E+00 -0.15755883161E+04  0.15755883161E+04  0.00000000000E+00 0.  1.
          6    2    1    2  501    0  0.36333500664E+02  0.28427474732E+02 -0.54900678252E+03  0.57724775226E+03  0.17227383912E+03 0.  0.
         24    2    3    3    0    0 -0.26153903539E+02  0.31134062926E+02 -0.17719905282E+03  0.20018664426E+03  0.83796370291E+02 0.  0.
         -6    2    1    2    0  502 -0.36333500664E+02 -0.28427474732E+02 -0.10045817500E+04  0.10203403474E+04  0.17257371611E+03 0.  0.
        -24    2    5    5    0    0  0.37046980922E+02 -0.34565795143E+02 -0.38514187926E+03  0.39652128907E+03  0.79546166098E+02 0.  0.
          5    1    3    3  501    0  0.62487404203E+02 -0.27065881935E+01 -0.37180772969E+03  0.37706110800E+03  0.47000000000E+01 0. -1.
        -13    1    4    4    0    0 -0.30933565830E+02  0.51337704733E+02 -0.75543573208E+02  0.96432758310E+02  0.00000000000E+00 0.  1.
         14    1    4    4    0    0  0.47796622911E+01 -0.20203641807E+02 -0.10165547962E+03  0.10375388595E+03  0.00000000000E+00 0. -1.
         -5    1    5    5    0  502 -0.73380481586E+02  0.61383204105E+01 -0.61943987078E+03  0.62381905835E+03  0.47000000000E+01 0.  1.
         11    1    6    6    0    0  0.20013269089E+02 -0.98296572147E+01 -0.19420338267E+02  0.29568609013E+02  0.00000000000E+00 0. -1.
        -12    1    6    6    0    0  0.17033711834E+02 -0.24736137928E+02 -0.36572154099E+03  0.36695268006E+03  0.00000000000E+00 0.  1.
</event>
<event>
12    1  0.8313893E-002  0.1926520E+03  0.7818608E-02  0.1156184E+00
         21   -1    0    0  501  502  0.00000000000E+00  0.00000000000E+00  0.96376803555E+03  0.96376803555E+03  0.00000000000E+00 0.  1.
         21   -1    0    0  502  503 -0.00000000000E+00 -0.00000000000E+00 -0.48248581741E+02  0.48248581741E+02  0.00000000000E+00 0.  1.
         -6    2    1    2    0  503  0.55096611924E+02 -0.65425775723E+02  0.22905128714E+03  0.29902761071E+03  0.17215356822E+03 0.  0.
        -24    2    3    3    0    0  0.87613128952E+02 -0.71215769608E+02  0.11591924612E+03  0.18107933130E+03  0.81269344764E+02 0.  0.
          6    2    1    2  501    0 -0.55096611924E+02  0.65425775723E+02  0.68646816667E+03  0.71298900658E+03  0.17262274151E+03 0.  0.
         24    2    5    5    0    0 -0.27442431516E+02  0.77648707565E+02  0.66745451586E+03  0.67696453332E+03  0.77479286238E+02 0.  0.
          5    1    5    5  501    0 -0.27654180407E+02 -0.12222931841E+02  0.19013650803E+02  0.36024473260E+02  0.47000000000E+01 0. -1.
        -11    1    6    6    0    0 -0.15397098693E+02  0.81394732222E+02  0.36647417001E+03  0.37571996269E+03  0.00000000000E+00 0.  1.
         12    1    6    6    0    0 -0.12045332823E+02 -0.37460246569E+01  0.30098034585E+03  0.30124457063E+03  0.00000000000E+00 0. -1.
         -5    1    3    3    0  503 -0.32516517028E+02  0.57899938849E+01  0.11313204102E+03  0.11794827941E+03  0.47000000000E+01 0.  1.
         13    1    4    4    0    0  0.67286187855E+02 -0.26301633632E+02  0.22871392958E+02  0.75778015438E+02  0.00000000000E+00 0. -1.
        -14    1    4    4    0    0  0.20326941097E+02 -0.44914135976E+02  0.93047853163E+02  0.10530131587E+03  0.00000000000E+00 0.  1.
</event>
<event>
12    1  0.8313893E-002  0.2099878E+03  0.7818608E-02  0.1141647E+00
         21   -1    0    0  501  502  0.00000000000E+00  0.00000000000E+00  0.43088874206E+03  0.43088874206E+03  0.00000000000E+00 0.  1.
         21   -1    0    0  502  503 -0.00000000000E+00 -0.00000000000E+00 -0.10218026411E+03  0.10218026411E+03  0.00000000000E+00 0. -1.
         -6    2    1    2    0  503  0.12075325453E+03  0.52066101513E+01  0.16830384828E+03  0.26911165339E+03  0.17171615933E+03 0.  0.
        -24    2    3    3    0    0  0.58094137281E+02  0.44719359803E+01  0.18079713047E+03  0.20504234076E+03  0.77199948987E+02 0.  0.
          6    2    1    2  501    0 -0.12075325453E+03 -0.52066101513E+01  0.16040462967E+03  0.26395735278E+03  0.17127574725E+03 0.  0.
         24    2    5    5    0    0 -0.39098033510E+01  0.24907260295E+02  0.97822684111E+02  0.12795063534E+03  0.78526615747E+02 0.  0.
          5    1    5    5  501    0 -0.11684345118E+03 -0.30113870446E+02  0.62581945559E+02  0.13600671743E+03  0.47000000000E+01 0. -1.
        -11    1    6    6    0    0 -0.21931454678E+02  0.48121784580E+02  0.58518143947E+02  0.78873747384E+02  0.00000000000E+00 0.  1.
         12    1    6    6    0    0  0.18021651327E+02 -0.23214524285E+02  0.39304540164E+02  0.49076887960E+02  0.00000000000E+00 0. -1.
         -5    1    3    3    0  503  0.62659117248E+02  0.73467417093E+00 -0.12493282182E+02  0.64069312624E+02  0.47000000000E+01 0.  1.
         11    1    4    4    0    0 -0.85270497350E+01 -0.13113747211E+02  0.53200937097E+01  0.16522237748E+02  0.00000000000E+00 0. -1.
        -12    1    4    4    0    0  0.66621187016E+02  0.17585683192E+02  0.17547703676E+03  0.18852010302E+03  0.00000000000E+00 0.  1.
</event>
<event>
12    1  0.8313893E-002  0.1724359E+03  0.7818608E-02  0.1175335E+00
         21   -1    0    0  503  502  0.00000000000E+00  0.00000000000E+00  0.30117125935E+03  0.30117125935E+03  0.00000000000E+00 0.  1.
         21   -1    0    0  501  503 -0.00000000000E+00 -0.00000000000E+00 -0.10075062161E+03  0.10075062161E+03  0.00000000000E+00 0.  1.
          6    2    1    2  501    0  0.53787664593E+01  0.16578585532E+02  0.71669399190E+02  0.18672192682E+03  0.17153656913E+03 0.  0.
         24    2    3    3    0    0  0.26976251276E+02  0.20760055533E+02 -0.22422522874E+02  0.89978369726E+02  0.80216204397E+02 0.  0.
         -6    2    1    2    0  502 -0.53787664593E+01 -0.16578585532E+02  0.12875123855E+03  0.21519995413E+03  0.17155278547E+03 0.  0.
        -24    2    5    5    0    0  0.29687672253E+02 -0.11547082058E+02  0.11110098697E+02  0.92250781965E+02  0.85860814649E+02 0.  0.
          5    1    3    3  501    0 -0.21597484817E+02 -0.41814700015E+01  0.94091922063E+02  0.96743557095E+02  0.47000000000E+01 0. -1.
        -11    1    4    4    0    0  0.17199128171E+02 -0.29419000938E+02  0.18940939002E+00  0.34078196870E+02  0.00000000000E+00 0.  1.
         12    1    4    4    0    0  0.97771231056E+01  0.50179056472E+02 -0.22611932264E+02  0.55900172856E+02  0.00000000000E+00 0. -1.
         -5    1    5    5    0  502 -0.35066438712E+02 -0.50315034743E+01  0.11764113985E+03  0.12294917217E+03  0.47000000000E+01 0.  1.
         11    1    6    6    0    0  0.30934510417E+02 -0.45122022075E+02  0.18682676588E+02  0.57809888560E+02  0.00000000000E+00 0. -1.
        -12    1    6    6    0    0 -0.12468381641E+01  0.33574940017E+02 -0.75725778904E+01  0.34440893404E+02  0.00000000000E+00 0.  1.
</event>
<event>
12    1  0.8313893E-002  0.2131272E+03  0.7818608E-02  0.1139627E+00
         21   -1    0    0  501  502  0.00000000000E+00  0.00000000000E+00  0.81002869808E+02  0.81002869808E+02  0.00000000000E+00 0.  1.
         21   -1    0    0  502  503 -0.00000000000E+00 -0.00000000000E+00 -0.57214590691E+03  0.57214590691E+03  0.00000000000E+00 0. -1.
         -6    2    1    2    0  503 -0.64110921445E+02  0.10260764520E+03 -0.30540849330E+03  0.37242118354E+03  0.17545555297E+03 0.  0.
        -24    2    3    3    0    0 -0.62139504672E+02  0.11633749712E+03 -0.14470725274E+03  0.21105398107E+03  0.78789990795E+02 0.  0.
          6    2    1    2  501    0  0.64110921445E+02 -0.10260764520E+03 -0.18573454381E+03  0.28072759318E+03  0.17225597728E+03 0.  0.
         24    2    5    5    0    0  0.78076707483E+02 -0.13685975411E+02 -0.64271964308E+02  0.12947497418E+03  0.79684411075E+02 0.  0.
          5    1    5    5  501    0 -0.13965786037E+02 -0.88921669784E+02 -0.12146257950E+03  0.15125261901E+03  0.47000000000E+01 0. -1.
        -11    1    6    6    0    0  0.43081510415E+02 -0.14572029048E+02  0.10710529027E+02  0.46723398873E+02  0.00000000000E+00 0.  1.
         12    1    6    6    0    0  0.34995197068E+02  0.88605363746E+00 -0.74982493335E+02  0.82751575305E+02  0.00000000000E+00 0. -1.
         -5    1    3    3    0  503 -0.19714167732E+01 -0.13729851928E+02 -0.16070124055E+03  0.16136720247E+03  0.47000000000E+01 0.  1.
         11    1    4    4    0    0 -0.56860952615E+02  0.86107878613E+02 -0.14775055494E+03  0.18021642871E+03  0.00000000000E+00 0. -1.
        -12    1    4    4    0    0 -0.52785520564E+01  0.30229618510E+02  0.30433021973E+01  0.30837552357E+02  0.00000000000E+00 0.  1.
</event>
<event>
12    1  0.8313893E-002  0.1968962E+03  0.7818608E-02  0.1152540E+00
         21   -1    0    0  501  502  0.00000000000E+00  0.00000000000E+00  0.27103766060E+03  0.27103766060E+03  0.00000000000E+00 0. -1.
         21   -1    0    0  502  503 -0.00000000000E+00 -0.00000000000E+00 -0.19488286362E+03  0.19488286362E+03  0.00000000000E+00 0. -1.
         -6    2    1    2    0  503  0.82465642329E+02  0.42028826480E+02 -0.82635011257E+02  0.21353377330E+03  0.17378470253E+03 0.  0.
        -24    2    3    3    0    0 -0.13203627401E+02  0.15587208416E+02 -0.79596756102E+02  0.11412004522E+03  0.79186137017E+02 0.  0.
          6    2    1    2  501    0 -0.82465642329E+02 -0.42028826480E+02  0.15878980824E+03  0.25238675092E+03  0.17296781325E+03 0.  0.
         24    2    5    5    0    0 -0.31004605739E+02  0.26544788867E+02  0.13575142147E+03  0.16348547830E+03  0.81444102250E+02 0.  0.
          5    1    5    5  501    0 -0.51461036590E+02 -0.68573615348E+02  0.23038386772E+02  0.88901272622E+02  0.47000000000E+01 0. -1.
        -13    1    6    6    0    0  0.78669618132E+01  0.34274769173E+02  0.18538234569E+02  0.39753176363E+02  0.00000000000E+00 0.  1.
         14    1    6    6    0    0 -0.38871567552E+02 -0.77299803055E+01  0.11721318690E+03  0.12373230194E+03  0.00000000000E+00 0. -1.
         -5    1    3    3    0  503  0.95669269730E+02  0.26441618064E+02 -0.30382551549E+01  0.99413728081E+02  0.47000000000E+01 0.  1.
         13    1    4    4    0    0  0.12412750699E+02  0.42132962004E+02 -0.34472487648E+02  0.55835609353E+02  0.00000000000E+00 0. -1.
        -14    1    4    4    0    0 -0.25616378100E+02 -0.26545753588E+02 -0.45124268455E+02  0.58284435865E+02  0.00000000000E+00 0.  1.
</event>
<event>
12    1  0.8313893E-002  0.1795308E+03  0.7818608E-02  0.1168313E+00
         21   -1    0    0  503  502  0.00000000000E+00  0.00000000000E+00  0.47526526412E+02  0.47526526412E+02  0.00000000000E+00 0.  1.
         21   -1    0    0  501  503 -0.00000000000E+00 -0.00000000000E+00 -0.70078137461E+03  0.70078137461E+03  0.00000000000E+00 0. -1.
          6    2    1    2  501    0 -0.46874301240E+02 -0.19584732800E+02 -0.39488556156E+03  0.43368748129E+03  0.17195773558E+03 0.  0.
         24    2    3    3    0    0 -0.93273762324E+02 -0.38384084647E+02 -0.28182768432E+03  0.30995187920E+03  0.80436254755E+02 0.  0.
         -6    2    1    2    0  502  0.46874301240E+02  0.19584732800E+02 -0.25836928664E+03  0.31462041973E+03  0.17219337489E+03 0.  0.
        -24    2    5    5    0    0  0.20021613630E+02 -0.35975514617E+02 -0.22993593606E+03  0.24651349387E+03  0.78760810708E+02 0.  0.
          5    1    3    3  501    0  0.46399461084E+02  0.18799351847E+02 -0.11305787724E+03  0.12373560209E+03  0.47000000000E+01 0. -1.
        -11    1    4    4    0    0 -0.85671646039E+02  0.30439364788E+01 -0.16856907571E+03  0.18911485867E+03  0.00000000000E+00 0.  1.
         12    1    4    4    0    0 -0.76021162847E+01 -0.41428021125E+02 -0.11325860862E+03  0.12083702054E+03  0.00000000000E+00 0. -1.
         -5    1    5    5    0  502  0.26852687610E+02  0.55560247416E+02 -0.28433350576E+02  0.68106925858E+02  0.47000000000E+01 0.  1.
         13    1    6    6    0    0  0.24404237766E+02 -0.55188428287E+02 -0.11470150631E+03  0.12960619193E+03  0.00000000000E+00 0. -1.
        -14    1    6    6    0    0 -0.43826241362E+01  0.19212913670E+02 -0.11523442975E+03  0.11690730194E+03  0.00000000000E+00 0.  1.
</event>
<event>
12    1  0.8313893E-002  0.1805354E+03  0.7818608E-02  0.1167456E+00
         21   -1    0    0  501  502  0.00000000000E+00  0.00000000000E+00  0.16095708651E+04  0.16095708651E+04  0.00000000000E+00 0. -1.
         21   -1    0    0  502  503 -0.00000000000E+00 -0.00000000000E+00 -0.20720360859E+02  0.20720360859E+02  0.00000000000E+00 0.  1.
         -6    2    1    2    0  503 -0.17566830181E+02 -0.49204529501E+02  0.66015226514E+03  0.68420801945E+03  0.17207533659E+03 0.  0.
        -24    2    3    3    0    0 -0.39395342901E+02  0.29511199688E+01  0.57362454321E+03  0.58073902698E+03  0.81559786292E+02 0.  0.
          6    2    1    2  501    0  0.17566830181E+02  0.49204529501E+02  0.92869823913E+03  0.94608320654E+03  0.17281011280E+03 0.  0.
         24    2    5    5    0    0  0.91837926941E+01  0.10026428827E+03  0.67587772795E+03  0.68797920588E+03  0.79796084065E+02 0.  0.
          5    1    5    5  501    0  0.83830374870E+01 -0.51059758770E+02  0.25282051119E+03  0.25810400067E+03  0.47000000000E+01 0. -1.
        -13    1    6    6    0    0 -0.29583323398E+02  0.57595572793E+02  0.46007205024E+03  0.46460597762E+03  0.00000000000E+00 0.  1.
         14    1    6    6    0    0  0.38767116093E+02  0.42668715479E+02  0.21580567771E+03  0.22337322826E+03  0.00000000000E+00 0. -1.
         -5    1    3    3    0  503  0.21828512720E+02 -0.52155649470E+02  0.86527721932E+02  0.10346899247E+03  0.47000000000E+01 0.  1.
         13    1    4    4    0    0 -0.56186031903E+02 -0.18029917816E+02  0.46987983563E+03  0.47357048900E+03  0.00000000000E+00 0. -1.
        -14    1    4    4    0    0  0.16790689002E+02  0.20981037785E+02  0.10374470757E+03  0.10716853798E+03  0.00000000000E+00 0.  1.
</event>
<event>
12    1  0.8313893E-002  0.2091030E+03  0.7818608E-02  0.1142532E+00
         21   -1    0    0  501  502  0.00000000000E+00  0.00000000000E+00  0.57766752636E+02  0.57766752636E+02  0.00000000000E+00 0.  1.
         21   -1    0    0  502  503 -0.00000000000E+00 -0.00000000000E+00 -0.10996034177E+04  0.10996034177E+04  0.00000000000E+00 0. -1.
         -6    2    1    2    0  503  0.22788733733E+01  0.11519335461E+03 -0.84721286684E+03  0.87263606135E+03  0.17449742580E+03 0.  0.
        -24    2    3    3    0    0 -0.61903027286E+02  0.87199138589E+02 -0.45313520617E+03  0.47235830136E+03  0.79719352932E+02 0.  0.
          6    2    1    2  501    0 -0.22788733733E+01 -0.11519335461E+03 -0.19462379823E+03  0.28473410900E+03  0.17297510739E+03 0.  0.
         24    2    5    5    0    0 -0.33818296251E+02  0.64020335016E+00 -0.83796981950E+02  0.12128129760E+03  0.80889628150E+02 0.  0.
          5    1    5    5  501    0  0.31539422878E+02 -0.11583355796E+03 -0.11082681628E+03  0.16345281139E+03  0.47000000000E+01 0. -1.
        -13    1    6    6    0    0  0.18952059380E+02  0.72092394799E+01  0.19635512537E+01  0.20371775135E+02  0.00000000000E+00 0.  1.
         14    1    6    6    0    0 -0.52770355631E+02 -0.65690361297E+01 -0.85760533204E+02  0.10090952247E+03  0.00000000000E+00 0. -1.
         -5    1    3    3    0  503  0.64181900659E+02  0.27994216026E+02 -0.39407766067E+03  0.40027775999E+03  0.47000000000E+01 0.  1.
         11    1    4    4    0    0 -0.17165980521E+02  0.51457437193E+02 -0.35185245209E+03  0.35600939141E+03  0.00000000000E+00 0. -1.
        -12    1    4    4    0    0 -0.44737046765E+02  0.35741701396E+02 -0.10128275408E+03  0.11634890995E+03  0.00000000000E+00 0.  1.
</event>
<event>
12    1  0.8313893E-002  0.1884800E+03  0.7818608E-02  0.1160313E+00
         21   -1    0    0  501  502  0.00000000000E+00  0.00000000000E+00  0.48124798924E+03  0.48124798924E+03  0.00000000000E+00 0.  1.
         21   -1    0    0  502  503 -0.00000000000E+00 -0.00000000000E+00 -0.11206944970E+03  0.11206944970E+03  0.00000000000E+00 0. -1.
         -6    2    1    2    0  503 -0.34199691179E+02 -0.65045218685E+02  0.10120218681E+02  0.18875146449E+03  0.17356323681E+03 0.  0.
        -24    2    3    3    0    0 -0.22665648729E+02 -0.11078463675E+03 -0.14386066825E+02  0.13538690201E+03  0.73045786637E+02 0.  0.
          6    2    1    2  501    0  0.34199691179E+02  0.65045218685E+02  0.35905832087E+03  0.40456597445E+03  0.17131914822E+03 0.  0.
         24    2    5    5    0    0  0.87286574062E+02  0.44204033972E+02  0.21024297723E+03  0.24512736991E+03  0.79450458616E+02 0.  0.
          5    1    5    5  501    0 -0.53086882883E+02  0.20841184713E+02  0.14881534364E+03  0.15943860454E+03  0.47000000000E+01 0. -1.
        -13    1    6    6    0    0  0.32790430517E+02 -0.16042867071E+02  0.11114948575E+03  0.11699057270E+03  0.00000000000E+00 0.  1.
         14    1    6    6    0    0  0.54496143545E+02  0.60246901043E+02  0.99093491473E+02  0.12813679721E+03  0.00000000000E+00 0. -1.
         -5    1    3    3    0  503 -0.11534042450E+02  0.45739418061E+02  0.24506285506E+02  0.53364562484E+02  0.47000000000E+01 0.  1.
         11    1    4    4    0    0 -0.25444012329E+02 -0.88635931919E+01 -0.19562883439E+02  0.33296658333E+02  0.00000000000E+00 0. -1.
        -12    1    4    4    0    0  0.27783636001E+01 -0.10192104355E+03  0.51768166146E+01  0.10209024368E+03  0.00000000000E+00 0.  1.
</event>
<event>
12    1  0.8313893E-002  0.2131597E+03  0.7818608E-02  0.1139382E+00
         21   -1    0    0  503  502  0.00000000000E+00  0.00000000000E+00  0.12890068013E+04  0.12890068013E+04  0.00000000000E+00 0.  1.
         21   -1    0    0  501  503 -0.00000000000E+00 -0.00000000000E+00 -0.50995629172E+02  0.50995629172E+02  0.00000000000E+00 0.  1.
          6    2    1    2  501    0 -0.57834903214E+02  0.11114659645E+03  0.24528095562E+03  0.32496126409E+03  0.17244893169E+03 0.  0.
         24    2    3    3    0    0 -0.94608270161E+02  0.12028531067E+03  0.21817517669E+03  0.27813595186E+03  0.79623609861E+02 0.  0.
         -6    2    1    2    0  502  0.57834903214E+02 -0.11114659645E+03  0.99273021651E+03  0.10150411664E+04  0.17057797261E+03 0.  0.
        -24    2    5    5    0    0  0.86790917639E+01 -0.42560389634E+02  0.79370601339E+03  0.79881654939E+03  0.79069150047E+02 0.  0.
          5    1    3    3  501    0  0.36773366947E+02 -0.91387142266E+01  0.27105778928E+02  0.46825312232E+02  0.47000000000E+01 0. -1.
        -11    1    4    4    0    0 -0.47149748541E+02  0.11290905693E+03  0.17513578910E+03  0.21364479527E+03  0.00000000000E+00 0.  1.
         12    1    4    4    0    0 -0.47458521620E+02  0.73762537405E+01  0.43039387593E+02  0.64491156587E+02  0.00000000000E+00 0. -1.
         -5    1    5    5    0  502  0.49155811450E+02 -0.68586206813E+02  0.19902420312E+03  0.21622461699E+03  0.47000000000E+01 0.  1.
         13    1    6    6    0    0 -0.26178980611E+02 -0.19777877011E+02  0.14031976095E+03  0.14410461047E+03  0.00000000000E+00 0. -1.
        -14    1    6    6    0    0  0.34858072375E+02 -0.22782512623E+02  0.65338625244E+03  0.65471193892E+03  0.00000000000E+00 0.  1.
</event>
<event>
12    1  0.8313893E-002  0.1914706E+03  0.7818608E-02  0.1157342E+00
         21   -1    0    0  501  502  0.00000000000E+00  0.00000000000E+00  0.13612402154E+03  0.13612402154E+03  0.00000000000E+00 0.  1.
         21   -1    0    0  502  503 -0.00000000000E+00 -0.00000000000E+00 -0.27751238537E+03  0.27751238537E+03  0.00000000000E+00 0.  1.
         -6    2    1    2    0  503 -0.79645740961E+02  0.28171993207E+02 -0.10901250411E+03  0.22032866193E+03  0.17182516685E+03 0.  0.
        -24    2    3    3    0    0  0.85409227435E+01 -0.20526141675E+02 -0.72462427766E+01  0.77056689999E+02  0.73423127051E+02 0.  0.
          6    2    1    2  501    0  0.79645740961E+02 -0.28171993207E+02 -0.32375859725E+02  0.19330774498E+03  0.17082910385E+03 0.  0.
         24    2    5    5    0    0  0.10242509193E+03 -0.64593656285E+02 -0.39446020503E+02  0.14951832223E+03  0.78335817217E+02 0.  0.
          5    1    5    5  501    0 -0.22779350966E+02  0.36421663078E+02  0.70701607777E+01  0.43789422755E+02  0.47000000000E+01 0. -1.
        -13    1    6    6    0    0  0.41363865692E+02  0.11702809443E+01  0.15619582249E+02  0.44230196610E+02  0.00000000000E+00 0.  1.
         14    1    6    6    0    0  0.61061226235E+02 -0.65763937229E+02 -0.55065602752E+02  0.10528812562E+03  0.00000000000E+00 0. -1.
         -5    1    3    3    0  503 -0.88186663704E+02  0.48698134882E+02 -0.10176626133E+03  0.14327197193E+03  0.47000000000E+01 0.  1.
         11    1    4    4    0    0 -0.18740761735E+02  0.39835043070E+01  0.22703115433E+02  0.29707169292E+02  0.00000000000E+00 0. -1.
        -12    1    4    4    0    0  0.27281684478E+02 -0.24509645981E+02 -0.29949358209E+02  0.47349520708E+02  0.00000000000E+00 0.  1.
</event>
<event>
12    1  0.8313893E-002  0.2197842E+03  0.7818608E-02  0.1134940E+00
         21   -1    0    0  501  502  0.00000000000E+00  0.00000000000E+00  0.77170398949E+03  0.77170398949E+03  0.00000000000E+00 0. -1.
         21   -1    0    0  502  503 -0.00000000000E+00 -0.00000000000E+00 -0.11126006861E+03  0.11126006861E+03  0.00000000000E+00 0. -1.
         -6    2    1    2    0  503  0.44281265000E+02  0.12828659735E+03  0.36233383681E+02  0.22275088939E+03  0.17287804703E+03 0.  0.
        -24    2    3    3    0    0  0.13307046677E+00  0.14524082574E+03  0.30309161277E+01  0.16477673314E+03  0.77764195892E+02 0.  0.
          6    2    1    2  501    0 -0.44281265000E+02 -0.12828659735E+03  0.62421053720E+03  0.66021316871E+03  0.16680633049E+03 0.  0.
         24    2    5    5    0    0 -0.61365633315E+02 -0.53241272817E+02  0.20783458692E+03  0.23675750592E+03  0.79110852639E+02 0.  0.
          5    1    5    5  501    0  0.17084368315E+02 -0.75045324530E+02  0.41637595028E+03  0.42345566279E+03  0.47000000000E+01 0. -1.
        -11    1    6    6    0    0 -0.32207799994E+02  0.17594763810E+02  0.71900473786E+02  0.80725437284E+02  0.00000000000E+00 0.  1.
         12    1    6    6    0    0 -0.29157833321E+02 -0.70836036627E+02  0.13593411313E+03  0.15603206863E+03  0.00000000000E+00 0. -1.
         -5    1    3    3    0  503  0.44148194533E+02 -0.16954228397E+02  0.33202467554E+02  0.57974156249E+02  0.47000000000E+01 0.  1.
         11    1    4    4    0    0  0.30648057818E+01  0.85266868007E+01 -0.23762169865E+02  0.25431046753E+02  0.00000000000E+00 0. -1.
        -12    1    4    4    0    0 -0.29317353150E+01  0.13671413894E+03  0.26793085993E+02  0.13934568639E+03  0.00000000000E+00 0.  1.
</event>
<event>
12    1  0.8313893E-002  0.1824569E+03  0.7818608E-02  0.1165833E+00
         21   -1    0    0  503  502  0.00000000000E+00  0.00000000000E+00  0.10962163935E+03  0.10962163935E+03  0.00000000000E+00 0.  1.
         21   -1    0    0  501  503 -0.00000000000E+00 -0.00000000000E+00 -0.91747214137E+03  0.91747214137E+03  0.00000000000E+00 0.  1.
          6    2    1    2  501    0  0.10011137370E+02  0.58749548660E+02 -0.82547380981E+03  0.84539784633E+03  0.17244934197E+03 0.  0.
         24    2    3    3    0    0  0.46071550901E+02  0.79545653868E+02 -0.75370818145E+03  0.76230015183E+03  0.67641701980E+02 0.  0.
         -6    2    1    2    0  502 -0.10011137370E+02 -0.58749548660E+02  0.17623307799E+02  0.18169593440E+03  0.17073692998E+03 0.  0.
        -24    2    5    5    0    0 -0.14029257511E+02 -0.10736371864E+03  0.92611293873E+01  0.13198176297E+03  0.74897457190E+02 0.  0.
          5    1    3    3  501    0 -0.36060413531E+02 -0.20796105209E+02 -0.71765628364E+02  0.83097694495E+02  0.47000000000E+01 0. -1.
        -13    1    4    4    0    0  0.62231318014E+02  0.74766727077E+02 -0.64141201363E+03  0.64874661591E+03  0.00000000000E+00 0.  1.
         14    1    4    4    0    0 -0.16159767113E+02  0.47789267917E+01 -0.11229616782E+03  0.11355353592E+03  0.00000000000E+00 0. -1.
         -5    1    5    5    0  502  0.40181201416E+01  0.48614169981E+02  0.83621784118E+01  0.49714171423E+02  0.47000000000E+01 0.  1.
         13    1    6    6    0    0 -0.15251570240E+02  0.72231875437E+01  0.35575983854E+01  0.17246487739E+02  0.00000000000E+00 0. -1.
        -14    1    6    6    0    0  0.12223127286E+01 -0.11458690618E+03  0.57035310019E+01  0.11473527524E+03  0.00000000000E+00 0.  1.
</event>
<event>
12    1  0.8313893E-002  0.1762339E+03  0.7818608E-02  0.1171559E+00
         21   -1    0    0  501  502  0.00000000000E+00  0.00000000000E+00  0.74521321267E+02  0.74521321267E+02  0.00000000000E+00 0.  1.
         21   -1    0    0  502  503 -0.00000000000E+00 -0.00000000000E+00 -0.45432582157E+03  0.45432582157E+03  0.00000000000E+00 0.  1.
         -6    2    1    2    0  503 -0.28583695217E+02  0.24175587331E+02 -0.26662025108E+03  0.31960092140E+03  0.17221179989E+03 0.  0.
        -24    2    3    3    0    0 -0.81442878910E+02  0.38236933188E+02 -0.16296512290E+03  0.20230518259E+03  0.79213319801E+02 0.  0.
          6    2    1    2  501    0  0.28583695217E+02 -0.24175587331E+02 -0.11318424923E+03  0.20924622143E+03  0.17196459012E+03 0.  0.
         24    2    5    5    0    0  0.98913741913E+01 -0.78669884655E+02 -0.46033157427E+02  0.12064379237E+03  0.78416089034E+02 0.  0.
          5    1    5    5  501    0  0.18692321026E+02  0.54494297325E+02 -0.67151091801E+02  0.88602429065E+02  0.47000000000E+01 0. -1.
        -13    1    6    6    0    0 -0.13226890665E+02 -0.23475237342E+02  0.18462266357E+02  0.32663323223E+02  0.00000000000E+00 0.  1.
         14    1    6    6    0    0  0.23118264856E+02 -0.55194647313E+02 -0.64495423784E+02  0.87980469146E+02  0.00000000000E+00 0. -1.
         -5    1    3    3    0  503  0.52859183692E+02 -0.14061345857E+02 -0.10365512817E+03  0.11729573882E+03  0.47000000000E+01 0.  1.
         13    1    4    4    0    0 -0.70761320639E+01  0.12026197980E+02  0.65004828823E+01  0.15393419391E+02  0.00000000000E+00 0. -1.
        -14    1    4    4    0    0 -0.74366746846E+02  0.26210735208E+02 -0.16946560579E+03  0.18691176320E+03  0.00000000000E+00 0.  1.
</event>
<event>
12    1  0.8313893E-002  0.2078085E+03  0.7818608E-02  0.1143422E+00
         21   -1    0    0  503  502  0.00000000000E+00  0.00000000000E+00  0.14860372957E+03  0.14860372957E+03  0.00000000000E+00 0. -1.
         21   -1    0    0  501  503 -0.00000000000E+00 -0.00000000000E+00 -0.29757646422E+03  0.29757646422E+03  0.00000000000E+00 0. -1.
          6    2    1    2  501    0  0.88290120352E+02  0.74903471488E+02 -0.11035178140E+03  0.23481330273E+03  0.17191304805E+03 0.  0.
         24    2    3    3    0    0  0.38561355192E+02  0.20391449278E+02 -0.13039368762E+03  0.15820861192E+03  0.78260218478E+02 0.  0.
         -6    2    1    2    0  502 -0.88290120352E+02 -0.74903471488E+02 -0.38620953248E+02  0.21136689105E+03  0.17256508688E+03 0.  0.
        -24    2    5    5    0    0 -0.31239202456E+02  0.19743856615E+02  0.13955317860E+02  0.88895350550E+02  0.79636202877E+02 0.  0.
          5    1    3    3  501    0  0.49728765160E+02  0.54512022211E+02  0.20041906217E+02  0.76604690813E+02  0.47000000000E+01 0. -1.
        -13    1    4    4    0    0 -0.21249881163E+02 -0.47529216899E+01 -0.17240817879E+02  0.27773971902E+02  0.00000000000E+00 0.  1.
         14    1    4    4    0    0  0.59811236355E+02  0.25144370967E+02 -0.11315286974E+03  0.13043464002E+03  0.00000000000E+00 0. -1.
         -5    1    5    5    0  502 -0.57050917895E+02 -0.94647328104E+02 -0.52576271108E+02  0.12247154050E+03  0.47000000000E+01 0.  1.
         13    1    6    6    0    0 -0.52993071460E+02  0.46199151660E+01  0.26672682806E+02  0.59506648762E+02  0.00000000000E+00 0. -1.
        -14    1    6    6    0    0  0.21753869003E+02  0.15123941449E+02 -0.12717364946E+02  0.29388701787E+02  0.00000000000E+00 0.  1.
</event>
<event>
12    1  0.8313893E-002  0.2426040E+03  0.7818608E-02  0.1118326E+00
         21   -1    0    0  503  502  0.00000000000E+00  0.00000000000E+00  0.43036191993E+03  0.43036191993E+03  0.00000000000E+00 0.  1.
         21   -1    0    0  501  503 -0.00000000000E+00 -0.00000000000E+00 -0.15931057489E+03  0.15931057489E+03  0.00000000000E+00 0. -1.
          6    2    1    2  501    0  0.88226568719E+02  0.14344087218E+03  0.22847053767E+02  0.24367747329E+03  0.17463536836E+03 0.  0.
         24    2    3    3    0    0  0.98626068019E+01  0.14036605961E+03  0.30931998336E+02  0.16469759402E+03  0.79803554137E+02 0.  0.
         -6    2    1    2    0  502 -0.88226568719E+02 -0.14344087218E+03  0.24820429128E+03  0.34599502154E+03  0.17247600843E+03 0.  0.
        -24    2    5    5    0    0  0.36327506229E+01 -0.88977541558E+02  0.66821371619E+02  0.13545703809E+03  0.77157719534E+02 0.  0.
          5    1    3    3  501    0  0.78363961917E+02  0.30748125696E+01 -0.80849445698E+01  0.78979879263E+02  0.47000000000E+01 0. -1.
        -11    1    4    4    0    0  0.21944841853E+02  0.11737698223E+03  0.52974244443E+02  0.13063384943E+03  0.00000000000E+00 0.  1.
         12    1    4    4    0    0 -0.12082235051E+02  0.22989077377E+02 -0.22042246107E+02  0.34063744596E+02  0.00000000000E+00 0. -1.
         -5    1    5    5    0  502 -0.91859319342E+02 -0.54463330619E+02  0.18138291966E+03  0.21053798345E+03  0.47000000000E+01 0.  1.
         13    1    6    6    0    0  0.12107558263E+02 -0.88212189897E+02  0.80046658482E+02  0.11973074354E+03  0.00000000000E+00 0. -1.
        -14    1    6    6    0    0 -0.84748076397E+01 -0.76535166101E+00 -0.13225286864E+02  0.15726294552E+02  0.00000000000E+00 0.  1.
</event>
<event>
12    1  0.8313893E-002  0.1776974E+03  0.7818608E-02  0.1170214E+00
         21   -1    0    0  501  502  0.00000000000E+00  0.00000000000E+00  0.55066446010E+02  0.55066446010E+02  0.00000000000E+00 0.  1.
         21   -1    0    0  502  503 -0.00000000000E+00 -0.00000000000E+00 -0.57164426636E+03  0.57164426636E+03  0.00000000000E+00 0.  1.
         -6    2    1    2    0  503  0.44254742569E+02  0.63367153224E+01 -0.24992395188E+03  0.30627247678E+03  0.17129568619E+03 0.  0.
        -24    2    3    3    0    0 -0.14306840016E+02  0.16023355196E+02 -0.55141946314E+02  0.10259280268E+03  0.83804625983E+02 0.  0.
          6    2    1    2  501    0 -0.44254742569E+02 -0.63367153224E+01 -0.26665386847E+03  0.32043823559E+03  0.17198180444E+03 0.  0.
         24    2    5    5    0    0 -0.22951077248E+02 -0.24269428790E+02 -0.48009829851E+02  0.99977958009E+02  0.81085702838E+02 0.  0.
          5    1    5    5  501    0 -0.21303665321E+02  0.17932713468E+02 -0.21864403862E+03  0.22046027759E+03  0.47000000000E+01 0. -1.
        -13    1    6    6    0    0 -0.18082350428E+02  0.29001274996E+02 -0.19927551543E+02  0.39562010299E+02  0.00000000000E+00 0.  1.
         14    1    6    6    0    0 -0.48687268195E+01 -0.53270703786E+02 -0.28082278308E+02  0.60415947710E+02  0.00000000000E+00 0. -1.
         -5    1    3    3    0  503  0.58561582584E+02 -0.96866398735E+01 -0.19478200557E+03  0.20367967409E+03  0.47000000000E+01 0.  1.
         13    1    4    4    0    0  0.32149882380E+02  0.16537164729E+02 -0.93141353690E+01  0.37334245298E+02  0.00000000000E+00 0. -1.
        -14    1    4    4    0    0 -0.46456722396E+02 -0.51380953278E+00 -0.45827810945E+02  0.65258557385E+02  0.00000000000E+00 0.  1.
</event>
<event>
12    1  0.8313893E-002  0.1826112E+03  0.7818608E-02  0.1165949E+00
         21   -1    0    0  501  502  0.00000000000E+00  0.00000000000E+00  0.16085856060E+03  0.16085856060E+03  0.00000000000E+00 0. -1.
         21   -1    0    0  502  503 -0.00000000000E+00 -0.00000000000E+00 -0.20459351103E+03  0.20459351103E+03  0.00000000000E+00 0. -1.
         -6    2    1    2    0  503 -0.49412092894E+02 -0.28315167956E+02 -0.14072758542E+02  0.18044749130E+03  0.17064568827E+03 0.  0.
        -24    2    3    3    0    0 -0.57966290276E+02  0.38933242746E+02 -0.31206086802E+02  0.11036779401E+03  0.79569729815E+02 0.  0.
          6    2    1    2  501    0  0.49412092894E+02  0.28315167956E+02 -0.29662191895E+02  0.18500458033E+03  0.17350373325E+03 0.  0.
         24    2    5    5    0    0  0.66921408712E+02 -0.16523845863E+02 -0.67074576812E+02  0.12385811807E+03  0.78040515968E+02 0.  0.
          5    1    5    5  501    0 -0.17509315818E+02  0.44839013819E+02  0.37412384917E+02  0.61146462251E+02  0.47000000000E+01 0. -1.
        -13    1    6    6    0    0 -0.11615033997E+02 -0.18749250729E+02 -0.29321049019E+02  0.36690153082E+02  0.00000000000E+00 0.  1.
         14    1    6    6    0    0  0.78536442708E+02  0.22254048665E+01 -0.37753527793E+02  0.87167964992E+02  0.00000000000E+00 0. -1.
         -5    1    3    3    0  503  0.85541973817E+01 -0.67248410702E+02  0.17133328260E+02  0.70079697289E+02  0.47000000000E+01 0.  1.
         13    1    4    4    0    0 -0.15787026816E+02 -0.24800913241E+02 -0.99927514336E+01  0.31051096510E+02  0.00000000000E+00 0. -1.
        -14    1    4    4    0    0 -0.42179263460E+02  0.63734155986E+02 -0.21213335368E+02  0.79316697503E+02  0.00000000000E+00 0.  1.
</event>
<event>
12    1  0.8313893E-002  0.1866127E+03  0.7818608E-02  0.1161617E+00
         21   -1    0    0  503  502  0.00000000000E+00  0.00000000000E+00  0.24291863812E+03  0.24291863812E+03  0.00000000000E+00 0. -1.
         21   -1    0    0  501  503 -0.00000000000E+00 -0.00000000000E+00 -0.15484905910E+03  0.15484905910E+03  0.00000000000E+00 0. -1.
          6    2    1    2  501    0 -0.28118203425E+02  0.66299665881E+02 -0.10617122068E+02  0.18691449660E+03  0.17215698272E+03 0.  0.
         24    2    3    3    0    0  0.45988310127E+01 -0.28660287097E+02 -0.15659207630E+02  0.86240221643E+02  0.79684400872E+02 0.  0.
         -6    2    1    2    0  502  0.28118203425E+02 -0.66299665881E+02  0.98686701094E+02  0.21085320062E+03  0.17185379885E+03 0.  0.
        -24    2    5    5    0    0  0.52000121611E+02 -0.85204909112E+02  0.11713854551E+03  0.17493224851E+03  0.83162272348E+02 0.  0.
          5    1    3    3  501    0 -0.32717034438E+02  0.94959952978E+02  0.50420855617E+01  0.10067427496E+03  0.47000000000E+01 0. -1.
        -11    1    4    4    0    0 -0.33374310182E+02 -0.32226041074E+02 -0.51491658646E+01  0.46678434127E+02  0.00000000000E+00 0.  1.
         12    1    4    4    0    0  0.37973141194E+02  0.35657539768E+01 -0.10510041766E+02  0.39561787517E+02  0.00000000000E+00 0. -1.
         -5    1    5    5    0  502 -0.23881918186E+02  0.18905243231E+02 -0.18451844414E+02  0.35920952105E+02  0.47000000000E+01 0.  1.
         11    1    6    6    0    0 -0.10222504616E+02 -0.41215432097E+02  0.79068229131E+02  0.89749631205E+02  0.00000000000E+00 0. -1.
        -12    1    6    6    0    0  0.62222626227E+02 -0.43989477015E+02  0.38070316378E+02  0.85182617309E+02  0.00000000000E+00 0.  1.
</event>
<event>
12    1  0.8313893E-002  0.2409959E+03  0.7818608E-02  0.1119303E+00
         21   -1    0    0  503  502  0.00000000000E+00  0.00000000000E+00  0.20788624039E+03  0.20788624039E+03  0.00000000000E+00 0. -1.
         21   -1    0    0  501  503 -0.00000000000E+00 -0.00000000000E+00 -0.31530184456E+03  0.31530184456E+03  0.00000000000E+00 0.  1.
          6    2    1    2  501    0  0.12509688298E+03  0.11252467694E+03 -0.14357200814E+03  0.28052087542E+03  0.17253407481E+03 0.  0.
         24    2    3    3    0    0  0.21116588045E+02 -0.74919453944E+01 -0.47130114117E+02  0.94674109789E+02  0.78993036853E+02 0.  0.
         -6    2    1    2    0  502 -0.12509688298E+03 -0.11252467694E+03  0.36156403973E+02  0.24266720953E+03  0.17108201536E+03 0.  0.
        -24    2    5    5    0    0 -0.15214041756E+02 -0.23475553854E+02  0.53527054769E+02  0.10009156425E+03  0.79816081998E+02 0.  0.
          5    1    3    3  501    0  0.10398029494E+03  0.12001662234E+03 -0.96441894022E+02  0.18584676563E+03  0.47000000000E+01 0. -1.
        -13    1    4    4    0    0  0.36282901356E+02  0.24259286473E+02 -0.12728387745E+02  0.45463983169E+02  0.00000000000E+00 0.  1.
         14    1    4    4    0    0 -0.15166313311E+02 -0.31751231868E+02 -0.34401726372E+02  0.49210126620E+02  0.00000000000E+00 0. -1.
         -5    1    5    5    0  502 -0.10988284123E+03 -0.89049123090E+02 -0.17370650796E+02  0.14257564528E+03  0.47000000000E+01 0.  1.
         13    1    6    6    0    0  0.11313143184E+02 -0.22836496585E+02  0.66016086740E+02  0.70764514366E+02  0.00000000000E+00 0. -1.
        -14    1    6    6    0    0 -0.26527184940E+02 -0.63905726970E+00 -0.12489031972E+02  0.29327049879E+02  0.00000000000E+00 0.  1.
</event>
<event>
12    1  0.8313893E-002  0.2289934E+03  0.7818608E-02  0.1127513E+00
         21   -1    0    0  501  502  0.00000000000E+00  0.00000000000E+00  0.55717526174E+02  0.55717526174E+02  0.00000000000E+00 0.  1.
         21   -1    0    0  502  503 -0.00000000000E+00 -0.00000000000E+00 -0.10307286920E+04  0.10307286920E+04  0.00000000000E+00 0. -1.
         -6    2    1    2    0  503  0.14317455550E+03  0.46428469271E+02 -0.32313683144E+03  0.39552066246E+03  0.17136109972E+03 0.  0.
        -24    2    3    3    0    0  0.84097254798E+02 -0.27472506910E+02 -0.24719704136E+03  0.27411051686E+03  0.78759832986E+02 0.  0.
          6    2    1    2  501    0 -0.14317455550E+03 -0.46428469271E+02 -0.65187433438E+03  0.69092555571E+03  0.17257873451E+03 0.  0.
         24    2    5    5    0    0 -0.99479547386E+02  0.34948836654E+02 -0.30803408634E+03  0.33486414832E+03  0.78303243580E+02 0.  0.
          5    1    5    5  501    0 -0.43695008114E+02 -0.81377305925E+02 -0.34384024804E+03  0.35606140738E+03  0.47000000000E+01 0. -1.
        -11    1    6    6    0    0 -0.14688371037E+01 -0.37465251187E+01  0.39055367469E+01  0.56077758678E+01  0.00000000000E+00 0.  1.
         12    1    6    6    0    0 -0.98010710282E+02  0.38695361773E+02 -0.31193962308E+03  0.32925637245E+03  0.00000000000E+00 0. -1.
         -5    1    3    3    0  503  0.59077300702E+02  0.73900976181E+02 -0.75939790077E+02  0.12141014560E+03  0.47000000000E+01 0.  1.
         13    1    4    4    0    0  0.89281265807E+01  0.15633863767E+02 -0.11261668900E+03  0.11404669124E+03  0.00000000000E+00 0. -1.
        -14    1    4    4    0    0  0.75169128217E+02 -0.43106370677E+02 -0.13458035236E+03  0.16006382562E+03  0.00000000000E+00 0.  1.
</event>
<event>
12    1  0.8313893E-002  0.1831319E+03  0.7818608E-02  0.1164868E+00
         21   -1    0    0  503  502  0.00000000000E+00  0.00000000000E+00  0.21711791636E+03  0.21711791636E+03  0.00000000000E+00 0. -1.
         21   -1    0    0  501  503 -0.00000000000E+00 -0.00000000000E+00 -0.27637654553E+03  0.27637654553E+03  0.00000000000E+00 0. -1.
          6    2    1    2  501    0  0.11223179791E+02  0.60707294386E+02 -0.19364470814E+03  0.26634492155E+03  0.17213369481E+03 0.  0.
         24    2    3    3    0    0  0.26514866054E+02 -0.88848628553E+00 -0.18439673303E+03  0.20203713890E+03  0.78185822343E+02 0.  0.
         -6    2    1    2    0  502 -0.11223179791E+02 -0.60707294386E+02  0.13438607897E+03  0.22714954035E+03  0.17241218084E+03 0.  0.
        -24    2    5    5    0    0 -0.21920965660E+02 -0.92491601224E+02  0.44630137025E+02  0.13121777346E+03  0.78683097986E+02 0.  0.
          5    1    3    3  501    0 -0.15291686263E+02  0.61595780672E+02 -0.92479751102E+01  0.64307782647E+02  0.47000000000E+01 0. -1.
        -11    1    4    4    0    0  0.87353715035E+01 -0.25743433975E+02 -0.17421285485E+02  0.32288268707E+02  0.00000000000E+00 0.  1.
         12    1    4    4    0    0  0.17779494550E+02  0.24854947690E+02 -0.16697544754E+03  0.16974887020E+03  0.00000000000E+00 0. -1.
         -5    1    5    5    0  502  0.10697785869E+02  0.31784306838E+02  0.89755941944E+02  0.95931766886E+02  0.47000000000E+01 0.  1.
         13    1    6    6    0    0 -0.24375327446E+01  0.13301030297E+02  0.13786932041E+02  0.19311614846E+02  0.00000000000E+00 0. -1.
        -14    1    6    6    0    0 -0.19483432916E+02 -0.10579263152E+03  0.30843204984E+02  0.11190615862E+03  0.00000000000E+00 0.  1.
</event>
<event>
12    1  0.8313893E-002  0.1860476E+03  0.7818608E-02  0.1162397E+00
         21   -1    0    0  501  502  0.00000000000E+00  0.00000000000E+00  0.12976522134E+03  0.12976522134E+03  0.00000000000E+00 0.  1.
         21   -1    0    0  502  503 -0.00000000000E+00 -0.00000000000E+00 -0.26720694166E+03  0.26720694166E+03  0.00000000000E+00 0.  1.
         -6    2    1    2    0  503 -0.44851873753E+02 -0.55765278884E+02 -0.87968725247E+02  0.20579655714E+03  0.17173313425E+03 0.  0.
        -24    2    3    3    0    0 -0.48842175727E+02 -0.10163068406E+03 -0.47501766850E+02  0.14432117488E+03  0.76536459243E+02 0.  0.
          6    2    1    2  501    0  0.44851873753E+02  0.55765278884E+02 -0.49472995072E+02  0.19117560586E+03  0.17023242384E+03 0.  0.
         24    2    5    5    0    0 -0.46642204873E+00 -0.29302812929E+00 -0.78896893933E+02  0.11317472417E+03  0.81138738616E+02 0.  0.
          5    1    5    5  501    0  0.45318295802E+02  0.56058307013E+02  0.29423898861E+02  0.78000881686E+02  0.47000000000E+01 0. -1.
        -11    1    6    6    0    0  0.48472935097E+01  0.40100587550E+02 -0.39994675626E+02  0.56843007087E+02  0.00000000000E+00 0.  1.
         12    1    6    6    0    0 -0.53137155585E+01 -0.40393615679E+02 -0.38902218306E+02  0.56331717086E+02  0.00000000000E+00 0. -1.
         -5    1    3    3    0  503  0.39903019740E+01  0.45865405175E+02 -0.40466958397E+02  0.61475382257E+02  0.47000000000E+01 0.  1.
         11    1    4    4    0    0  0.16321736618E+02 -0.47651156734E+02 -0.27438278326E+02  0.57357570920E+02  0.00000000000E+00 0. -1.
        -12    1    4    4    0    0 -0.65163912346E+02 -0.53979527325E+02 -0.20063488524E+02  0.86963603962E+02  0.00000000000E+00 0.  1.
</event>
<event>
12    1  0.8313893E-002  0.2649117E+03  0.7818608E-02  0.1104306E+00
         21   -1    0    0  503  502  0.00000000000E+00  0.00000000000E+00  0.26164089147E+03  0.26164089147E+03  0.00000000000E+00 0.  1.
         21   -1    0    0  501  503 -0.00000000000E+00 -0.00000000000E+00 -0.30824851732E+03  0.30824851732E+03  0.00000000000E+00 0. -1.
          6    2    1    2  501    0 -0.99433571868E+02  0.17521289275E+03 -0.12669621046E+03  0.29364969687E+03  0.17202215475E+03 0.  0.
         24    2    3    3    0    0 -0.52550781678E+02  0.18645216943E+03 -0.73929656042E+02  0.22202067606E+03  0.79382557385E+02 0.  0.
         -6    2    1    2    0  502  0.99433571868E+02 -0.17521289275E+03  0.80088584613E+02  0.27623971191E+03  0.17119463792E+03 0.  0.
        -24    2    5    5    0    0  0.10443948372E+00 -0.70775865034E+02  0.38086849657E+02  0.12604115986E+03  0.97090328477E+02 0.  0.
          5    1    3    3  501    0 -0.46882790190E+02 -0.11239276677E+02 -0.52766554421E+02  0.71629020806E+02  0.47000000000E+01 0. -1.
        -13    1    4    4    0    0 -0.61457070888E+02  0.17896884671E+03 -0.83620967496E+02  0.20687988269E+03  0.00000000000E+00 0.  1.
         14    1    4    4    0    0  0.89062892099E+01  0.74833227194E+01  0.96913114539E+01  0.15140793378E+02  0.00000000000E+00 0. -1.
         -5    1    5    5    0  502  0.99329132384E+02 -0.10443702772E+03  0.42001734955E+02  0.15019855205E+03  0.47000000000E+01 0.  1.
         11    1    6    6    0    0 -0.90548458533E+01 -0.86661612544E+02  0.38685177471E+01  0.87219210909E+02  0.00000000000E+00 0. -1.
        -12    1    6    6    0    0  0.91592853370E+01  0.15885747509E+02  0.34218331910E+02  0.38821948953E+02  0.00000000000E+00 0.  1.
</event>
<event>
12    1  0.8313893E-002  0.1909193E+03  0.7818608E-02  0.1157799E+00
         21   -1    0    0  503  502  0.00000000000E+00  0.00000000000E+00  0.36834289772E+03  0.36834289772E+03  0.00000000000E+00 0. -1.
         21   -1    0    0  501  503 -0.00000000000E+00 -0.00000000000E+00 -0.12661087854E+03  0.12661087854E+03  0.00000000000E+00 0.  1.
          6    2    1    2  501    0 -0.35904947960E+01  0.80400262908E+02  0.45994807519E+01  0.19097470164E+03  0.17312737368E+03 0.  0.
         24    2    3    3    0    0 -0.37138201769E+02  0.66558095956E+02  0.60541027321E+02  0.12412710736E+03  0.77026596861E+02 0.  0.
         -6    2    1    2    0  502  0.35904947960E+01 -0.80400262908E+02  0.23713253843E+03  0.30397907462E+03  0.17232046628E+03 0.  0.
        -24    2    5    5    0    0 -0.39642482254E+02 -0.10279916635E+03  0.13871175044E+03  0.19407210174E+03  0.79270650065E+02 0.  0.
          5    1    3    3  501    0  0.33547706973E+02  0.13842166952E+02 -0.55941546569E+02  0.66847594285E+02  0.47000000000E+01 0. -1.
        -13    1    4    4    0    0 -0.15511986126E+02 -0.14659569684E+02  0.14624340885E+01  0.21393069213E+02  0.00000000000E+00 0.  1.
         14    1    4    4    0    0 -0.21626215643E+02  0.81217665640E+02  0.59078593233E+02  0.10273403814E+03  0.00000000000E+00 0. -1.
         -5    1    5    5    0  502  0.43232977050E+02  0.22398903441E+02  0.98420787992E+02  0.10990697289E+03  0.47000000000E+01 0.  1.
         11    1    6    6    0    0  0.15776171074E+01 -0.70670574267E+02  0.11861127455E+03  0.13807770781E+03  0.00000000000E+00 0. -1.
        -12    1    6    6    0    0 -0.41220099361E+02 -0.32128592082E+02  0.20100475886E+02  0.55994393928E+02  0.00000000000E+00 0.  1.
</event>
<event>
12    1  0.8313893E-002  0.2132809E+03  0.7818608E-02  0.1139868E+00
         21   -1    0    0  503  502  0.00000000000E+00  0.00000000000E+00  0.71625563701E+02  0.71625563701E+02  0.00000000000E+00 0. -1.
         21   -1    0    0  501  503 -0.00000000000E+00 -0.00000000000E+00 -0.10352755708E+04  0.10352755708E+04  0.00000000000E+00 0.  1.
          6    2    1    2  501    0  0.10930835734E+03 -0.46442403653E+02 -0.82848289657E+03  0.85439589777E+03  0.17176503243E+03 0.  0.
         24    2    3    3    0    0  0.90362512786E+02 -0.72722054589E+02 -0.79575252157E+03  0.80810407854E+03  0.79726063692E+02 0.  0.
         -6    2    1    2    0  502 -0.10930835734E+03  0.46442403653E+02 -0.13516711057E+03  0.25250523678E+03  0.17715398098E+03 0.  0.
        -24    2    5    5    0    0 -0.13187557759E+03  0.53791460298E+02 -0.15161572641E+03  0.22324886950E+03  0.81043445603E+02 0.  0.
          5    1    3    3  501    0  0.18945844558E+02  0.26279650937E+02 -0.32730375003E+02  0.46291819225E+02  0.47000000000E+01 0. -1.
        -13    1    4    4    0    0  0.75276594828E+02 -0.10298401613E+02 -0.46654175559E+03  0.47268788065E+03  0.00000000000E+00 0.  1.
         14    1    4    4    0    0  0.15085917958E+02 -0.62423652976E+02 -0.32921076598E+03  0.33541619789E+03  0.00000000000E+00 0. -1.
         -5    1    5    5    0  502  0.22567220244E+02 -0.73490566447E+01  0.16448615837E+02  0.29256367274E+02  0.47000000000E+01 0.  1.
         13    1    6    6    0    0  0.34483716191E-01 -0.11255608222E+02  0.99819004373E+00  0.11299835793E+02  0.00000000000E+00 0. -1.
        -14    1    6    6    0    0 -0.13191006130E+03  0.65047068520E+02 -0.15261391645E+03  0.21194903371E+03  0.00000000000E+00 0.  1.
</event>
<event>
12    1  0.8313893E-002  0.2530257E+03  0.7818608E-02  0.1113054E+00
         21   -1    0    0  503  502  0.00000000000E+00  0.00000000000E+00  0.11658459598E+03  0.11658459598E+03  0.00000000000E+00 0. -1.
         21   -1    0    0  501  503 -0.00000000000E+00 -0.00000000000E+00 -0.57629751851E+03  0.57629751851E+03  0.00000000000E+00 0.  1.
          6    2    1    2  501    0  0.22739838058E+02 -0.16919940657E+03 -0.13284843005E+03  0.28578087443E+03  0.18675241205E+03 0.  0.
         24    2    3    3    0    0 -0.49722558074E+02 -0.10170213874E+03 -0.12462530068E+03  0.18630027394E+03  0.79753800511E+02 0.  0.
         -6    2    1    2    0  502 -0.22739838058E+02  0.16919940657E+03 -0.32686449248E+03  0.40710124007E+03  0.17246879079E+03 0.  0.
        -24    2    5    5    0    0 -0.64335735597E+01  0.95294470159E+01 -0.13169809124E+03  0.15437133598E+03  0.79711485409E+02 0.  0.
          5    1    3    3  501    0  0.72462396131E+02 -0.67497267832E+02 -0.82231293674E+01  0.99480600493E+02  0.47000000000E+01 0. -1.
        -13    1    4    4    0    0  0.54301863865E+00 -0.43636537583E+02 -0.93968583824E+02  0.10360761086E+03  0.00000000000E+00 0.  1.
         14    1    4    4    0    0 -0.50265576712E+02 -0.58065601154E+02 -0.30656716854E+02  0.82692663084E+02  0.00000000000E+00 0. -1.
         -5    1    5    5    0  502 -0.16306264498E+02  0.15966995955E+03 -0.19516640125E+03  0.25272990409E+03  0.47000000000E+01 0.  1.
         13    1    6    6    0    0  0.33235263095E+02  0.76519994666E+01 -0.30857859518E+02  0.45992861434E+02  0.00000000000E+00 0. -1.
        -14    1    6    6    0    0 -0.39668836654E+02  0.18774475493E+01 -0.10084023172E+03  0.10837847454E+03  0.00000000000E+00 0.  1.
</event>
<event>
12    1  0.8313893E-002  0.2013838E+03  0.7818608E-02  0.1149026E+00
         21   -1    0    0  501  502  0.00000000000E+00  0.00000000000E+00  0.11584784334E+03  0.11584784334E+03  0.00000000000E+00 0. -1.
         21   -1    0    0  502  503 -0.00000000000E+00 -0.00000000000E+00 -0.53760958512E+03  0.53760958512E+03  0.00000000000E+00 0. -1.
         -6    2    1    2    0  503  0.98998580998E+02 -0.35365490613E+02 -0.40647473150E+03  0.45362665609E+03  0.17176728093E+03 0.  0.
        -24    2    3    3    0    0  0.62464117097E+02  0.25239087954E+02 -0.11889765091E+03  0.15743356151E+03  0.78165832766E+02 0.  0.
          6    2    1    2  501    0 -0.98998580998E+02  0.35365490613E+02 -0.15287010278E+02  0.19983077237E+03  0.16925486089E+03 0.  0.
         24    2    5    5    0    0 -0.47085159558E+02 -0.35579644851E+02 -0.40085192615E+02  0.10836900211E+03  0.81572633725E+02 0.  0.
          5    1    5    5  501    0 -0.51913421440E+02  0.70945135465E+02  0.24798182337E+02  0.91461770259E+02  0.47000000000E+01 0. -1.
        -13    1    6    6    0    0 -0.12672414239E+02  0.16568924415E+02 -0.40868810262E+02  0.45884409020E+02  0.00000000000E+00 0.  1.
         14    1    6    6    0    0 -0.34412745319E+02 -0.52148569266E+02  0.78361764741E+00  0.62484593088E+02  0.00000000000E+00 0. -1.
         -5    1    3    3    0  503  0.36534463901E+02 -0.60604578567E+02 -0.28757708059E+03  0.29619309458E+03  0.47000000000E+01 0.  1.
         13    1    4    4    0    0  0.37667706358E+02  0.40172038502E+02 -0.11591902012E+03  0.12833498356E+03  0.00000000000E+00 0. -1.
        -14    1    4    4    0    0  0.24796410739E+02 -0.14932950548E+02 -0.29786307974E+01  0.29098577955E+02  0.00000000000E+00 0.  1.
</event>
<event>
12    1  0.8313893E-002  0.3296039E+03  0.7818608E-02  0.1071451E+00
         21   -1    0    0  503  502  0.00000000000E+00  0.00000000000E+00  0.15750205216E+03  0.15750205216E+03  0.00000000000E+00 0.  1.
         21   -1    0    0  501  503 -0.00000000000E+00 -0.00000000000E+00 -0.78847758250E+03  0.78847758250E+03  0.00000000000E+00 0. -1.
          6    2    1    2  501    0  0.13752015740E+03  0.24503196951E+03 -0.14540478603E+03  0.35910851470E+03  0.16989383084E+03 0.  0.
         24    2    3    3    0    0  0.54172229287E+02  0.19566535281E+03 -0.14308015219E+03  0.26209596970E+03  0.83682774005E+02 0.  0.
         -6    2    1    2    0  502 -0.13752015740E+03 -0.24503196951E+03 -0.48557074431E+03  0.58687111996E+03  0.17229713849E+03 0.  0.
        -24    2    5    5    0    0 -0.68669533916E+02 -0.81615255632E+02 -0.31279187996E+03  0.33924225109E+03  0.76615859421E+02 0.  0.
          5    1    3    3  501    0  0.83347928115E+02  0.49366616702E+02 -0.23246338382E+01  0.97012545004E+02  0.47000000000E+01 0. -1.
        -11    1    4    4    0    0 -0.11715686237E+02  0.10019858624E+02  0.43808506982E+01  0.16026438272E+02  0.00000000000E+00 0.  1.
         12    1    4    4    0    0  0.65887915524E+02  0.18564549419E+03 -0.14746100289E+03  0.24606953143E+03  0.00000000000E+00 0. -1.
         -5    1    5    5    0  502 -0.68850623487E+02 -0.16341671388E+03 -0.17277886435E+03  0.24762886887E+03  0.47000000000E+01 0.  1.
         11    1    6    6    0    0  0.80390829453E+01 -0.40819172812E+02 -0.70703069126E+02  0.82035088270E+02  0.00000000000E+00 0. -1.
        -12    1    6    6    0    0 -0.76708616861E+02 -0.40796082820E+02 -0.24208881084E+03  0.25720716282E+03  0.00000000000E+00 0.  1.
</event>
<event>
12    1  0.8313893E-002  0.2238047E+03  0.7818608E-02  0.1131220E+00
         21   -1    0    0  503  502  0.00000000000E+00  0.00000000000E+00  0.22160732971E+04  0.22160732971E+04  0.00000000000E+00 0.  1.
         21   -1    0    0  501  503 -0.00000000000E+00 -0.00000000000E+00 -0.11329443129E+03  0.11329443129E+03  0.00000000000E+00 0. -1.
          6    2    1    2  501    0 -0.14370517492E+03  0.10501274732E+02  0.85274658173E+01  0.22319170262E+03  0.17023620172E+03 0.  0.
         24    2    3    3    0    0 -0.24559991632E+02 -0.28448471598E+02  0.37111072850E+02  0.94538020081E+02  0.78407249586E+02 0.  0.
         -6    2    1    2    0  502  0.14370517492E+03 -0.10501274732E+02  0.20942514000E+04  0.21061760258E+04  0.17125148487E+03 0.  0.
        -24    2    5    5    0    0  0.78047807529E+02  0.41149971817E+02  0.76382339750E+03  0.77311957498E+03  0.80640648618E+02 0.  0.
          5    1    3    3  501    0 -0.11914518328E+03  0.38949746330E+02 -0.28583607033E+02  0.12865368254E+03  0.47000000000E+01 0. -1.
        -13    1    4    4    0    0 -0.21830063829E+02 -0.49452472279E+02  0.26912896070E+01  0.54123393658E+02  0.00000000000E+00 0.  1.
         14    1    4    4    0    0 -0.27299278032E+01  0.21004000681E+02  0.34419783243E+02  0.40414626423E+02  0.00000000000E+00 0. -1.
         -5    1    5    5    0  502  0.65657367388E+02 -0.51651246549E+02  0.13304280025E+04  0.13330564508E+04  0.47000000000E+01 0.  1.
         11    1    6    6    0    0  0.70902505058E+02  0.30740218344E+02  0.75154478864E+03  0.75550757480E+03  0.00000000000E+00 0. -1.
        -12    1    6    6    0    0  0.71453024718E+01  0.10409753473E+02  0.12278608853E+02  0.17612000175E+02  0.00000000000E+00 0.  1.
</event>
<event>
12    1  0.8313893E-002  0.1866462E+03  0.7818608E-02  0.1161679E+00
         21   -1    0    0  501  502  0.00000000000E+00  0.00000000000E+00  0.26615759810E+03  0.26615759810E+03  0.00000000000E+00 0. -1.
         21   -1    0    0  502  503 -0.00000000000E+00 -0.00000000000E+00 -0.24953266480E+03  0.24953266480E+03  0.00000000000E+00 0. -1.
         -6    2    1    2    0  503 -0.61701113623E+02 -0.35418537862E+02 -0.16984658759E+03  0.25185618821E+03  0.17182018501E+03 0.  0.
        -24    2    3    3    0    0 -0.26727340681E+02  0.84809770489E+01 -0.17592970881E+03  0.19520438712E+03  0.79794815599E+02 0.  0.
          6    2    1    2  501    0  0.61701113623E+02  0.35418537862E+02  0.18647152089E+03  0.26383407468E+03  0.17255518136E+03 0.  0.
         24    2    5    5    0    0  0.73247849972E+02 -0.13315161360E+02  0.18086504167E+03  0.21321961855E+03  0.84899360368E+02 0.  0.
          5    1    5    5  501    0 -0.11546736350E+02  0.48733699222E+02  0.56064792246E+01  0.50614456131E+02  0.47000000000E+01 0. -1.
        -11    1    6    6    0    0 -0.12610685154E+02 -0.42678074937E+01  0.57634484621E+00  0.13325754546E+02  0.00000000000E+00 0.  1.
         12    1    6    6    0    0  0.85858535126E+02 -0.90473538663E+01  0.18028869682E+03  0.19989386400E+03  0.00000000000E+00 0. -1.
         -5    1    3    3    0  503 -0.34973772941E+02 -0.43899514911E+02  0.60831212230E+01  0.56651801092E+02  0.47000000000E+01 0.  1.
         11    1    4    4    0    0 -0.70743763435E+01 -0.35295992338E+02 -0.87017579473E+02  0.94169597074E+02  0.00000000000E+00 0. -1.
        -12    1    4    4    0    0 -0.19652964338E+02  0.43776969386E+02 -0.88912129338E+02  0.10103479004E+03  0.00000000000E+00 0.  1.
</event>
<event>
12    1  0.8313893E-002  0.1767142E+03  0.7818608E-02  0.1171349E+00
         21   -1    0    0  503  502  0.00000000000E+00  0.00000000000E+00  0.29792500853E+03  0.29792500853E+03  0.00000000000E+00 0.  1.
         21   -1    0    0  501  503 -0.00000000000E+00 -0.00000000000E+00 -0.23926299318E+03  0.23926299318E+03  0.00000000000E+00 0.  1.
          6    2    1    2  501    0 -0.18044371929E+02 -0.32567430373E+02 -0.17254394663E+03  0.24698038500E+03  0.17274738833E+03 0.  0.
         24    2    3    3    0    0  0.27886152639E+02 -0.13231821059E+02 -0.19043852395E+02  0.85524979996E+02  0.77454085055E+02 0.  0.
         -6    2    1    2    0  502  0.18044371929E+02  0.32567430373E+02  0.23120596197E+03  0.29020761671E+03  0.17140019564E+03 0.  0.
        -24    2    5    5    0    0  0.83149053484E+01  0.19594229774E+02  0.34535498441E+02  0.92813777697E+02  0.83478291708E+02 0.  0.
          5    1    3    3  501    0 -0.45930524568E+02 -0.19335609314E+02 -0.15350009423E+03  0.16145540500E+03  0.47000000000E+01 0. -1.
        -13    1    4    4    0    0 -0.10079677699E+02  0.17444705677E+02 -0.29387501171E+02  0.35630645289E+02  0.00000000000E+00 0.  1.
         14    1    4    4    0    0  0.37965830339E+02 -0.30676526736E+02  0.10343648776E+02  0.49894334707E+02  0.00000000000E+00 0. -1.
         -5    1    5    5    0  502  0.97294665803E+01  0.12973200599E+02  0.19667046353E+03  0.19739383901E+03  0.47000000000E+01 0.  1.
         13    1    6    6    0    0 -0.12141327364E+02 -0.29663569157E+02  0.70769572413E+01  0.32824114445E+02  0.00000000000E+00 0. -1.
        -14    1    6    6    0    0  0.20456232712E+02  0.49257798931E+02  0.27458541200E+02  0.59989663252E+02  0.00000000000E+00 0.  1.
</event>
<event>
12    1  0.8313893E-002  0.2028684E+03  0.7818608E-02  0.1148022E+00
         21   -1    0    0  503  502  0.00000000000E+00  0.00000000000E+00  0.33548268728E+03  0.33548268728E+03  0.00000000000E+00 0.  1.
         21   -1    0    0  501  503 -0.00000000000E+00 -0.00000000000E+00 -0.16022280364E+03  0.16022280364E+03  0.00000000000E+00 0.  1.
          6    2    1    2  501    0  0.89108588807E+02 -0.48650019018E+02 -0.35981596039E+02  0.20282571452E+03  0.17186166025E+03 0.  0.
         24    2    3    3    0    0  0.11457547499E+03 -0.79079109213E+02 -0.26256748798E+02  0.16170206589E+03  0.77955732774E+02 0.  0.
         -6    2    1    2    0  502 -0.89108588807E+02  0.48650019018E+02  0.21124147968E+03  0.29287977640E+03  0.17563722765E+03 0.  0.
        -24    2    5    5    0    0  0.25015635274E+02  0.21750060295E+02  0.79709084902E+02  0.11661064360E+03  0.78394239931E+02 0.  0.
          5    1    3    3  501    0 -0.25466886188E+02  0.30429090195E+02 -0.97248472408E+01  0.41123648623E+02  0.47000000000E+01 0. -1.
        -11    1    4    4    0    0  0.25682737059E+02 -0.15508489409E+02 -0.41658327692E+02  0.51337437536E+02  0.00000000000E+00 0.  1.
         12    1    4    4    0    0  0.88892737935E+02 -0.63570619805E+02  0.15401578894E+02  0.11036462836E+03  0.00000000000E+00 0. -1.
         -5    1    5    5    0  502 -0.11412422408E+03  0.26899958723E+02  0.13153239478E+03  0.17626913280E+03  0.47000000000E+01 0.  1.
         13    1    6    6    0    0  0.19557241041E+02  0.12394304977E+02 -0.10734159054E+02  0.25521101927E+02  0.00000000000E+00 0. -1.
        -14    1    6    6    0    0  0.54583942329E+01  0.93557553186E+01  0.90443243956E+02  0.91089541675E+02  0.00000000000E+00 0.  1.
</event>
<event>
12    1  0.8313893E-002  0.2118481E+03  0.7818608E-02  0.1140155E+00
         21   -1    0    0  501  502  0.00000000000E+00  0.00000000000E+00  0.92679636274E+02  0.92679636274E+02  0.00000000000E+00 0. -1.
         21   -1    0    0  502  503 -0.00000000000E+00 -0.00000000000E+00 -0.51918430670E+03  0.51918430670E+03  0.00000000000E+00 0.  1.
         -6    2    1    2    0  503  0.11824510303E+03 -0.30235382369E+02 -0.13320264173E+03  0.25005500103E+03  0.17288284195E+03 0.  0.
        -24    2    3    3    0    0  0.66699846880E+02 -0.47759209713E+02 -0.15408821698E+03  0.19155461462E+03  0.78868118298E+02 0.  0.
          6    2    1    2  501    0 -0.11824510303E+03  0.30235382369E+02 -0.29330202870E+03  0.36180894195E+03  0.17315758052E+03 0.  0.
         24    2    5    5    0    0 -0.45511622039E+02 -0.26839225789E+02 -0.23191221445E+03  0.25073027861E+03  0.79314220786E+02 0.  0.
          5    1    5    5  501    0 -0.72733480995E+02  0.57074608158E+02 -0.61389814252E+02  0.11107866333E+03  0.47000000000E+01 0. -1.
        -13    1    6    6    0    0 -0.47833437237E+02 -0.31471621390E+02 -0.78151012458E+02  0.96881790957E+02  0.00000000000E+00 0.  1.
         14    1    6    6    0    0  0.23218151978E+01  0.46323956013E+01 -0.15376120200E+03  0.15384848766E+03  0.00000000000E+00 0. -1.
         -5    1    3    3    0  503  0.51545256154E+02  0.17523827344E+02  0.20885575255E+02  0.58500386413E+02  0.47000000000E+01 0.  1.
         11    1    4    4    0    0  0.60616596789E+01 -0.51562999688E+02 -0.84497944232E+02  0.99173530915E+02  0.00000000000E+00 0. -1.
        -12    1    4    4    0    0  0.60638187201E+02  0.38037899748E+01 -0.69590272749E+02  0.92381083705E+02  0.00000000000E+00 0.  1.
</event>
<event>
12    1  0.8313893E-002  0.2584469E+03  0.7818608E-02  0.1108119E+00
         21   -1    0    0  503  502  0.00000000000E+00  0.00000000000E+00  0.25554429754E+03  0.25554429754E+03  0.00000000000E+00 0.  1.
         21   -1    0    0  501  503 -0.00000000000E+00 -0.00000000000E+00 -0.26519083206E+03  0.26519083206E+03  0.00000000000E+00 0. -1.
          6    2    1    2  501    0 -0.12507056032E+03 -0.14636292219E+03 -0.37074087943E+02  0.26083692363E+03  0.17203680618E+03 0.  0.
         24    2    3    3    0    0 -0.31617661930E+02 -0.51057707318E+02  0.38657300763E+02  0.10729910602E+03  0.80075871701E+02 0.  0.
         -6    2    1    2    0  502  0.12507056032E+03  0.14636292219E+03  0.27427553421E+02  0.25989820598E+03  0.17242406078E+03 0.  0.
        -24    2    5    5    0    0  0.56786685708E+02  0.62086538040E+01 -0.94948690151E+01  0.99613266709E+02  0.81051682963E+02 0.  0.
          5    1    3    3  501    0 -0.93452898389E+02 -0.95305214870E+02 -0.75731388706E+02  0.15353781760E+03  0.47000000000E+01 0. -1.
        -13    1    4    4    0    0 -0.22373328198E+02  0.16328347275E+02  0.26247615621E+02  0.38159115099E+02  0.00000000000E+00 0.  1.
         14    1    4    4    0    0 -0.92443337315E+01 -0.67386054592E+02  0.12409685143E+02  0.69139990924E+02  0.00000000000E+00 0. -1.
         -5    1    5    5    0  502  0.68283874610E+02  0.14015426838E+03  0.36922422436E+02  0.16028493927E+03  0.47000000000E+01 0.  1.
         13    1    6    6    0    0  0.69263985570E+02 -0.13134678210E+02 -0.21431431510E+02  0.73683958399E+02  0.00000000000E+00 0. -1.
        -14    1    6    6    0    0 -0.12477299862E+02  0.19343332014E+02  0.11936562495E+02  0.25929308310E+02  0.00000000000E+00 0.  1.
</event>
<event>
12    1  0.8313893E-002  0.1975402E+03  0.7818608E-02  0.1153611E+00
         21   -1    0    0  501  502  0.00000000000E+00  0.00000000000E+00  0.19964642097E+03  0.19964642097E+03  0.00000000000E+00 0.  1.
         21   -1    0    0  502  503 -0.00000000000E+00 -0.00000000000E+00 -0.28069959843E+03  0.28069959843E+03  0.00000000000E+00 0.  1.
         -6    2    1    2    0  503  0.11771130199E+02  0.77463749588E+02 -0.17946170455E+03  0.26688690053E+03  0.18133648907E+03 0.  0.
        -24    2    3    3    0    0  0.17673329666E+02  0.65054792551E+02 -0.32887755033E+02  0.11959524818E+03  0.93150127974E+02 0.  0.
          6    2    1    2  501    0 -0.11771130199E+02 -0.77463749588E+02  0.98408527093E+02  0.21345911886E+03  0.17245685030E+03 0.  0.
         24    2    5    5    0    0 -0.18205765676E+02 -0.95825400199E+02  0.12686060055E+03  0.17867168966E+03  0.79473287884E+02 0.  0.
          5    1    5    5  501    0  0.64346354773E+01  0.18361650611E+02 -0.28452073454E+02  0.34787429205E+02  0.47000000000E+01 0. -1.
        -13    1    6    6    0    0  0.31584287910E+02 -0.37145559223E+02  0.45719824598E+02  0.66840572813E+02  0.00000000000E+00 0.  1.
         14    1    6    6    0    0 -0.49790053587E+02 -0.58679840976E+02  0.81140775950E+02  0.11183111685E+03  0.00000000000E+00 0. -1.
         -5    1    3    3    0  503 -0.59021994670E+01  0.12408957036E+02 -0.14657394952E+03  0.14729165235E+03  0.47000000000E+01 0.  1.
         11    1    4    4    0    0  0.79963034401E+01 -0.14396038508E+02  0.18276564643E+02  0.24601211527E+02  0.00000000000E+00 0. -1.
        -12    1    4    4    0    0  0.96770262261E+01  0.79450831059E+02 -0.51164319676E+02  0.94994036657E+02  0.00000000000E+00 0.  1.
</event>
<event>
12    1  0.8313893E-002  0.2158277E+03  0.7818608E-02  0.1137324E+00
         21   -1    0    0  501  502  0.00000000000E+00  0.00000000000E+00  0.21384644957E+03  0.21384644957E+03  0.00000000000E+00 0. -1.
         21   -1    0    0  502  503 -0.00000000000E+00 -0.00000000000E+00 -0.29512424351E+03  0.29512424351E+03  0.00000000000E+00 0.  1.
         -6    2    1    2    0  503  0.59400241428E+02 -0.11545006302E+03 -0.17205712476E+03  0.27482865262E+03  0.17049935010E+03 0.  0.
        -24    2    3    3    0    0 -0.10629035778E+02 -0.26469273063E+02 -0.21803808203E+02  0.86627085716E+02  0.78836838530E+02 0.  0.
          6    2    1    2  501    0 -0.59400241428E+02  0.11545006302E+03  0.90779330825E+02  0.23414204046E+03  0.17240795363E+03 0.  0.
         24    2    5    5    0    0  0.14966607624E+00 -0.58651920288E+01  0.23945121432E+02  0.83302774566E+02  0.79571103628E+02 0.  0.
          5    1    5    5  501    0 -0.59549907504E+02  0.12131525505E+03  0.66834209393E+02  0.15083926590E+03  0.47000000000E+01 0. -1.
        -11    1    6    6    0    0 -0.33249606435E+02 -0.77863774611E+01 -0.10059935491E+02  0.35600088541E+02  0.00000000000E+00 0.  1.
         12    1    6    6    0    0  0.33399272511E+02  0.19211854322E+01  0.34005056923E+02  0.47702686026E+02  0.00000000000E+00 0. -1.
         -5    1    3    3    0  503  0.70029277206E+02 -0.88980789954E+02 -0.15025331656E+03  0.18820156690E+03  0.47000000000E+01 0.  1.
         13    1    4    4    0    0 -0.19966499873E+02 -0.28343489169E+02 -0.47738050572E+02  0.58999457353E+02  0.00000000000E+00 0. -1.
        -14    1    4    4    0    0  0.93374640952E+01  0.18742161053E+01  0.25934242369E+02  0.27627628363E+02  0.00000000000E+00 0.  1.
</event>
<event>
12    1  0.8313893E-002  0.2780806E+03  0.7818608E-02  0.1096990E+00
         21   -1    0    0  503  502  0.00000000000E+00  0.00000000000E+00  0.61109944897E+03  0.61109944897E+03  0.00000000000E+00 0. -1.
         21   -1    0    0  501  503 -0.00000000000E+00 -0.00000000000E+00 -0.39635591144E+03  0.39635591144E+03  0.00000000000E+00 0.  1.
          6    2    1    2  501    0  0.21551239764E+03 -0.74015529736E+00 -0.30875456711E+03  0.41552162062E+03  0.17573472373E+03 0.  0.
         24    2    3    3    0    0  0.86655986885E+02  0.64285043876E+02 -0.17958384989E+03  0.22177071015E+03  0.72732811095E+02 0.  0.
         -6    2    1    2    0  502 -0.21551239764E+03  0.74015529736E+00  0.52349810464E+03  0.59193373979E+03  0.17288477485E+03 0.  0.
        -24    2    5    5    0    0 -0.21908075304E+03 -0.15245742435E+02  0.37179817770E+03  0.43927975223E+03  0.80647422519E+02 0.  0.
          5    1    3    3  501    0  0.12885641076E+03 -0.65025199174E+02 -0.12917071722E+03  0.19375091047E+03  0.47000000000E+01 0. -1.
        -13    1    4    4    0    0  0.17648377866E+02 -0.14014932748E+02 -0.53770658513E+02  0.58302378152E+02  0.00000000000E+00 0.  1.
         14    1    4    4    0    0  0.69007609019E+02  0.78299976624E+02 -0.12581319138E+03  0.16346833200E+03  0.00000000000E+00 0. -1.
         -5    1    5    5    0  502  0.35683553980E+01  0.15985897732E+02  0.15169992694E+03  0.15265398756E+03  0.47000000000E+01 0.  1.
         11    1    6    6    0    0 -0.22039539755E+03 -0.88725574430E+01  0.37231855592E+03  0.43275161539E+03  0.00000000000E+00 0. -1.
        -12    1    6    6    0    0  0.13146445115E+01 -0.63731849918E+01 -0.52037821655E+00  0.65281368414E+01  0.00000000000E+00 0.  1.
</event>
<event>
12    1  0.8313893E-002  0.3357563E+03  0.7818608E-02  0.1068695E+00
         21   -1    0    0  501  502  0.00000000000E+00  0.00000000000E+00  0.35715646299E+03  0.35715646299E+03  0.00000000000E+00 0.  1.
         21   -1    0    0  502  503 -0.00000000000E+00 -0.00000000000E+00 -0.42854942880E+03  0.42854942880E+03  0.00000000000E+00 0. -1.
         -6    2    1    2    0  503 -0.21932289317E+03 -0.18645562841E+03 -0.23797369009E+03  0.41153832217E+03  0.17281226984E+03 0.  0.
        -24    2    3    3    0    0 -0.65195081974E+02 -0.92129261674E+02 -0.16449806811E+03  0.21641373973E+03  0.83887381434E+02 0.  0.
          6    2    1    2  501    0  0.21932289317E+03  0.18645562841E+03  0.16658072428E+03  0.37416756963E+03  0.17141761760E+03 0.  0.
         24    2    5    5    0    0  0.15004765883E+03  0.17958088689E+03  0.17604197667E+03  0.30375503196E+03  0.80701592509E+02 0.  0.
          5    1    5    5  501    0  0.69275234339E+02  0.68747415157E+01 -0.94612523884E+01  0.70412537665E+02  0.47000000000E+01 0. -1.
        -13    1    6    6    0    0  0.19962920255E+02  0.12663016778E+02  0.55229649544E+02  0.60076487645E+02  0.00000000000E+00 0.  1.
         14    1    6    6    0    0  0.13008473858E+03  0.16691787011E+03  0.12081232713E+03  0.24367854432E+03  0.00000000000E+00 0. -1.
         -5    1    3    3    0  503 -0.15412781120E+03 -0.94326366735E+02 -0.73475621982E+02  0.19512458244E+03  0.47000000000E+01 0.  1.
         13    1    4    4    0    0 -0.12835221112E+02  0.63111678219E+01 -0.66338332921E+02  0.67862715500E+02  0.00000000000E+00 0. -1.
        -14    1    4    4    0    0 -0.52359860862E+02 -0.98440429495E+02 -0.98159735186E+02  0.14855102423E+03  0.00000000000E+00 0.  1.
</event>
<event>
12    1  0.8313893E-002  0.1855934E+03  0.7818608E-02  0.1163335E+00
         21   -1    0    0  501  502  0.00000000000E+00  0.00000000000E+00  0.58702771145E+02  0.58702771145E+02  0.00000000000E+00 0.  1.
         21   -1    0    0  502  503 -0.00000000000E+00 -0.00000000000E+00 -0.57611761605E+03  0.57611761605E+03  0.00000000000E+00 0.  1.
         -6    2    1    2    0  503 -0.65264008048E+02 -0.15087518582E+02 -0.25121487146E+03  0.31233605966E+03  0.17308344392E+03 0.  0.
        -24    2    3    3    0    0 -0.42151390265E+02 -0.20464998602E+02 -0.37157394027E+02  0.96915995515E+02  0.76265866459E+02 0.  0.
          6    2    1    2  501    0  0.65264008048E+02  0.15087518582E+02 -0.26619997344E+03  0.32248432753E+03  0.16925333580E+03 0.  0.
         24    2    5    5    0    0  0.10724044491E+03  0.21208450346E+02 -0.17591727089E+03  0.22262170471E+03  0.81628584560E+02 0.  0.
          5    1    5    5  501    0 -0.41976436863E+02 -0.61209317644E+01 -0.90282702549E+02  0.99862622822E+02  0.47000000000E+01 0. -1.
        -11    1    6    6    0    0  0.53492486251E+02 -0.97761817128E+01 -0.14169095478E+03  0.15176740915E+03  0.00000000000E+00 0.  1.
         12    1    6    6    0    0  0.53747958660E+02  0.30984632059E+02 -0.34226316114E+02  0.70854295556E+02  0.00000000000E+00 0. -1.
         -5    1    3    3    0  503 -0.23112617783E+02  0.53774800205E+01 -0.21405747743E+03  0.21542006415E+03  0.47000000000E+01 0.  1.
         13    1    4    4    0    0  0.18792628381E+02 -0.14775178989E+02  0.24178869736E+01  0.24027379654E+02  0.00000000000E+00 0. -1.
        -14    1    4    4    0    0 -0.60944018646E+02 -0.56898196138E+01 -0.39575281000E+02  0.72888615862E+02  0.00000000000E+00 0.  1.
</event>
<event>
12    1  0.8313893E-002  0.2163592E+03  0.7818608E-02  0.1139374E+00
         21   -1    0    0  503  502  0.00000000000E+00  0.00000000000E+00  0.14212162691E+03  0.14212162691E+03  0.00000000000E+00 0.  1.
         21   -1    0    0  501  503 -0.00000000000E+00 -0.00000000000E+00 -0.32447732335E+03  0.32447732335E+03  0.00000000000E+00 0. -1.
          6    2    1    2  501    0  0.73736299251E+02  0.10173837306E+03 -0.14575698070E+03  0.26087619149E+03  0.17613503763E+03 0.  0.
         24    2    3    3    0    0  0.10298341848E+03  0.59054004223E+02 -0.49381655131E+02  0.15138809759E+03  0.79917759810E+02 0.  0.
         -6    2    1    2    0  502 -0.73736299251E+02 -0.10173837306E+03 -0.36598715743E+02  0.20572275877E+03  0.15872822403E+03 0.  0.
        -24    2    5    5    0    0 -0.53942065067E+02 -0.13449334993E+03 -0.37388415324E+02  0.16715575420E+03  0.74464387478E+02 0.  0.
          5    1    3    3  501    0 -0.29247119224E+02  0.42684368837E+02 -0.96375325573E+02  0.10948809390E+03  0.47000000000E+01 0. -1.
        -11    1    4    4    0    0  0.54901820549E+02  0.52097560078E+02  0.81090784723E+01  0.76119135698E+02  0.00000000000E+00 0.  1.
         12    1    4    4    0    0  0.48081597926E+02  0.69564441449E+01 -0.57490733603E+02  0.75268961893E+02  0.00000000000E+00 0. -1.
         -5    1    5    5    0  502 -0.19794234184E+02  0.32754976868E+02  0.78969958045E+00  0.38567004576E+02  0.47000000000E+01 0.  1.
         13    1    6    6    0    0 -0.60884071166E+01 -0.48081043942E+01 -0.27496215599E+02  0.28569711958E+02  0.00000000000E+00 0. -1.
        -14    1    6    6    0    0 -0.47853657950E+02 -0.12968524553E+03 -0.98921997251E+01  0.13858604224E+03  0.00000000000E+00 0.  1.
</event>
<event>
12    1  0.8313893E-002  0.2978270E+03  0.7818608E-02  0.1086439E+00
         21   -1    0    0  501  502  0.00000000000E+00  0.00000000000E+00  0.98159137526E+02  0.98159137526E+02  0.00000000000E+00 0.  1.
         21   -1    0    0  502  503 -0.00000000000E+00 -0.00000000000E+00 -0.14250558634E+04  0.14250558634E+04  0.00000000000E+00 0. -1.
         -6    2    1    2    0  503  0.24138435572E+03 -0.14852978884E+02 -0.11246722234E+04  0.11632210002E+04  0.17236144289E+03 0.  0.
        -24    2    3    3    0    0  0.70160849651E+02 -0.18725967598E+02 -0.43526064769E+03  0.45283877926E+03  0.10167557173E+03 0.  0.
          6    2    1    2  501    0 -0.24138435572E+03  0.14852978884E+02 -0.20222450249E+03  0.35999400077E+03  0.17382149755E+03 0.  0.
         24    2    5    5    0    0 -0.67385077439E+02 -0.28375469506E+02 -0.30602219717E+02  0.11175873829E+03  0.78788348131E+02 0.  0.
          5    1    5    5  501    0 -0.17399927828E+03  0.43228448390E+02 -0.17162228278E+03  0.24823526248E+03  0.47000000000E+01 0. -1.
        -11    1    6    6    0    0 -0.76874069049E+02 -0.76489872961E+01 -0.49068335090E+01  0.77409343841E+02  0.00000000000E+00 0.  1.
         12    1    6    6    0    0  0.94889916102E+01 -0.20726482210E+02 -0.25695386208E+02  0.34349394448E+02  0.00000000000E+00 0. -1.
         -5    1    3    3    0  503  0.17122350607E+03  0.38729887134E+01 -0.68941157572E+03  0.71038222093E+03  0.47000000000E+01 0.  1.
         13    1    4    4    0    0  0.48164010463E+02 -0.69414442038E+01 -0.42158189114E+03  0.42438101570E+03  0.00000000000E+00 0. -1.
        -14    1    4    4    0    0  0.21996839188E+02 -0.11784523394E+02 -0.13678756550E+02  0.28457763557E+02  0.00000000000E+00 0.  1.
</event>
<event>
12    1  0.8313893E-002  0.4853979E+03  0.7818608E-02  0.1017712E+00
         21   -1    0    0  503  502  0.00000000000E+00  0.00000000000E+00  0.61227572384E+03  0.61227572384E+03  0.00000000000E+00 0. -1.
         21   -1    0    0  501  503 -0.00000000000E+00 -0.00000000000E+00 -0.48247406382E+03  0.48247406382E+03  0.00000000000E+00 0.  1.
          6    2    1    2  501    0  0.20887437080E+03 -0.40295796041E+03  0.31193635089E+03  0.57698821151E+03  0.17206826720E+03 0.  0.
         24    2    3    3    0    0  0.71888983641E+02 -0.20964216242E+03  0.89425973235E+02  0.25192059975E+03  0.79681375852E+02 0.  0.
         -6    2    1    2    0  502 -0.20887437080E+03  0.40295796041E+03 -0.18213469087E+03  0.51776157615E+03  0.17000112790E+03 0.  0.
        -24    2    5    5    0    0 -0.14003434516E+03  0.34798845796E+03 -0.97279042805E+02  0.39535583144E+03  0.78341793372E+02 0.  0.
          5    1    3    3  501    0  0.13698538716E+03 -0.19331579799E+03  0.22251037765E+03  0.32506761175E+03  0.47000000000E+01 0. -1.
        -13    1    4    4    0    0 -0.12185173139E+02 -0.10445972160E+02 -0.37566216823E+01  0.16483597461E+02  0.00000000000E+00 0.  1.
         14    1    4    4    0    0  0.84074156780E+02 -0.19919619026E+03  0.93182594917E+02  0.23543700229E+03  0.00000000000E+00 0. -1.
         -5    1    5    5    0  502 -0.68840025643E+02  0.54969502452E+02 -0.84855648062E+02  0.12240574471E+03  0.47000000000E+01 0.  1.
         13    1    6    6    0    0 -0.33542382763E+02  0.11025211659E+03  0.53614632334E+01  0.11536622531E+03  0.00000000000E+00 0. -1.
        -14    1    6    6    0    0 -0.10649196240E+03  0.23773634137E+03 -0.10264050604E+03  0.27998960613E+03  0.00000000000E+00 0.  1.
</event>
<event>
12    1  0.8313893E-002  0.2441781E+03  0.7818608E-02  0.1119828E+00
         21   -1    0    0  501  502  0.00000000000E+00  0.00000000000E+00  0.25007491725E+03  0.25007491725E+03  0.00000000000E+00 0. -1.
         21   -1    0    0  502  503 -0.00000000000E+00 -0.00000000000E+00 -0.22731548490E+03  0.22731548490E+03  0.00000000000E+00 0.  1.
         -6    2    1    2    0  503 -0.11720050234E+03  0.10681296472E+03 -0.23398528725E+02  0.22888787390E+03  0.16339277980E+03 0.  0.
        -24    2    3    3    0    0 -0.34255529173E+02  0.84463593495E+02 -0.60272319710E+02  0.13528696883E+03  0.79763848379E+02 0.  0.
          6    2    1    2  501    0  0.11720050234E+03 -0.10681296472E+03  0.46157961073E+02  0.24850252826E+03  0.18568247629E+03 0.  0.
         24    2    5    5    0    0 -0.19077219394E+02 -0.49332923617E+02  0.11452268784E+02  0.96508621662E+02  0.79906707744E+02 0.  0.
          5    1    5    5  501    0  0.13627772173E+03 -0.57480041106E+02  0.34705692288E+02  0.15199390660E+03  0.47000000000E+01 0. -1.
        -13    1    6    6    0    0 -0.27855307944E+02 -0.30795171292E+02 -0.29344168003E+02  0.50846248154E+02  0.00000000000E+00 0.  1.
         14    1    6    6    0    0  0.87780885498E+01 -0.18537752325E+02  0.40796436788E+02  0.45662373508E+02  0.00000000000E+00 0. -1.
         -5    1    3    3    0  503 -0.82944973163E+02  0.22349371228E+02  0.36873790985E+02  0.93600905064E+02  0.47000000000E+01 0.  1.
         11    1    4    4    0    0  0.93997268442E+01 -0.80945374115E+01  0.55710528148E+01  0.13598273056E+02  0.00000000000E+00 0. -1.
        -12    1    4    4    0    0 -0.43655256017E+02  0.92558130906E+02 -0.65843372524E+02  0.12168869578E+03  0.00000000000E+00 0.  1.
</event>
<event>
12    1  0.8313893E-002  0.2202961E+03  0.7818608E-02  0.1133707E+00
         21   -1    0    0  501  502  0.00000000000E+00  0.00000000000E+00  0.35359620421E+03  0.35359620421E+03  0.00000000000E+00 0. -1.
         21   -1    0    0  502  503 -0.00000000000E+00 -0.00000000000E+00 -0.42387813069E+03  0.42387813069E+03  0.00000000000E+00 0.  1.
         -6    2    1    2    0  503  0.25021044983E+02 -0.13442561503E+03 -0.35488413805E+03  0.41757322486E+03  0.17241910571E+03 0.  0.
        -24    2    3    3    0    0  0.71785940993E+02 -0.71539153589E+02 -0.15484030638E+03  0.20267490677E+03  0.82646993490E+02 0.  0.
          6    2    1    2  501    0 -0.25021044983E+02  0.13442561503E+03  0.28460221157E+03  0.35990111003E+03  0.17272548019E+03 0.  0.
         24    2    5    5    0    0  0.33336071250E+02  0.52104899539E+02  0.70626428230E+02  0.12327909274E+03  0.79896358739E+02 0.  0.
          5    1    5    5  501    0 -0.58357116233E+02  0.82320715493E+02  0.21397578334E+03  0.23662201729E+03  0.47000000000E+01 0. -1.
        -13    1    6    6    0    0  0.66606993099E+01  0.18352037791E+02 -0.16854350711E+02  0.25792079100E+02  0.00000000000E+00 0.  1.
         14    1    6    6    0    0  0.26675371940E+02  0.33752861747E+02  0.87480778940E+02  0.97487013639E+02  0.00000000000E+00 0. -1.
         -5    1    3    3    0  503 -0.46764896010E+02 -0.62886461443E+02 -0.20004383167E+03  0.21489831810E+03  0.47000000000E+01 0.  1.
         13    1    4    4    0    0  0.16104359432E+02 -0.26325422655E+02  0.12578134488E+01  0.30886248806E+02  0.00000000000E+00 0. -1.
        -14    1    4    4    0    0  0.55681581561E+02 -0.45213730934E+02 -0.15609811983E+03  0.17178865796E+03  0.00000000000E+00 0.  1.
</event>
<event>
12    1  0.8313893E-002  0.1790417E+03  0.7818608E-02  0.1170583E+00
         21   -1    0    0  501  502  0.00000000000E+00  0.00000000000E+00  0.21505543180E+03  0.21505543180E+03  0.00000000000E+00 0. -1.
         21   -1    0    0  502  503 -0.00000000000E+00 -0.00000000000E+00 -0.47143689342E+03  0.47143689342E+03  0.00000000000E+00 0. -1.
         -6    2    1    2    0  503 -0.49459723998E+02 -0.37304782988E+01 -0.41386940660E+03  0.44804233278E+03  0.16429809942E+03 0.  0.
        -24    2    3    3    0    0 -0.67111101660E+02 -0.54157718881E+02 -0.28568891396E+03  0.30909339820E+03  0.80520896485E+02 0.  0.
          6    2    1    2  501    0  0.49459723998E+02  0.37304782988E+01  0.15748794499E+03  0.23844999244E+03  0.17203419809E+03 0.  0.
         24    2    5    5    0    0 -0.52650775082E+01  0.51900833513E+02  0.46704313780E+02  0.10574622473E+03  0.79243634181E+02 0.  0.
          5    1    5    5  501    0  0.54724801507E+02 -0.48170355214E+02  0.11078363121E+03  0.13270376771E+03  0.47000000000E+01 0. -1.
        -11    1    6    6    0    0  0.51503020697E+00  0.69004528174E+02  0.52584928949E+02  0.86758659033E+02  0.00000000000E+00 0.  1.
         12    1    6    6    0    0 -0.57801077152E+01 -0.17103694661E+02 -0.58806151694E+01  0.18987565696E+02  0.00000000000E+00 0. -1.
         -5    1    3    3    0  503  0.17651377662E+02  0.50427240582E+02 -0.12818049264E+03  0.13894893458E+03  0.47000000000E+01 0.  1.
         11    1    4    4    0    0  0.15969655497E+01 -0.31406910021E+00 -0.13452975653E+03  0.13453960134E+03  0.00000000000E+00 0. -1.
        -12    1    4    4    0    0 -0.68708067210E+02 -0.53843649781E+02 -0.15115915744E+03  0.17455379686E+03  0.00000000000E+00 0.  1.
</event>
<event>
12    1  0.8313893E-002  0.1926954E+03  0.7818608E-02  0.1156242E+00
         21   -1    0    0  503  502  0.00000000000E+00  0.00000000000E+00  0.41244579440E+03  0.41244579440E+03  0.00000000000E+00 0. -1.
         21   -1    0    0  501  503 -0.00000000000E+00 -0.00000000000E+00 -0.18994807413E+03  0.18994807413E+03  0.00000000000E+00 0.  1.
          6    2    1    2  501    0  0.85475719112E+02  0.25142092422E+00 -0.10775580428E+03  0.22003421331E+03  0.17174859505E+03 0.  0.
         24    2    3    3    0    0  0.47596098837E+02  0.34874113016E+02 -0.13102214040E+03  0.16349211540E+03  0.77982550219E+02 0.  0.
         -6    2    1    2    0  502 -0.85475719112E+02 -0.25142092422E+00  0.33025352454E+03  0.38235965522E+03  0.17270018442E+03 0.  0.
        -24    2    5    5    0    0 -0.10375323824E+03 -0.44366870534E+02  0.28816803310E+03  0.31853552820E+03  0.75438145400E+02 0.  0.
          5    1    3    3  501    0  0.37879620275E+02 -0.34622692092E+02  0.23266336125E+02  0.56542097915E+02  0.47000000000E+01 0. -1.
        -11    1    4    4    0    0  0.11632479991E+02  0.41000849591E+02 -0.20867572574E+02  0.47453554588E+02  0.00000000000E+00 0.  1.
         12    1    4    4    0    0  0.35963618846E+02 -0.61267365745E+01 -0.11015456783E+03  0.11603856081E+03  0.00000000000E+00 0. -1.
         -5    1    5    5    0  502  0.18277519125E+02  0.44115449610E+02  0.42085491442E+02  0.63824127018E+02  0.47000000000E+01 0.  1.
         13    1    6    6    0    0 -0.74128995523E+02 -0.55572680168E+02  0.26048337704E+03  0.27646884177E+03  0.00000000000E+00 0. -1.
        -14    1    6    6    0    0 -0.29624242715E+02  0.11205809634E+02  0.27684656063E+02  0.42066686431E+02  0.00000000000E+00 0.  1.
</event>
<event>
12    1  0.8313893E-002  0.2432425E+03  0.7818608E-02  0.1117883E+00
         21   -1    0    0  501  502  0.00000000000E+00  0.00000000000E+00  0.71270666140E+02  0.71270666140E+02  0.00000000000E+00 0. -1.
         21   -1    0    0  502  503 -0.00000000000E+00 -0.00000000000E+00 -0.10074377077E+04  0.10074377077E+04  0.00000000000E+00 0. -1.
         -6    2    1    2    0  503  0.17190068092E+03  0.59540969161E+01 -0.69626239011E+03  0.73706361786E+03  0.16998872174E+03 0.  0.
        -24    2    3    3    0    0  0.29926117772E+02  0.34598417493E+02 -0.33579337138E+03  0.34855714797E+03  0.81500147971E+02 0.  0.
          6    2    1    2  501    0 -0.17190068092E+03 -0.59540969161E+01 -0.23990465144E+03  0.34164475597E+03  0.17199302931E+03 0.  0.
         24    2    5    5    0    0 -0.10774882396E+03 -0.62650073637E+02 -0.19485743029E+03  0.24478797170E+03  0.80105506401E+02 0.  0.
          5    1    5    5  501    0 -0.64151856955E+02  0.56695976721E+02 -0.45047221150E+02  0.96856784276E+02  0.47000000000E+01 0. -1.
        -11    1    6    6    0    0 -0.62816099706E+02 -0.15792219030E+02 -0.15652213108E+03  0.16939431538E+03  0.00000000000E+00 0.  1.
         12    1    6    6    0    0 -0.44932724256E+02 -0.46857854607E+02 -0.38335299206E+02  0.75393656316E+02  0.00000000000E+00 0. -1.
         -5    1    3    3    0  503  0.14197456315E+03 -0.28644320577E+02 -0.36046901873E+03  0.38850646989E+03  0.47000000000E+01 0.  1.
         11    1    4    4    0    0  0.54996127109E+02  0.37576438812E+02 -0.21206677786E+03  0.22228108562E+03  0.00000000000E+00 0. -1.
        -12    1    4    4    0    0 -0.25070009338E+02 -0.29780213188E+01 -0.12372659352E+03  0.12627606235E+03  0.00000000000E+00 0.  1.
</event>
<event>
12    1  0.8313893E-002  0.1901386E+03  0.7818608E-02  0.1159148E+00
         21   -1    0    0  501  502  0.00000000000E+00  0.00000000000E+00  0.10869759064E+04  0.10869759064E+04  0.00000000000E+00 0.  1.
         21   -1    0    0  502  503 -0.00000000000E+00 -0.00000000000E+00 -0.98425773642E+02  0.98425773642E+02  0.00000000000E+00 0.  1.
         -6    2    1    2    0  503  0.62276555464E+02  0.50337960682E+02  0.11270710859E+02  0.19047232266E+03  0.17245404353E+03 0.  0.
        -24    2    3    3    0    0 -0.24797457366E+02  0.47183224815E+02  0.31472090535E+02  0.10090658251E+03  0.79689869589E+02 0.  0.
          6    2    1    2  501    0 -0.62276555464E+02 -0.50337960682E+02  0.97727942188E+03  0.99492935736E+03  0.16851432599E+03 0.  0.
         24    2    5    5    0    0 -0.73022358112E+02 -0.36561300237E+02  0.37080188139E+03  0.38818199168E+03  0.80760324167E+02 0.  0.
          5    1    5    5  501    0  0.10745802648E+02 -0.13776660446E+02  0.60647754049E+03  0.60674736568E+03  0.47000000000E+01 0. -1.
        -11    1    6    6    0    0 -0.69303825786E+02 -0.21324471986E+02  0.36388730158E+03  0.37104140150E+03  0.00000000000E+00 0.  1.
         12    1    6    6    0    0 -0.37185323268E+01 -0.15236828251E+02  0.69145798157E+01  0.17140590184E+02  0.00000000000E+00 0. -1.
         -5    1    3    3    0  503  0.87074012830E+02  0.31547358673E+01 -0.20201379676E+02  0.89565740155E+02  0.47000000000E+01 0.  1.
         11    1    4    4    0    0  0.61341874058E+01  0.60172934232E+02  0.29512863993E+02  0.67300961436E+02  0.00000000000E+00 0. -1.
        -12    1    4    4    0    0 -0.30931644772E+02 -0.12989709417E+02  0.19592265425E+01  0.33605621072E+02  0.00000000000E+00 0.  1.
</event>
<event>
12    1  0.8313893E-002  0.1817015E+03  0.7818608E-02  0.1166170E+00
         21   -1    0    0  503  502  0.00000000000E+00  0.00000000000E+00  0.17592447990E+03  0.17592447990E+03  0.00000000000E+00 0.  1.
         21   -1    0    0  501  503 -0.00000000000E+00 -0.00000000000E+00 -0.23330477318E+03  0.23330477318E+03  0.00000000000E+00 0.  1.
          6    2    1    2  501    0  0.17165556552E+02 -0.56641059760E+02 -0.11920124975E+03  0.21731169772E+03  0.17179222928E+03 0.  0.
         24    2    3    3    0    0 -0.22491066441E+02 -0.89517458685E+02 -0.11155076047E+03  0.16502283332E+03  0.79181689028E+02 0.  0.
         -6    2    1    2    0  502 -0.17165556552E+02  0.56641059760E+02  0.61820956472E+02  0.19191755536E+03  0.17177791305E+03 0.  0.
        -24    2    5    5    0    0 -0.30905713264E+02  0.26144707703E+02 -0.30400027443E+02  0.93705441700E+02  0.78853276929E+02 0.  0.
          5    1    3    3  501    0  0.39656622993E+02  0.32876398925E+02 -0.76504892802E+01  0.52288864395E+02  0.47000000000E+01 0. -1.
        -11    1    4    4    0    0  0.23566607851E+02 -0.19852137279E+02 -0.77064290285E+01  0.31762893579E+02  0.00000000000E+00 0.  1.
         12    1    4    4    0    0 -0.46057674292E+02 -0.69665321406E+02 -0.10384433144E+03  0.13325993975E+03  0.00000000000E+00 0. -1.
         -5    1    5    5    0  502  0.13740156712E+02  0.30496352057E+02  0.92220983915E+02  0.98212113659E+02  0.47000000000E+01 0.  1.
         13    1    6    6    0    0  0.12544008520E+01  0.26875917497E+02 -0.49467236150E+02  0.56310708707E+02  0.00000000000E+00 0. -1.
        -14    1    6    6    0    0 -0.32160114116E+02 -0.73120979306E+00  0.19067208707E+02  0.37394732993E+02  0.00000000000E+00 0.  1.
</event>
<event>
12    1  0.8313893E-002  0.2275280E+03  0.7818608E-02  0.1128628E+00
         21   -1    0    0  501  502  0.00000000000E+00  0.00000000000E+00  0.58434642973E+03  0.58434642973E+03  0.00000000000E+00 0. -1.
         21   -1    0    0  502  503 -0.00000000000E+00 -0.00000000000E+00 -0.92582259885E+02  0.92582259885E+02  0.00000000000E+00 0.  1.
         -6    2    1    2    0  503  0.28546427745E+02  0.14604778355E+03  0.32120695116E+03  0.39362786553E+03  0.17211663904E+03 0.  0.
        -24    2    3    3    0    0  0.27452380916E+02  0.17270300055E+03  0.30982095195E+03  0.36424371146E+03  0.78131296281E+02 0.  0.
          6    2    1    2  501    0 -0.28546427745E+02 -0.14604778355E+03  0.17055721869E+03  0.28330082408E+03  0.17036648281E+03 0.  0.
         24    2    5    5    0    0 -0.36163674920E+02 -0.87897645974E+02  0.26345736953E+02  0.12754941183E+03  0.80876121643E+02 0.  0.
          5    1    5    5  501    0  0.76172471752E+01 -0.58150137574E+02  0.14421148173E+03  0.15575141225E+03  0.47000000000E+01 0. -1.
        -13    1    6    6    0    0 -0.47861553368E+02 -0.90531106319E+02  0.39492778457E+02  0.10975558780E+03  0.00000000000E+00 0.  1.
         14    1    6    6    0    0  0.11697878448E+02  0.26334603454E+01 -0.13147041504E+02  0.17793824038E+02  0.00000000000E+00 0. -1.
         -5    1    3    3    0  503  0.10940468293E+01 -0.26655217006E+02  0.11385999214E+02  0.29384154066E+02  0.47000000000E+01 0.  1.
         11    1    4    4    0    0  0.10088406495E+02  0.10682659727E+03  0.11238120341E+03  0.15538092775E+03  0.00000000000E+00 0. -1.
        -12    1    4    4    0    0  0.17363974421E+02  0.65876403284E+02  0.19743974853E+03  0.20886278371E+03  0.00000000000E+00 0.  1.
</event>
<event>
12    1  0.8313893E-002  0.1759566E+03  0.7818608E-02  0.1172746E+00
         21   -1    0    0  501  502  0.00000000000E+00  0.00000000000E+00  0.31665694252E+03  0.31665694252E+03  0.00000000000E+00 0. -1.
         21   -1    0    0  502  503 -0.00000000000E+00 -0.00000000000E+00 -0.76117901187E+03  0.76117901187E+03  0.00000000000E+00 0. -1.
         -6    2    1    2    0  503  0.24097538331E+02 -0.66569834363E+01 -0.72648895537E+03  0.74749376634E+03  0.17417152944E+03 0.  0.
        -24    2    3    3    0    0  0.60371607093E+02  0.29316594808E+01 -0.24435428403E+03  0.26387854590E+03  0.79180460292E+02 0.  0.
          6    2    1    2  501    0 -0.24097538331E+02  0.66569834363E+01  0.28196688602E+03  0.33034218804E+03  0.17028103126E+03 0.  0.
         24    2    5    5    0    0 -0.41777436925E+02 -0.23795453950E+02  0.28108753420E+03  0.29480638896E+03  0.74759796818E+02 0.  0.
          5    1    5    5  501    0  0.17679898594E+02  0.30452437386E+02  0.87935181432E+00  0.35535799086E+02  0.47000000000E+01 0. -1.
        -13    1    6    6    0    0 -0.21188115678E+02  0.29178871352E+01  0.13921198369E+02  0.25519601786E+02  0.00000000000E+00 0.  1.
         14    1    6    6    0    0 -0.20589321247E+02 -0.26713341085E+02  0.26716633583E+03  0.26928678717E+03  0.00000000000E+00 0. -1.
         -5    1    3    3    0  503 -0.36274068762E+02 -0.95886429172E+01 -0.48213467133E+03  0.48361522044E+03  0.47000000000E+01 0.  1.
         13    1    4    4    0    0  0.18834985137E+02  0.10714246056E+02 -0.20496904353E+03  0.20611128193E+03  0.00000000000E+00 0. -1.
        -14    1    4    4    0    0  0.41536621956E+02 -0.77825865753E+01 -0.39385240505E+02  0.57767263974E+02  0.00000000000E+00 0.  1.
</event>
<event>
12    1  0.8313893E-002  0.1802030E+03  0.7818608E-02  0.1168412E+00
         21   -1    0    0  503  502  0.00000000000E+00  0.00000000000E+00  0.25380166886E+03  0.25380166886E+03  0.00000000000E+00 0.  1.
         21   -1    0    0  501  503 -0.00000000000E+00 -0.00000000000E+00 -0.13634643448E+03  0.13634643448E+03  0.00000000000E+00 0.  1.
          6    2    1    2  501    0  0.21054881794E+01  0.40766211202E+02  0.11295662754E+03  0.20988898955E+03  0.17212748524E+03 0.  0.
         24    2    3    3    0    0 -0.61266417934E+02  0.48160388073E+02  0.82149406790E+02  0.13888302370E+03  0.80417487468E+02 0.  0.
         -6    2    1    2    0  502 -0.21054881794E+01 -0.40766211202E+02  0.44986068461E+01  0.18025911379E+03  0.17551864170E+03 0.  0.
        -24    2    5    5    0    0 -0.11725636990E+02 -0.91523514141E+02 -0.17652710439E+02  0.12385324599E+03  0.80709133020E+02 0.  0.
          5    1    3    3  501    0  0.63371906114E+02 -0.73941768709E+01  0.30807220750E+02  0.71005965851E+02  0.47000000000E+01 0. -1.
        -13    1    4    4    0    0  0.58155658809E+01 -0.99033827199E+01 -0.67211867832E+01  0.13306845892E+02  0.00000000000E+00 0.  1.
         14    1    4    4    0    0 -0.67081983815E+02  0.58063770793E+02  0.88870593574E+02  0.12557617781E+03  0.00000000000E+00 0. -1.
         -5    1    5    5    0  502  0.96201488102E+01  0.50757302939E+02  0.22151317285E+02  0.56405867800E+02  0.47000000000E+01 0.  1.
         11    1    6    6    0    0  0.32230062517E+02 -0.61242248734E+02 -0.93198481561E+01  0.69830147712E+02  0.00000000000E+00 0. -1.
        -12    1    6    6    0    0 -0.43955699506E+02 -0.30281265407E+02 -0.83328622827E+01  0.54023098278E+02  0.00000000000E+00 0.  1.
</event>
<event>
12    1  0.8313893E-002  0.1690676E+03  0.7818608E-02  0.1179763E+00
         21   -1    0    0  501  502  0.00000000000E+00  0.00000000000E+00  0.45147881371E+03  0.45147881371E+03  0.00000000000E+00 0. -1.
         21   -1    0    0  502  503 -0.00000000000E+00 -0.00000000000E+00 -0.21386011891E+03  0.21386011891E+03  0.00000000000E+00 0. -1.
         -6    2    1    2    0  503 -0.92515944996E+01  0.12454852590E+02 -0.16188582722E+03  0.23153285203E+03  0.16480207875E+03 0.  0.
        -24    2    3    3    0    0 -0.49502708141E+02 -0.31315927134E+02 -0.13341688495E+03  0.16543743629E+03  0.78347142463E+02 0.  0.
          6    2    1    2  501    0  0.92515944996E+01 -0.12454852590E+02  0.39950452203E+03  0.43380608059E+03  0.16835420125E+03 0.  0.
         24    2    5    5    0    0 -0.14459272053E+02 -0.52216196856E+02  0.14796927040E+03  0.17800294827E+03  0.82792166587E+02 0.  0.
          5    1    5    5  501    0  0.23710866552E+02  0.39761344266E+02  0.25153525163E+03  0.25580313232E+03  0.47000000000E+01 0. -1.
        -11    1    6    6    0    0 -0.35451499025E+02 -0.54408634741E+02  0.63093543750E+02  0.90542275101E+02  0.00000000000E+00 0.  1.
         12    1    6    6    0    0  0.20992226972E+02  0.21924378846E+01  0.84875726647E+02  0.87460673168E+02  0.00000000000E+00 0. -1.
         -5    1    3    3    0  503  0.40251113642E+02  0.43770779724E+02 -0.28468942272E+02  0.66095415735E+02  0.47000000000E+01 0.  1.
         11    1    4    4    0    0  0.10048281786E+02 -0.35900102689E+01 -0.80173173182E+02  0.80880120170E+02  0.00000000000E+00 0. -1.
        -12    1    4    4    0    0 -0.59550989927E+02 -0.27725916865E+02 -0.53243711768E+02  0.84557316124E+02  0.00000000000E+00 0.  1.
</event>
<event>
12    1  0.8313893E-002  0.2514198E+03  0.7818608E-02  0.1112416E+00
         21   -1    0    0  503  502  0.00000000000E+00  0.00000000000E+00  0.79037300970E+02  0.79037300970E+02  0.00000000000E+00 0.  1.
         21   -1    0    0  501  503 -0.00000000000E+00 -0.00000000000E+00 -0.12261184345E+04  0.12261184345E+04  0.00000000000E+00 0.  1.
          6    2    1    2  501    0 -0.17861088723E+03  0.41701093298E+02 -0.95841797435E+03  0.99084657600E+03  0.17196247669E+03 0.  0.
         24    2    3    3    0    0 -0.72575130575E+02 -0.34164652208E+02 -0.56721549531E+03  0.57846245574E+03  0.80318251634E+02 0.  0.
         -6    2    1    2    0  502  0.17861088723E+03 -0.41701093298E+02 -0.18866315916E+03  0.31430915945E+03  0.17191750891E+03 0.  0.
        -24    2    5    5    0    0  0.33022470876E+02 -0.75611556570E+01 -0.21300798247E+02  0.89823587154E+02  0.80417026466E+02 0.  0.
          5    1    3    3  501    0 -0.10603575666E+03  0.75865745506E+02 -0.39120247904E+03  0.41238412026E+03  0.47000000000E+01 0. -1.
        -13    1    4    4    0    0 -0.70450807929E+01  0.23724559138E+02 -0.16558521597E+03  0.16742446541E+03  0.00000000000E+00 0.  1.
         14    1    4    4    0    0 -0.65530049782E+02 -0.57889211346E+02 -0.40163027934E+03  0.41103799033E+03  0.00000000000E+00 0. -1.
         -5    1    5    5    0  502  0.14558841636E+03 -0.34139937641E+02 -0.16736236091E+03  0.22448557230E+03  0.47000000000E+01 0.  1.
         13    1    6    6    0    0 -0.29255903445E+01  0.20981239978E+02 -0.35876112086E+02  0.41663736369E+02  0.00000000000E+00 0. -1.
        -14    1    6    6    0    0  0.35948061221E+02 -0.28542395635E+02  0.14575313839E+02  0.48159850785E+02  0.00000000000E+00 0.  1.
</event>
<event>
12    1  0.8313893E-002  0.1902990E+03  0.7818608E-02  0.1158291E+00
         21   -1    0    0  503  502  0.00000000000E+00  0.00000000000E+00  0.19717317823E+03  0.19717317823E+03  0.00000000000E+00 0.  1.
         21   -1    0    0  501  503 -0.00000000000E+00 -0.00000000000E+00 -0.18548603429E+03  0.18548603429E+03  0.00000000000E+00 0.  1.
          6    2    1    2  501    0 -0.17790507634E+01  0.80570744343E+02  0.26907038006E+02  0.19219183715E+03  0.17239171589E+03 0.  0.
         24    2    3    3    0    0 -0.68858677730E+02  0.34188101318E+02  0.16383701815E+02  0.10982766695E+03  0.76702978905E+02 0.  0.
         -6    2    1    2    0  502  0.17790507634E+01 -0.80570744343E+02 -0.15219894062E+02  0.19046737537E+03  0.17190510765E+03 0.  0.
        -24    2    5    5    0    0 -0.37980628070E+02 -0.37897238901E+02 -0.62595380528E+02  0.11517868534E+03  0.80431455716E+02 0.  0.
          5    1    3    3  501    0  0.67079626967E+02  0.46382643025E+02  0.10523336190E+02  0.82364170199E+02  0.47000000000E+01 0. -1.
        -13    1    4    4    0    0  0.98269970318E+01  0.25065854770E+02 -0.58546149060E+01  0.27552558170E+02  0.00000000000E+00 0.  1.
         14    1    4    4    0    0 -0.78685674762E+02  0.91222465480E+01  0.22238316721E+02  0.82275108784E+02  0.00000000000E+00 0. -1.
         -5    1    5    5    0  502  0.39759678833E+02 -0.42673505442E+02  0.47375486466E+02  0.75288690024E+02  0.47000000000E+01 0.  1.
         13    1    6    6    0    0  0.11389585590E+02  0.16184333643E+02 -0.27748651513E+02  0.34082883917E+02  0.00000000000E+00 0. -1.
        -14    1    6    6    0    0 -0.49370213659E+02 -0.54081572543E+02 -0.34846729016E+02  0.81095801424E+02  0.00000000000E+00 0.  1.
</event>
<event>
12    1  0.8313893E-002  0.1912940E+03  0.7818608E-02  0.1157653E+00
         21   -1    0    0  503  502  0.00000000000E+00  0.00000000000E+00  0.14135574814E+03  0.14135574814E+03  0.00000000000E+00 0. -1.
         21   -1    0    0  501  503 -0.00000000000E+00 -0.00000000000E+00 -0.42419613097E+03  0.42419613097E+03  0.00000000000E+00 0. -1.
          6    2    1    2  501    0 -0.53605152167E+02 -0.61682383739E+02 -0.31873068108E+03  0.37092011085E+03  0.17121405540E+03 0.  0.
         24    2    3    3    0    0 -0.30205006603E+02 -0.80474129745E+02 -0.32015919838E+03  0.34050913928E+03  0.77821164459E+02 0.  0.
         -6    2    1    2    0  502  0.53605152167E+02  0.61682383739E+02  0.35890298250E+02  0.19463176827E+03  0.17296006160E+03 0.  0.
        -24    2    5    5    0    0  0.33143578283E+02  0.49691095381E+02  0.92125080646E+02  0.13341977799E+03  0.75803066788E+02 0.  0.
          5    1    3    3  501    0 -0.23400145564E+02  0.18791746006E+02  0.14285173014E+01  0.30410971573E+02  0.47000000000E+01 0. -1.
        -13    1    4    4    0    0 -0.99300891217E+01 -0.67270860651E+01 -0.18359240798E+03  0.18398378359E+03  0.00000000000E+00 0.  1.
         14    1    4    4    0    0 -0.20274917482E+02 -0.73747043680E+02 -0.13656679040E+03  0.15652535568E+03  0.00000000000E+00 0. -1.
         -5    1    5    5    0  502  0.20461573884E+02  0.11991288358E+02 -0.56234782395E+02  0.61211990274E+02  0.47000000000E+01 0.  1.
         11    1    6    6    0    0  0.42478696201E+02  0.24070534051E+02  0.94170377904E+02  0.10607492783E+03  0.00000000000E+00 0. -1.
        -12    1    6    6    0    0 -0.93351179172E+01  0.25620561330E+02 -0.20452972587E+01  0.27344850160E+02  0.00000000000E+00 0.  1.
</event>
<event>
12    1  0.8313893E-002  0.2082821E+03  0.7818608E-02  0.1143090E+00
         21   -1    0    0  503  502  0.00000000000E+00  0.00000000000E+00  0.52237574474E+03  0.52237574474E+03  0.00000000000E+00 0.  1.
         21   -1    0    0  501  503 -0.00000000000E+00 -0.00000000000E+00 -0.93411117584E+02  0.93411117584E+02  0.00000000000E+00 0.  1.
          6    2    1    2  501    0 -0.96410148607E+01 -0.11585791716E+03  0.11075310511E+03  0.23589761923E+03  0.17281617496E+03 0.  0.
         24    2    3    3    0    0 -0.23344770440E+01 -0.62415745311E+02 -0.11302700083E+02  0.10237173856E+03  0.80318408727E+02 0.  0.
         -6    2    1    2    0  502  0.96410148607E+01  0.11585791716E+03  0.31821152204E+03  0.37988924310E+03  0.17187570545E+03 0.  0.
        -24    2    5    5    0    0 -0.47737433201E+02  0.19538336355E+02  0.14136552244E+03  0.17044630213E+03  0.80044499229E+02 0.  0.
          5    1    3    3  501    0 -0.73065378167E+01 -0.53442171845E+02  0.12205580519E+03  0.13352588067E+03  0.47000000000E+01 0. -1.
        -13    1    4    4    0    0  0.17599117864E+02 -0.37090623657E+02  0.29369784939E+02  0.50477991048E+02  0.00000000000E+00 0.  1.
         14    1    4    4    0    0 -0.19933594908E+02 -0.25325121654E+02 -0.40672485022E+02  0.51893747510E+02  0.00000000000E+00 0. -1.
         -5    1    5    5    0  502  0.57378448062E+02  0.96319580801E+02  0.17684599960E+03  0.20944294097E+03  0.47000000000E+01 0.  1.
         13    1    6    6    0    0  0.75285635736E+01 -0.15125904941E+02  0.25789162698E+01  0.17091608435E+02  0.00000000000E+00 0. -1.
        -14    1    6    6    0    0 -0.55265996775E+02  0.34664241296E+02  0.13878660617E+03  0.15335469369E+03  0.00000000000E+00 0.  1.
</event>
<event>
12    1  0.8313893E-002  0.1947394E+03  0.7818608E-02  0.1154568E+00
         21   -1    0    0  503  502  0.00000000000E+00  0.00000000000E+00  0.17619848610E+03  0.17619848610E+03  0.00000000000E+00 0.  1.
         21   -1    0    0  501  503 -0.00000000000E+00 -0.00000000000E+00 -0.44635723276E+03  0.44635723276E+03  0.00000000000E+00 0.  1.
          6    2    1    2  501    0  0.91229179891E+02  0.48858986319E+01 -0.36006898748E+03  0.40935692317E+03  0.17197900900E+03 0.  0.
         24    2    3    3    0    0  0.19197365224E+02  0.37776094182E+02 -0.28767205059E+03  0.30196160783E+03  0.81425007147E+02 0.  0.
         -6    2    1    2    0  502 -0.91229179891E+02 -0.48858986319E+01  0.89910240818E+02  0.21319879569E+03  0.17036208442E+03 0.  0.
        -24    2    5    5    0    0 -0.46616847819E+02  0.48238243885E+02  0.10354521673E+03  0.14234375169E+03  0.70993471987E+02 0.  0.
          5    1    3    3  501    0  0.72031814667E+02 -0.32890195550E+02 -0.72396936892E+02  0.10739531535E+03  0.47000000000E+01 0. -1.
        -13    1    4    4    0    0  0.25255014679E+02  0.28624085460E+02 -0.28844437569E+03  0.29095929595E+03  0.00000000000E+00 0.  1.
         14    1    4    4    0    0 -0.60576494546E+01  0.91520087220E+01  0.77232509917E+00  0.11002311876E+02  0.00000000000E+00 0. -1.
         -5    1    5    5    0  502 -0.44612332072E+02 -0.53124142517E+02 -0.13634975913E+02  0.70855043993E+02  0.47000000000E+01 0.  1.
         11    1    6    6    0    0 -0.50778030881E+02  0.63539116419E+02  0.81078274499E+02  0.11484474011E+03  0.00000000000E+00 0. -1.
        -12    1    6    6    0    0  0.41611830617E+01 -0.15300872534E+02  0.22466942231E+02  0.27499011582E+02  0.00000000000E+00 0.  1.
</event>
<event>
12    1  0.8313893E-002  0.2638626E+03  0.7818608E-02  0.1104932E+00
         21   -1    0    0  501  502  0.00000000000E+00  0.00000000000E+00  0.84176287825E+03  0.84176287825E+03  0.00000000000E+00 0.  1.
         21   -1    0    0  502  503 -0.00000000000E+00 -0.00000000000E+00 -0.84811265382E+02  0.84811265382E+02  0.00000000000E+00 0.  1.
         -6    2    1    2    0  503  0.16622575636E+03  0.11086115575E+03  0.30282768113E+03  0.40165668780E+03  0.17234353038E+03 0.  0.
        -24    2    3    3    0    0  0.12431911637E+03  0.13669924392E+03  0.18476135369E+03  0.27365074672E+03  0.81277594593E+02 0.  0.
          6    2    1    2  501    0 -0.16622575636E+03 -0.11086115575E+03  0.45412393174E+03  0.52491745583E+03  0.17143101273E+03 0.  0.
         24    2    5    5    0    0 -0.55396911307E+02 -0.11787057321E+03  0.22781225355E+03  0.27278409724E+03  0.74501349169E+02 0.  0.
          5    1    5    5  501    0 -0.11082884506E+03  0.70094174614E+01  0.22631167819E+03  0.25213335859E+03  0.47000000000E+01 0. -1.
        -13    1    6    6    0    0 -0.27888694017E+02 -0.59191412851E+00  0.28376618239E+02  0.39791482493E+02  0.00000000000E+00 0.  1.
         14    1    6    6    0    0 -0.27508217290E+02 -0.11727865908E+03  0.19943563532E+03  0.23299261475E+03  0.00000000000E+00 0. -1.
         -5    1    3    3    0  503  0.41906639991E+02 -0.25838088166E+02  0.11806632744E+03  0.12800594107E+03  0.47000000000E+01 0.  1.
         13    1    4    4    0    0  0.13163116793E+03  0.13960221061E+03  0.18383873221E+03  0.26572960135E+03  0.00000000000E+00 0. -1.
        -14    1    4    4    0    0 -0.73120515576E+01 -0.29029666885E+01  0.92262148182E+00  0.79211453701E+01  0.00000000000E+00 0.  1.
</event>
<event>
12    1  0.8313893E-002  0.2093063E+03  0.7818608E-02  0.1142140E+00
         21   -1    0    0  501  502  0.00000000000E+00  0.00000000000E+00  0.70730014872E+02  0.70730014872E+02  0.00000000000E+00 0. -1.
         21   -1    0    0  502  503 -0.00000000000E+00 -0.00000000000E+00 -0.10861491832E+04  0.10861491832E+04  0.00000000000E+00 0. -1.
         -6    2    1    2    0  503  0.28900557369E+02  0.11378493283E+03 -0.12829141032E+03  0.24539425756E+03  0.17313983518E+03 0.  0.
        -24    2    3    3    0    0  0.50762343883E+02  0.12928135431E+03 -0.57712690069E+02  0.16975351100E+03  0.78708422508E+02 0.  0.
          6    2    1    2  501    0 -0.28900557369E+02 -0.11378493283E+03 -0.88712775799E+03  0.91148494050E+03  0.17328267253E+03 0.  0.
         24    2    5    5    0    0 -0.76687785754E+02 -0.72131829561E+02 -0.42727858835E+03  0.44726306571E+03  0.79957742394E+02 0.  0.
          5    1    5    5  501    0  0.47787228385E+02 -0.41653103274E+02 -0.45984916964E+03  0.46422187478E+03  0.47000000000E+01 0. -1.
        -13    1    6    6    0    0 -0.83002277962E+02 -0.28942742485E+02 -0.30567019496E+03  0.31805868732E+03  0.00000000000E+00 0.  1.
         14    1    6    6    0    0  0.63144922080E+01 -0.43189087076E+02 -0.12160839339E+03  0.12920437840E+03  0.00000000000E+00 0. -1.
         -5    1    3    3    0  503 -0.21861786514E+02 -0.15496421470E+02 -0.70578720252E+02  0.75640746561E+02  0.47000000000E+01 0.  1.
         11    1    4    4    0    0  0.21368954612E+02  0.60902324030E+02  0.14389818798E+02  0.66127091109E+02  0.00000000000E+00 0. -1.
        -12    1    4    4    0    0  0.29393389271E+02  0.68379030275E+02 -0.72102508866E+02  0.10362641989E+03  0.00000000000E+00 0.  1.
</event>
<event>
12    1  0.8313893E-002  0.2455289E+03  0.7818608E-02  0.1116678E+00
         21   -1    0    0  503  502  0.00000000000E+00  0.00000000000E+00  0.71653076356E+03  0.71653076356E+03  0.00000000000E+00 0. -1.
         21   -1    0    0  501  503 -0.00000000000E+00 -0.00000000000E+00 -0.10686163158E+03  0.10686163158E+03  0.00000000000E+00 0. -1.
          6    2    1    2  501    0  0.45416224618E+02 -0.16887245900E+03  0.10898134975E+03  0.26574311718E+03  0.16781516281E+03 0.  0.
         24    2    3    3    0    0  0.92463605885E+02 -0.11472661501E+03  0.84332861836E+02  0.18975057504E+03  0.84743935102E+02 0.  0.
         -6    2    1    2    0  502 -0.45416224618E+02  0.16887245900E+03  0.50068778223E+03  0.55764927796E+03  0.17234825521E+03 0.  0.
        -24    2    5    5    0    0 -0.68276079758E+02  0.17484977670E+03  0.49020439720E+03  0.53137585669E+03  0.82618899508E+02 0.  0.
          5    1    3    3  501    0 -0.47047381267E+02 -0.54145843988E+02  0.24648487916E+02  0.75992542146E+02  0.47000000000E+01 0. -1.
        -11    1    4    4    0    0  0.26231393083E+02  0.10549573627E+02  0.14030116296E+02  0.31563010789E+02  0.00000000000E+00 0.  1.
         12    1    4    4    0    0  0.66232212801E+02 -0.12527618864E+03  0.70302745540E+02  0.15818756425E+03  0.00000000000E+00 0. -1.
         -5    1    5    5    0  502  0.22859855141E+02 -0.59773176985E+01  0.10483385026E+02  0.26273421276E+02  0.47000000000E+01 0.  1.
         11    1    6    6    0    0  0.57299294561E+01  0.57154553562E+02  0.22159924323E+03  0.22892291211E+03  0.00000000000E+00 0. -1.
        -12    1    6    6    0    0 -0.74006009214E+02  0.11769522314E+03  0.26860515397E+03  0.30245294458E+03  0.00000000000E+00 0.  1.
</event>
<event>
12    1  0.8313893E-002  0.1929107E+03  0.7818608E-02  0.1158656E+00
         21   -1    0    0  501  502  0.00000000000E+00  0.00000000000E+00  0.42232020938E+03  0.42232020938E+03  0.00000000000E+00 0.  1.
         21   -1    0    0  502  503 -0.00000000000E+00 -0.00000000000E+00 -0.15277834829E+03  0.15277834829E+03  0.00000000000E+00 0.  1.
         -6    2    1    2    0  503 -0.38463331407E+02 -0.35166700655E+02 -0.62394795155E+02  0.19117607308E+03  0.17302906045E+03 0.  0.
        -24    2    3    3    0    0  0.40757192906E+02 -0.38368673921E+02 -0.54469296147E+02  0.11135723045E+03  0.79373954410E+02 0.  0.
          6    2    1    2  501    0  0.38463331407E+02  0.35166700655E+02  0.33193665624E+03  0.38392248459E+03  0.18573746450E+03 0.  0.
         24    2    5    5    0    0 -0.66814153115E+01  0.92579183024E+02  0.16567948756E+03  0.20226958088E+03  0.69625744601E+02 0.  0.
          5    1    5    5  501    0  0.45144746718E+02 -0.57412482369E+02  0.16625716868E+03  0.18165290371E+03  0.47000000000E+01 0. -1.
        -13    1    6    6    0    0 -0.21958156527E+02  0.10476926426E+02  0.75673165286E+02  0.79488078161E+02  0.00000000000E+00 0.  1.
         14    1    6    6    0    0  0.15276741215E+02  0.82102256598E+02  0.90006322279E+02  0.12278150272E+03  0.00000000000E+00 0. -1.
         -5    1    3    3    0  503 -0.79220524312E+02  0.32019732659E+01 -0.79254990081E+01  0.79818842635E+02  0.47000000000E+01 0.  1.
         11    1    4    4    0    0  0.58760588696E+01 -0.23994018035E+02  0.17380579484E+02  0.30204726658E+02  0.00000000000E+00 0. -1.
        -12    1    4    4    0    0  0.34881134036E+02 -0.14374655886E+02 -0.71849875631E+02  0.81152503792E+02  0.00000000000E+00 0.  1.
</event>
<event>
12    1  0.8313893E-002  0.1847532E+03  0.7818608E-02  0.1163749E+00
         21   -1    0    0  503  502  0.00000000000E+00  0.00000000000E+00  0.42412088413E+03  0.42412088413E+03  0.00000000000E+00 0.  1.
         21   -1    0    0  501  503 -0.00000000000E+00 -0.00000000000E+00 -0.10438186481E+03  0.10438186481E+03  0.00000000000E+00 0.  1.
          6    2    1    2  501    0  0.44586403634E+02  0.42376299967E+02  0.30495412266E+02  0.18528912539E+03  0.17209994663E+03 0.  0.
         24    2    3    3    0    0  0.74303915124E+01 -0.42201351269E+02  0.15212587892E+02  0.91536242518E+02  0.79443666185E+02 0.  0.
         -6    2    1    2    0  502 -0.44586403634E+02 -0.42376299967E+02  0.28924360705E+03  0.34321362355E+03  0.17421259709E+03 0.  0.
        -24    2    5    5    0    0 -0.73698007782E+02 -0.23996237390E+01  0.10066353907E+03  0.14820041329E+03  0.79956612332E+02 0.  0.
          5    1    3    3  501    0  0.37156012122E+02  0.84577651237E+02  0.15282824374E+02  0.93752882869E+02  0.47000000000E+01 0. -1.
        -13    1    4    4    0    0 -0.10646051780E+02  0.15599974122E+02 -0.14753755265E+02  0.23966036500E+02  0.00000000000E+00 0.  1.
         14    1    4    4    0    0  0.18076443293E+02 -0.57801325391E+02  0.29966343157E+02  0.67570206018E+02  0.00000000000E+00 0. -1.
         -5    1    5    5    0  502  0.29111604148E+02 -0.39976676228E+02  0.18858006798E+03  0.19501321026E+03  0.47000000000E+01 0.  1.
         13    1    6    6    0    0 -0.37521628247E+02 -0.37821551300E+02  0.29604575578E+02  0.60948939484E+02  0.00000000000E+00 0. -1.
        -14    1    6    6    0    0 -0.36176379534E+02  0.35421927561E+02  0.71058963495E+02  0.87251473806E+02  0.00000000000E+00 0.  1.
</event>
<event>
12    1  0.8313893E-002  0.2044611E+03  0.7818608E-02  0.1146110E+00
         21   -1    0    0  503  502  0.00000000000E+00  0.00000000000E+00  0.58369345220E+03  0.58369345220E+03  0.00000000000E+00 0.  1.
         21   -1    0    0  501  503 -0.00000000000E+00 -0.00000000000E+00 -0.11184503515E+03  0.11184503515E+03  0.00000000000E+00 0.  1.
          6    2    1    2  501    0 -0.15973856840E+02  0.10851366044E+03  0.26858436971E+02  0.20582385983E+03  0.17208052486E+03 0.  0.
         24    2    3    3    0    0 -0.81582197253E+01 -0.85763545436E+01  0.33517454522E+02  0.88190580921E+02  0.80709654931E+02 0.  0.
         -6    2    1    2    0  502  0.15973856840E+02 -0.10851366044E+03  0.44498998008E+03  0.48971462751E+03  0.17255131243E+03 0.  0.
        -24    2    5    5    0    0  0.13909271838E+02 -0.93924440943E+02  0.15099934641E+03  0.19531746291E+03  0.79579144584E+02 0.  0.
          5    1    3    3  501    0 -0.78156371143E+01  0.11709001499E+03 -0.66590175503E+01  0.11763327891E+03  0.47000000000E+01 0. -1.
        -13    1    4    4    0    0  0.41246872096E+01  0.56253710267E+01 -0.25406818770E+02  0.26346997624E+02  0.00000000000E+00 0.  1.
         14    1    4    4    0    0 -0.12282906935E+02 -0.14201725570E+02  0.58924273292E+02  0.61843583297E+02  0.00000000000E+00 0. -1.
         -5    1    5    5    0  502  0.20645850018E+01 -0.14589219501E+02  0.29399063367E+03  0.29439716460E+03  0.47000000000E+01 0.  1.
         13    1    6    6    0    0  0.74896104421E+01  0.69761466349E+01 -0.33784632119E+01  0.10778446090E+02  0.00000000000E+00 0. -1.
        -14    1    6    6    0    0  0.64196613958E+01 -0.10090058758E+03  0.15437780962E+03  0.18453901682E+03  0.00000000000E+00 0.  1.
</event>
<event>
12    1  0.8313893E-002  0.1914476E+03  0.7818608E-02  0.1157471E+00
         21   -1    0    0  503  502  0.00000000000E+00  0.00000000000E+00  0.54337985210E+03  0.54337985210E+03  0.00000000000E+00 0.  1.
         21   -1    0    0  501  503 -0.00000000000E+00 -0.00000000000E+00 -0.14323360210E+03  0.14323360210E+03  0.00000000000E+00 0.  1.
          6    2    1    2  501    0  0.66463649100E+02 -0.47556467985E+02 -0.50098615722E+02  0.19789402450E+03  0.17312752334E+03 0.  0.
         24    2    3    3    0    0 -0.18976863414E+02 -0.41456571698E+00 -0.57069473496E+02  0.99949535194E+02  0.79829139859E+02 0.  0.
         -6    2    1    2    0  502 -0.66463649100E+02  0.47556467985E+02  0.45024486572E+03  0.48871942970E+03  0.17160188682E+03 0.  0.
        -24    2    5    5    0    0 -0.71721932533E+02  0.22103009193E+02  0.44984266498E+03  0.46230390633E+03  0.75722519477E+02 0.  0.
          5    1    3    3  501    0  0.85440512514E+02 -0.47141902268E+02  0.69708577739E+01  0.97944489310E+02  0.47000000000E+01 0. -1.
        -13    1    4    4    0    0  0.13598625522E+02 -0.33164119378E+02 -0.26003081048E+02  0.44282520866E+02  0.00000000000E+00 0.  1.
         14    1    4    4    0    0 -0.32575488936E+02  0.32749553661E+02 -0.31066392448E+02  0.55667014328E+02  0.00000000000E+00 0. -1.
         -5    1    5    5    0  502  0.52582834330E+01  0.25453458791E+02  0.40220073999E+00  0.26415523363E+02  0.47000000000E+01 0.  1.
         13    1    6    6    0    0  0.53850126760E+01 -0.34959467693E+01  0.14132025060E+01  0.65739749511E+01  0.00000000000E+00 0. -1.
        -14    1    6    6    0    0 -0.77106945209E+02  0.25598955962E+02  0.44842946247E+03  0.45572993138E+03  0.00000000000E+00 0.  1.
</event>
<event>
12    1  0.8313893E-002  0.2171879E+03  0.7818608E-02  0.1136366E+00
         21   -1    0    0  501  502  0.00000000000E+00  0.00000000000E+00  0.23073072888E+03  0.23073072888E+03  0.00000000000E+00 0. -1.
         21   -1    0    0  502  503 -0.00000000000E+00 -0.00000000000E+00 -0.21424347621E+03  0.21424347621E+03  0.00000000000E+00 0. -1.
         -6    2    1    2    0  503 -0.12188637927E+03  0.55289670016E+02 -0.43612841060E+02  0.21962426409E+03  0.16858084236E+03 0.  0.
        -24    2    3    3    0    0 -0.11306421175E+03 -0.17134027178E+02 -0.51452526926E+02  0.14609486025E+03  0.74961688877E+02 0.  0.
          6    2    1    2  501    0  0.12188637927E+03 -0.55289670016E+02  0.60100093726E+02  0.22534994100E+03  0.17104776403E+03 0.  0.
         24    2    5    5    0    0  0.86161919171E+02 -0.51456863123E+02  0.10350932174E+03  0.16880457395E+03  0.87801591228E+02 0.  0.
          5    1    5    5  501    0  0.35724460094E+02 -0.38328068929E+01 -0.43409228013E+02  0.56545367046E+02  0.47000000000E+01 0. -1.
        -11    1    6    6    0    0 -0.71704603712E+01 -0.96262141855E+01 -0.10281200226E+02  0.15804511367E+02  0.00000000000E+00 0.  1.
         12    1    6    6    0    0  0.93332379542E+02 -0.41830648938E+02  0.11379052196E+03  0.15300006258E+03  0.00000000000E+00 0. -1.
         -5    1    3    3    0  503 -0.88221675199E+01  0.72423697195E+02  0.78396858660E+01  0.73529403843E+02  0.47000000000E+01 0.  1.
         13    1    4    4    0    0 -0.43723482686E+02  0.75158632348E+01 -0.57073825609E+02  0.72288676208E+02  0.00000000000E+00 0. -1.
        -14    1    4    4    0    0 -0.69340729059E+02 -0.24649890413E+02  0.56212986823E+01  0.73806184041E+02  0.00000000000E+00 0.  1.
</event>
<event>
12    1  0.8313893E-002  0.2262964E+03  0.7818608E-02  0.1129327E+00
         21   -1    0    0  501  502  0.00000000000E+00  0.00000000000E+00  0.67021566718E+02  0.67021566718E+02  0.00000000000E+00 0.  1.
         21   -1    0    0  502  503 -0.00000000000E+00 -0.00000000000E+00 -0.90740319885E+03  0.90740319885E+03  0.00000000000E+00 0.  1.
         -6    2    1    2    0  503 -0.13288113547E+03  0.64827917245E+02 -0.61425694386E+03  0.65451468995E+03  0.17093224173E+03 0.  0.
        -24    2    3    3    0    0 -0.10304345843E+03 -0.11920828258E+02 -0.47535685542E+03  0.49297218323E+03  0.79355988911E+02 0.  0.
          6    2    1    2  501    0  0.13288113547E+03 -0.64827917245E+02 -0.22612468827E+03  0.31991007561E+03  0.17131849526E+03 0.  0.
         24    2    5    5    0    0  0.12841799910E+03 -0.33435981510E+02 -0.88007946953E+02  0.17812256754E+03  0.79831716674E+02 0.  0.
          5    1    5    5  501    0  0.44631363737E+01 -0.31391935735E+02 -0.13811674132E+03  0.14178750808E+03  0.47000000000E+01 0. -1.
        -13    1    6    6    0    0  0.13268906476E+02  0.47367751781E+01 -0.48553600706E+02  0.50556434404E+02  0.00000000000E+00 0.  1.
         14    1    6    6    0    0  0.11514909262E+03 -0.38172756688E+02 -0.39454346248E+02  0.12756613313E+03  0.00000000000E+00 0. -1.
         -5    1    3    3    0  503 -0.29837677043E+02  0.76748745504E+02 -0.13890008844E+03  0.16154250672E+03  0.47000000000E+01 0.  1.
         11    1    4    4    0    0 -0.38734966054E+02  0.16214251723E+02 -0.31682154491E+03  0.31959222593E+03  0.00000000000E+00 0. -1.
        -12    1    4    4    0    0 -0.64308492373E+02 -0.28135079981E+02 -0.15853531051E+03  0.17337995731E+03  0.00000000000E+00 0.  1.
</event>
<event>
12    1  0.8313893E-002  0.2359697E+03  0.7818608E-02  0.1122753E+00
         21   -1    0    0  501  502  0.00000000000E+00  0.00000000000E+00  0.15061591436E+03  0.15061591436E+03  0.00000000000E+00 0. -1.
         21   -1    0    0  502  503 -0.00000000000E+00 -0.00000000000E+00 -0.49290921626E+03  0.49290921626E+03  0.00000000000E+00 0.  1.
         -6    2    1    2    0  503 -0.13246211191E+03 -0.89769828140E+02 -0.84200966748E+01  0.23468164799E+03  0.17146353765E+03 0.  0.
        -24    2    3    3    0    0 -0.95378333627E+02  0.11387502429E+02  0.11933698535E+02  0.12493476139E+03  0.78991010290E+02 0.  0.
          6    2    1    2  501    0  0.13246211191E+03  0.89769828140E+02 -0.33387320522E+03  0.40884348263E+03  0.17342676550E+03 0.  0.
         24    2    5    5    0    0  0.11175024588E+03  0.36349040267E+02 -0.11780265327E+03  0.18525606037E+03  0.81443063576E+02 0.  0.
          5    1    5    5  501    0  0.20711866022E+02  0.53420787874E+02 -0.21607055195E+03  0.22358742226E+03  0.47000000000E+01 0. -1.
        -11    1    6    6    0    0  0.10512269812E+03  0.58060728427E+02 -0.10242034324E+03  0.15783458605E+03  0.00000000000E+00 0.  1.
         12    1    6    6    0    0  0.66275477660E+01 -0.21711688160E+02 -0.15382310034E+02  0.27421474324E+02  0.00000000000E+00 0. -1.
         -5    1    3    3    0  503 -0.37083778278E+02 -0.10115733057E+03 -0.20353795210E+02  0.10974688660E+03  0.47000000000E+01 0.  1.
         13    1    4    4    0    0 -0.29386355183E+02  0.37230687267E+02  0.23815116682E+02  0.53073927007E+02  0.00000000000E+00 0. -1.
        -14    1    4    4    0    0 -0.65991978445E+02 -0.25843184838E+02 -0.11881418146E+02  0.71860834387E+02  0.00000000000E+00 0.  1.
</event>
<event>
12    1  0.8313893E-002  0.1853186E+03  0.7818608E-02  0.1162796E+00
         21   -1    0    0  503  502  0.00000000000E+00  0.00000000000E+00  0.95412162612E+03  0.95412162612E+03  0.00000000000E+00 0. -1.
         21   -1    0    0  501  503 -0.00000000000E+00 -0.00000000000E+00 -0.19424209339E+03  0.19424209339E+03  0.00000000000E+00 0.  1.
          6    2    1    2  501    0  0.72823242440E+01  0.66464208610E+02 -0.13841417475E+03  0.23115351480E+03  0.17263528132E+03 0.  0.
         24    2    3    3    0    0 -0.16691500228E+02  0.53030061051E+02 -0.85763081196E+01  0.98355991506E+02  0.80681809903E+02 0.  0.
         -6    2    1    2    0  502 -0.72823242440E+01 -0.66464208610E+02  0.89829370749E+03  0.91721020471E+03  0.17283648758E+03 0.  0.
        -24    2    5    5    0    0 -0.97687620661E+01 -0.10004000439E+03  0.46268785344E+03  0.48027992822E+03  0.80531537523E+02 0.  0.
          5    1    3    3  501    0  0.23973824472E+02  0.13434147560E+02 -0.12983786663E+03  0.13279752329E+03  0.47000000000E+01 0. -1.
        -11    1    4    4    0    0  0.73344963083E+01 -0.86779651130E+01 -0.27274402819E+02  0.29546488180E+02  0.00000000000E+00 0.  1.
         12    1    4    4    0    0 -0.24025996536E+02  0.61708026164E+02  0.18698094700E+02  0.68809503326E+02  0.00000000000E+00 0. -1.
         -5    1    5    5    0  502  0.24864378221E+01  0.33575795782E+02  0.43560585405E+03  0.43693027649E+03  0.47000000000E+01 0.  1.
         11    1    6    6    0    0 -0.93686998808E+01 -0.82434568000E+02  0.45227521280E+03  0.45982181185E+03  0.00000000000E+00 0. -1.
        -12    1    6    6    0    0 -0.40006218526E+00 -0.17605436393E+02  0.10412640646E+02  0.20458116374E+02  0.00000000000E+00 0.  1.
</event>
<event>
12    1  0.8313893E-002  0.1813840E+03  0.7818608E-02  0.1166627E+00
         21   -1    0    0  501  502  0.00000000000E+00  0.00000000000E+00  0.14063941868E+02  0.14063941868E+02  0.00000000000E+00 0. -1.
         21   -1    0    0  502  503 -0.00000000000E+00 -0.00000000000E+00 -0.24757912688E+04  0.24757912688E+04  0.00000000000E+00 0. -1.
         -6    2    1    2    0  503 -0.45014068176E+02 -0.38545283284E+02 -0.92759126676E+03  0.94503366466E+03  0.17073682664E+03 0.  0.
        -24    2    3    3    0    0  0.57301770458E+01  0.14550795380E+02 -0.72220789544E+03  0.72686265099E+03  0.80625731527E+02 0.  0.
          6    2    1    2  501    0  0.45014068176E+02  0.38545283284E+02 -0.15341360602E+04  0.15448215460E+04  0.17142973110E+03 0.  0.
         24    2    5    5    0    0 -0.14914316011E+02 -0.95440509707E+01 -0.11570906665E+04  0.11599978017E+04  0.80140899094E+02 0.  0.
          5    1    5    5  501    0  0.59928384187E+02  0.48089334255E+02 -0.37704539373E+03  0.38482374437E+03  0.47000000000E+01 0. -1.
        -13    1    6    6    0    0  0.85120811937E+01 -0.21483728895E+02 -0.10222024217E+03  0.10479973303E+03  0.00000000000E+00 0.  1.
         14    1    6    6    0    0 -0.23426397205E+02  0.11939677924E+02 -0.10548704243E+04  0.10551980686E+04  0.00000000000E+00 0. -1.
         -5    1    3    3    0  503 -0.50744245222E+02 -0.53096078664E+02 -0.20538337132E+03  0.21817101367E+03  0.47000000000E+01 0.  1.
         13    1    4    4    0    0 -0.17799221379E+02 -0.25919742510E+02 -0.40503778953E+03  0.40625639229E+03  0.00000000000E+00 0. -1.
        -14    1    4    4    0    0  0.23529398425E+02  0.40470537890E+02 -0.31717010592E+03  0.32060625870E+03  0.00000000000E+00 0.  1.
</event>
<event>
12    1  0.8313893E-002  0.2149978E+03  0.7818608E-02  0.1137770E+00
         21   -1    0    0  503  502  0.00000000000E+00  0.00000000000E+00  0.35441861116E+02  0.35441861116E+02  0.00000000000E+00 0.  1.
         21   -1    0    0  501  503 -0.00000000000E+00 -0.00000000000E+00 -0.16599635387E+04  0.16599635387E+04  0.00000000000E+00 0.  1.
          6    2    1    2  501    0 -0.71816302706E+02 -0.10596845944E+03 -0.12072308703E+04  0.12262260856E+04  0.17273431357E+03 0.  0.
         24    2    3    3    0    0  0.17754508198E+02 -0.38947620186E+02 -0.72884109021E+03  0.73490786413E+03  0.83952929084E+02 0.  0.
         -6    2    1    2    0  502  0.71816302706E+02  0.10596845944E+03 -0.41729080727E+03  0.46917931420E+03  0.17207764325E+03 0.  0.
        -24    2    5    5    0    0  0.13034796381E+02  0.12678470095E+03 -0.32541775463E+03  0.35804278016E+03  0.77805212437E+02 0.  0.
          5    1    3    3  501    0 -0.89570810904E+02 -0.67020839256E+02 -0.47838978011E+03  0.49131822150E+03  0.47000000000E+01 0. -1.
        -13    1    4    4    0    0  0.14053909937E+02  0.25372616157E+02 -0.27297932653E+03  0.27451592804E+03  0.00000000000E+00 0.  1.
         14    1    4    4    0    0  0.37005982607E+01 -0.64320236342E+02 -0.45586176367E+03  0.46039193608E+03  0.00000000000E+00 0. -1.
         -5    1    5    5    0  502  0.58781506325E+02 -0.20816241512E+02 -0.91873052637E+02  0.11113653404E+03  0.47000000000E+01 0.  1.
         11    1    6    6    0    0 -0.36569696498E+01  0.21971021363E+02 -0.15973729723E+03  0.16128268144E+03  0.00000000000E+00 0. -1.
        -12    1    6    6    0    0  0.16691766031E+02  0.10481367959E+03 -0.16568045740E+03  0.19676009872E+03  0.00000000000E+00 0.  1.
</event>
<event>
12    1  0.8313893E-002  0.1864471E+03  0.7818608E-02  0.1163989E+00
         21   -1    0    0  503  502  0.00000000000E+00  0.00000000000E+00  0.63564289624E+02  0.63564289624E+02  0.00000000000E+00 0.  1.
         21   -1    0    0  501  503 -0.00000000000E+00 -0.00000000000E+00 -0.94961728771E+03  0.94961728771E+03  0.00000000000E+00 0.  1.
          6    2    1    2  501    0 -0.65341408016E+02  0.14665532043E+02 -0.79046923914E+03  0.81216017573E+03  0.17400561942E+03 0.  0.
         24    2    3    3    0    0 -0.31534669147E+02 -0.42182241501E+02 -0.30480402373E+03  0.32198943363E+03  0.89431122293E+02 0.  0.
         -6    2    1    2    0  502  0.65341408016E+02 -0.14665532043E+02 -0.95583758944E+02  0.20102140160E+03  0.16367275734E+03 0.  0.
        -24    2    5    5    0    0  0.76140978068E+02  0.19484900366E+02 -0.16776743420E+02  0.11432931175E+03  0.81318033185E+02 0.  0.
          5    1    3    3  501    0 -0.33806738869E+02  0.56847773544E+02 -0.48566521541E+03  0.49017074210E+03  0.47000000000E+01 0. -1.
        -11    1    4    4    0    0 -0.18245275854E+02 -0.57946965587E+02 -0.29076766688E+03  0.29704642233E+03  0.00000000000E+00 0.  1.
         12    1    4    4    0    0 -0.13289393293E+02  0.15764724086E+02 -0.14036356843E+02  0.24943011306E+02  0.00000000000E+00 0. -1.
         -5    1    5    5    0  502 -0.10799570052E+02 -0.34150432409E+02 -0.78807015524E+02  0.86692089851E+02  0.47000000000E+01 0.  1.
         11    1    6    6    0    0  0.76690789812E+01  0.37682040270E+02 -0.20123371900E+02  0.43401624716E+02  0.00000000000E+00 0. -1.
        -12    1    6    6    0    0  0.68471899087E+02 -0.18197139904E+02  0.33466284806E+01  0.70927687030E+02  0.00000000000E+00 0.  1.
</event>
<event>
12    1  0.8313893E-002  0.2197262E+03  0.7818608E-02  0.1134350E+00
         21   -1    0    0  503  502  0.00000000000E+00  0.00000000000E+00  0.66922077854E+03  0.66922077854E+03  0.00000000000E+00 0. -1.
         21   -1    0    0  501  503 -0.00000000000E+00 -0.00000000000E+00 -0.72373350454E+02  0.72373350454E+02  0.00000000000E+00 0. -1.
          6    2    1    2  501    0 -0.12853451250E+03 -0.41837793975E+02  0.33558425675E+03  0.40111892713E+03  0.17322839957E+03 0.  0.
         24    2    3    3    0    0 -0.15051438212E+03 -0.55051638242E+02  0.22607958027E+03  0.28855301524E+03  0.80408978919E+02 0.  0.
         -6    2    1    2    0  502  0.12853451250E+03  0.41837793975E+02  0.26126317133E+03  0.34047520186E+03  0.17144502465E+03 0.  0.
        -24    2    5    5    0    0  0.10027199557E+03 -0.22702798243E+02  0.99102696646E+02  0.16360698126E+03  0.79849919791E+02 0.  0.
          5    1    3    3  501    0  0.21979869623E+02  0.13213844267E+02  0.10950467648E+03  0.11256591189E+03  0.47000000000E+01 0. -1.
        -13    1    4    4    0    0 -0.12180564257E+03 -0.19160380119E+02  0.11611773424E+03  0.16937255661E+03  0.00000000000E+00 0.  1.
         14    1    4    4    0    0 -0.28708739551E+02 -0.35891258123E+02  0.10996184603E+03  0.11918045863E+03  0.00000000000E+00 0. -1.
         -5    1    5    5    0  502  0.28262516931E+02  0.64540592217E+02  0.16216047468E+03  0.17686822060E+03  0.47000000000E+01 0.  1.
         11    1    6    6    0    0  0.80585100597E+02 -0.44937749392E+02  0.96939171725E+02  0.13383035072E+03  0.00000000000E+00 0. -1.
        -12    1    6    6    0    0  0.19686894973E+02  0.22234951149E+02  0.21635249209E+01  0.29776630541E+02  0.00000000000E+00 0.  1.
</event>
<event>
12    1  0.8313893E-002  0.1808242E+03  0.7818608E-02  0.1167031E+00
         21   -1    0    0  503  502  0.00000000000E+00  0.00000000000E+00  0.17637164456E+04  0.17637164456E+04  0.00000000000E+00 0.  1.
         21   -1    0    0  501  503 -0.00000000000E+00 -0.00000000000E+00 -0.18568414473E+02  0.18568414473E+02  0.00000000000E+00 0.  1.
          6    2    1    2  501    0  0.15072719365E+02 -0.55471415366E+02  0.91383466724E+03  0.93155310457E+03  0.17144422648E+03 0.  0.
         24    2    3    3    0    0  0.15378371102E+02  0.23180400244E+02  0.66624946066E+03  0.67173253949E+03  0.81008860785E+02 0.  0.
         -6    2    1    2    0  502 -0.15072719365E+02  0.55471415366E+02  0.83131336394E+03  0.85073175555E+03  0.17134277357E+03 0.  0.
        -24    2    5    5    0    0  0.23650857103E+02  0.18425156278E+02  0.73835067848E+03  0.74332555659E+03  0.80450663466E+02 0.  0.
          5    1    3    3  501    0 -0.30565173667E+00 -0.78651815610E+02  0.24758520657E+03  0.25982056507E+03  0.47000000000E+01 0. -1.
        -11    1    4    4    0    0  0.95709949119E+01 -0.28251784038E+02  0.15305773725E+03  0.15593728925E+03  0.00000000000E+00 0.  1.
         12    1    4    4    0    0  0.58073761897E+01  0.51432184282E+02  0.51319172341E+03  0.51579525025E+03  0.00000000000E+00 0. -1.
         -5    1    5    5    0  502 -0.38723576468E+02  0.37046259087E+02  0.92962685458E+02  0.10740619896E+03  0.47000000000E+01 0.  1.
         13    1    6    6    0    0  0.50351062669E+02  0.26197680115E+02  0.43140603775E+03  0.43512379544E+03  0.00000000000E+00 0. -1.
        -14    1    6    6    0    0 -0.26700205566E+02 -0.77725238369E+01  0.30694464073E+03  0.30820176115E+03  0.00000000000E+00 0.  1.
</event>
<event>
12    1  0.8313893E-002  0.1797491E+03  0.7818608E-02  0.1168221E+00
         21   -1    0    0  503  502  0.00000000000E+00  0.00000000000E+00  0.15382495026E+03  0.15382495026E+03  0.00000000000E+00 0. -1.
         21   -1    0    0  501  503 -0.00000000000E+00 -0.00000000000E+00 -0.36620697871E+03  0.36620697871E+03  0.00000000000E+00 0. -1.
          6    2    1    2  501    0 -0.27833920794E+02 -0.41261830159E+02 -0.27656578443E+03  0.32984599629E+03  0.17272082207E+03 0.  0.
         24    2    3    3    0    0  0.37900847646E+02 -0.97772425677E+01 -0.22113809887E+03  0.23815817068E+03  0.79279169828E+02 0.  0.
         -6    2    1    2    0  502  0.27833920794E+02  0.41261830159E+02  0.64183755982E+02  0.19018593268E+03  0.17197054598E+03 0.  0.
        -24    2    5    5    0    0  0.66743949201E+02  0.73160864664E+02  0.54512915970E+02  0.13873543356E+03  0.80427580129E+02 0.  0.
          5    1    3    3  501    0 -0.65734768440E+02 -0.31484587591E+02 -0.55427685558E+02  0.91687825604E+02  0.47000000000E+01 0. -1.
        -13    1    4    4    0    0  0.53834466332E+02 -0.56483795733E+01 -0.83311547897E+02  0.99352241897E+02  0.00000000000E+00 0.  1.
         14    1    4    4    0    0 -0.15933618686E+02 -0.41288629944E+01 -0.13782655097E+03  0.13880592879E+03  0.00000000000E+00 0. -1.
         -5    1    5    5    0  502 -0.38910028407E+02 -0.31899034506E+02  0.96708400120E+01  0.51450499119E+02  0.47000000000E+01 0.  1.
         11    1    6    6    0    0  0.39038506085E+02 -0.85504388398E+01  0.26781536317E+02  0.48107854340E+02  0.00000000000E+00 0. -1.
        -12    1    6    6    0    0  0.27705443115E+02  0.81711303504E+02  0.27731379653E+02  0.90627579224E+02  0.00000000000E+00 0.  1.
</event>
<event>
12    1  0.8313893E-002  0.2057956E+03  0.7818608E-02  0.1145112E+00
         21   -1    0    0  503  502  0.00000000000E+00  0.00000000000E+00  0.96555670189E+02  0.96555670189E+02  0.00000000000E+00 0. -1.
         21   -1    0    0  501  503 -0.00000000000E+00 -0.00000000000E+00 -0.49326833375E+03  0.49326833375E+03  0.00000000000E+00 0.  1.
          6    2    1    2  501    0 -0.17763484375E+02  0.11271117534E+03 -0.29848162174E+03  0.36255082038E+03  0.17126724270E+03 0.  0.
         24    2    3    3    0    0  0.45276618129E+02  0.69604536858E+02 -0.10954860105E+03  0.15871261711E+03  0.79334955337E+02 0.  0.
         -6    2    1    2    0  502  0.17763484375E+02 -0.11271117534E+03 -0.98231041815E+02  0.22727318355E+03  0.17024808945E+03 0.  0.
        -24    2    5    5    0    0  0.65447823110E+02 -0.10630780858E+03 -0.43432211360E+02  0.15419924096E+03  0.79412097400E+02 0.  0.
          5    1    3    3  501    0 -0.63040102505E+02  0.43106638478E+02 -0.18893302070E+03  0.20383820327E+03  0.47000000000E+01 0. -1.
        -11    1    4    4    0    0  0.19824678512E+02  0.33454620484E+02 -0.10765255577E+03  0.11446092029E+03  0.00000000000E+00 0.  1.
         12    1    4    4    0    0  0.25451939617E+02  0.36149916374E+02 -0.18960452803E+01  0.44251696824E+02  0.00000000000E+00 0. -1.
         -5    1    5    5    0  502 -0.47684338735E+02 -0.64033667508E+01 -0.54798830455E+02  0.73073942589E+02  0.47000000000E+01 0.  1.
         13    1    6    6    0    0  0.69442599682E+02 -0.53150984928E+02 -0.33651194927E+01  0.87513575396E+02  0.00000000000E+00 0. -1.
        -14    1    6    6    0    0 -0.39947765722E+01 -0.53156823657E+02 -0.40067091867E+02  0.66685665565E+02  0.00000000000E+00 0.  1.
</event>
<event>
12    1  0.8313893E-002  0.1728624E+03  0.7818608E-02  0.1175192E+00
         21   -1    0    0  501  502  0.00000000000E+00  0.00000000000E+00  0.11265124908E+03  0.11265124908E+03  0.00000000000E+00 0.  1.
         21   -1    0    0  502  503 -0.00000000000E+00 -0.00000000000E+00 -0.41594227039E+03  0.41594227039E+03  0.00000000000E+00 0.  1.
         -6    2    1    2    0  503  0.83926596017E+01  0.17156436037E+02 -0.31197968661E+03  0.35666894298E+03  0.17180404536E+03 0.  0.
        -24    2    3    3    0    0 -0.55930444989E+02  0.14512589509E+02 -0.12362270458E+03  0.15755868613E+03  0.78761263034E+02 0.  0.
          6    2    1    2  501    0 -0.83926596017E+01 -0.17156436037E+02  0.86886652975E+01  0.17192457649E+03  0.17063934794E+03 0.  0.
         24    2    5    5    0    0 -0.19091144490E+02 -0.31225862001E+02  0.68083245270E+02  0.10977787541E+03  0.77950801063E+02 0.  0.
          5    1    5    5  501    0  0.10698484889E+02  0.14069425964E+02 -0.59394579973E+02  0.62146701087E+02  0.47000000000E+01 0. -1.
        -11    1    6    6    0    0 -0.27606242463E+02  0.17388488099E+02  0.11262629782E+02  0.34515372965E+02  0.00000000000E+00 0.  1.
         12    1    6    6    0    0  0.85150979732E+01 -0.48614350100E+02  0.56820615488E+02  0.75262502440E+02  0.00000000000E+00 0. -1.
         -5    1    3    3    0  503  0.64323104590E+02  0.26438465285E+01 -0.18835698202E+03  0.19911025685E+03  0.47000000000E+01 0.  1.
         13    1    4    4    0    0 -0.34349413796E+02  0.20070297271E+02 -0.89983649197E+01  0.40788106501E+02  0.00000000000E+00 0. -1.
        -14    1    4    4    0    0 -0.21581031192E+02 -0.55577077622E+01 -0.11462433966E+03  0.11677057963E+03  0.00000000000E+00 0.  1.
</event>
<event>
12    1  0.8313893E-002  0.2001449E+03  0.7818608E-02  0.1153484E+00
         21   -1    0    0  503  502  0.00000000000E+00  0.00000000000E+00  0.12761185939E+03  0.12761185939E+03  0.00000000000E+00 0.  1.
         21   -1    0    0  501  503 -0.00000000000E+00 -0.00000000000E+00 -0.29839001014E+03  0.29839001014E+03  0.00000000000E+00 0. -1.
          6    2    1    2  501    0 -0.65466884455E+02  0.19713561793E+02 -0.12304098119E+03  0.22024277972E+03  0.16939085421E+03 0.  0.
         24    2    3    3    0    0 -0.84719065726E+02  0.54428700029E+02 -0.13596773246E+03  0.17823113604E+03  0.56029546673E+02 0.  0.
         -6    2    1    2    0  502  0.65466884455E+02 -0.19713561793E+02 -0.47737169560E+02  0.20575908981E+03  0.18810483301E+03 0.  0.
        -24    2    5    5    0    0  0.15978914968E+01  0.30859427769E+02  0.32923412626E+02  0.91019841713E+02  0.79030392552E+02 0.  0.
          5    1    3    3  501    0  0.19252181272E+02 -0.34715138236E+02  0.12926751270E+02  0.42011643682E+02  0.47000000000E+01 0. -1.
        -13    1    4    4    0    0 -0.37951092659E+01  0.23551523166E+02 -0.11219245376E+02  0.26361877107E+02  0.00000000000E+00 0.  1.
         14    1    4    4    0    0 -0.80923956460E+02  0.30877176863E+02 -0.12474848708E+03  0.15186925893E+03  0.00000000000E+00 0. -1.
         -5    1    5    5    0  502  0.63868992958E+02 -0.50572989562E+02 -0.80660582186E+02  0.11473924809E+03  0.47000000000E+01 0.  1.
         13    1    6    6    0    0  0.21504646821E+02  0.21093802420E+02 -0.18270211477E+02  0.35230653739E+02  0.00000000000E+00 0. -1.
        -14    1    6    6    0    0 -0.19906755324E+02  0.97656253487E+01  0.51193624103E+02  0.55789187974E+02  0.00000000000E+00 0.  1.
</event>
<event>
12    1  0.8313893E-002  0.2180023E+03  0.7818608E-02  0.1135633E+00
         21   -1    0    0  503  502  0.00000000000E+00  0.00000000000E+00  0.29989188055E+03  0.29989188055E+03  0.00000000000E+00 0.  1.
         21   -1    0    0  501  503 -0.00000000000E+00 -0.00000000000E+00 -0.22141891817E+03  0.22141891817E+03  0.00000000000E+00 0.  1.
          6    2    1    2  501    0  0.24722478402E+02 -0.12993032013E+03 -0.10088657608E+03  0.23900803626E+03  0.17162066057E+03 0.  0.
         24    2    3    3    0    0 -0.12789908712E+02 -0.13960843071E+03 -0.11644767449E+03  0.19699514782E+03  0.74785905632E+02 0.  0.
         -6    2    1    2    0  502 -0.24722478402E+02  0.12993032013E+03  0.17935953847E+03  0.28230276246E+03  0.17329719163E+03 0.  0.
        -24    2    5    5    0    0 -0.32906926024E+02  0.16149068577E+03  0.16530587445E+03  0.24648883592E+03  0.79174533387E+02 0.  0.
          5    1    3    3  501    0  0.37512387115E+02  0.96781105775E+01  0.15561098408E+02  0.42012888440E+02  0.47000000000E+01 0. -1.
        -13    1    4    4    0    0 -0.34731306130E+02 -0.41547488163E+02 -0.20041892991E+02  0.57741968037E+02  0.00000000000E+00 0.  1.
         14    1    4    4    0    0  0.21941397418E+02 -0.98060942547E+02 -0.96405781498E+02  0.13925317978E+03  0.00000000000E+00 0. -1.
         -5    1    5    5    0  502  0.81844476213E+01 -0.31560365635E+02  0.14053664017E+02  0.35813926540E+02  0.47000000000E+01 0.  1.
         13    1    6    6    0    0 -0.39633604926E+02  0.31638884860E+02  0.30424319104E+02  0.59139503443E+02  0.00000000000E+00 0. -1.
        -14    1    6    6    0    0  0.67266789023E+01  0.12985180091E+03  0.13488155535E+03  0.18734933248E+03  0.00000000000E+00 0.  1.
</event>
<event>
12    1  0.8313893E-002  0.1869696E+03  0.7818608E-02  0.1161271E+00
         21   -1    0    0  501  502  0.00000000000E+00  0.00000000000E+00  0.23162251923E+03  0.23162251923E+03  0.00000000000E+00 0. -1.
         21   -1    0    0  502  503 -0.00000000000E+00 -0.00000000000E+00 -0.22096067963E+03  0.22096067963E+03  0.00000000000E+00 0. -1.
         -6    2    1    2    0  503  0.70136494273E+02  0.22867554133E+02 -0.12221899078E+03  0.22337209937E+03  0.17180093192E+03 0.  0.
        -24    2    3    3    0    0  0.45860092326E+02  0.48449877589E+02 -0.14891897872E+02  0.11030135232E+03  0.86568360243E+02 0.  0.
          6    2    1    2  501    0 -0.70136494273E+02 -0.22867554133E+02  0.13288083039E+03  0.22921109950E+03  0.17157610610E+03 0.  0.
         24    2    5    5    0    0 -0.10022617119E+03 -0.29868418079E+02  0.14589739388E+03  0.19535963457E+03  0.77083911992E+02 0.  0.
          5    1    5    5  501    0  0.30089676914E+02  0.70008639465E+01 -0.13016563490E+02  0.33851464929E+02  0.47000000000E+01 0. -1.
        -11    1    6    6    0    0 -0.16760245770E+02 -0.87813343277E+00 -0.74623969365E+01  0.18367480084E+02  0.00000000000E+00 0.  1.
         12    1    6    6    0    0 -0.83465925417E+02 -0.28990284646E+02  0.15335979082E+03  0.17699215448E+03  0.00000000000E+00 0. -1.
         -5    1    3    3    0  503  0.24276401947E+02 -0.25582323456E+02 -0.10732709291E+03  0.11307074705E+03  0.47000000000E+01 0.  1.
         13    1    4    4    0    0  0.37092864065E+02 -0.18504813968E+02 -0.16260654484E+01  0.41484368060E+02  0.00000000000E+00 0. -1.
        -14    1    4    4    0    0  0.87672282610E+01  0.66954691557E+02 -0.13265832423E+02  0.68816984261E+02  0.00000000000E+00 0.  1.
</event>
<event>
12    1  0.8313893E-002  0.1995314E+03  0.7818608E-02  0.1150478E+00
         21   -1    0    0  501  502  0.00000000000E+00  0.00000000000E+00  0.14245184020E+04  0.14245184020E+04  0.00000000000E+00 0.  1.
         21   -1    0    0  502  503 -0.00000000000E+00 -0.00000000000E+00 -0.47355650644E+02  0.47355650644E+02  0.00000000000E+00 0.  1.
         -6    2    1    2    0  503 -0.24272581255E+02  0.96820562682E+02  0.21636354159E+03  0.29432288230E+03  0.17276978138E+03 0.  0.
        -24    2    3    3    0    0 -0.56696296909E+02  0.12274769692E+03  0.18059799464E+03  0.23932490075E+03  0.79870553192E+02 0.  0.
          6    2    1    2  501    0  0.24272581255E+02 -0.96820562682E+02  0.11607992097E+04  0.11775511703E+04  0.17090516029E+03 0.  0.
         24    2    5    5    0    0 -0.40197537868E+02 -0.55331353749E+02  0.83140538294E+03  0.83932028194E+03  0.92445790232E+02 0.  0.
          5    1    5    5  501    0  0.64470119123E+02 -0.41489208933E+02  0.32939382678E+03  0.33823088836E+03  0.47000000000E+01 0. -1.
        -11    1    6    6    0    0 -0.79415448098E+01 -0.14321140221E+02  0.65875033861E+03  0.65895384649E+03  0.00000000000E+00 0.  1.
         12    1    6    6    0    0 -0.32255993058E+02 -0.41010213528E+02  0.17265504433E+03  0.18036643544E+03  0.00000000000E+00 0. -1.
         -5    1    3    3    0  503  0.32423715653E+02 -0.25927134239E+02  0.35765546946E+02  0.54997981553E+02  0.47000000000E+01 0.  1.
         13    1    4    4    0    0  0.18983997472E+02  0.10709233360E+02  0.26903607494E+02  0.34624903399E+02  0.00000000000E+00 0. -1.
        -14    1    4    4    0    0 -0.75680294380E+02  0.11203846356E+03  0.15369438715E+03  0.20469999735E+03  0.00000000000E+00 0.  1.
</event>
<event>
12    1  0.8313893E-002  0.1796286E+03  0.7818608E-02  0.1172859E+00
         21   -1    0    0  501  502  0.00000000000E+00  0.00000000000E+00  0.31268090135E+03  0.31268090135E+03  0.00000000000E+00 0. -1.
         21   -1    0    0  502  503 -0.00000000000E+00 -0.00000000000E+00 -0.11056881013E+03  0.11056881013E+03  0.00000000000E+00 0. -1.
         -6    2    1    2    0  503 -0.54908388092E+02 -0.52014704227E+01  0.18085462112E+03  0.24236767446E+03  0.15163017268E+03 0.  0.
        -24    2    3    3    0    0 -0.64227113179E+02 -0.52065690128E+02  0.12721348306E+03  0.17037770698E+03  0.77519898136E+02 0.  0.
          6    2    1    2  501    0  0.54908388092E+02  0.52014704227E+01  0.21257470093E+02  0.18088203702E+03  0.17095158644E+03 0.  0.
         24    2    5    5    0    0  0.13186988509E+02 -0.60734334844E+02  0.29367384511E+01  0.10059539550E+03  0.79045892161E+02 0.  0.
          5    1    5    5  501    0  0.41721399582E+02  0.65935805267E+02  0.18320731642E+02  0.80286641524E+02  0.47000000000E+01 0. -1.
        -11    1    6    6    0    0 -0.18024829226E+00 -0.65721377122E+02  0.28251843360E+02  0.71536693755E+02  0.00000000000E+00 0.  1.
         12    1    6    6    0    0  0.13367236802E+02  0.49870422775E+01 -0.25315104909E+02  0.29058701742E+02  0.00000000000E+00 0. -1.
         -5    1    3    3    0  503  0.93187250872E+01  0.46864219705E+02  0.53641138067E+02  0.71989967488E+02  0.47000000000E+01 0.  1.
         13    1    4    4    0    0  0.11727056112E+02 -0.28072542164E+01  0.49874675124E+02  0.51311672551E+02  0.00000000000E+00 0. -1.
        -14    1    4    4    0    0 -0.75954169291E+02 -0.49258435912E+02  0.77338807933E+02  0.11906603442E+03  0.00000000000E+00 0.  1.
</event>
<event>
12    1  0.8313893E-002  0.2805381E+03  0.7818608E-02  0.1095441E+00
         21   -1    0    0  501  502  0.00000000000E+00  0.00000000000E+00  0.87778127892E+03  0.87778127892E+03  0.00000000000E+00 0.  1.
         21   -1    0    0  502  503 -0.00000000000E+00 -0.00000000000E+00 -0.10771087160E+03  0.10771087160E+03  0.00000000000E+00 0. -1.
         -6    2    1    2    0  503  0.18610591928E+03 -0.11928173235E+03  0.18252302857E+03  0.33440572477E+03  0.17218881478E+03 0.  0.
        -24    2    3    3    0    0  0.38171037362E+02 -0.14709634023E+02  0.98207688822E+02  0.13452771309E+03  0.82338047207E+02 0.  0.
          6    2    1    2  501    0 -0.18610591928E+03  0.11928173235E+03  0.58754737875E+03  0.65108642575E+03  0.17273698692E+03 0.  0.
         24    2    5    5    0    0 -0.72484330839E+02  0.94699940560E+02  0.44272067815E+03  0.46531507959E+03  0.79337679999E+02 0.  0.
          5    1    5    5  501    0 -0.11362158845E+03  0.24581791788E+02  0.14482670060E+03  0.18577134616E+03  0.47000000000E+01 0. -1.
        -11    1    6    6    0    0 -0.64858497748E+02  0.26628824717E+02  0.28242788275E+03  0.29100039174E+03  0.00000000000E+00 0.  1.
         12    1    6    6    0    0 -0.76258330913E+01  0.68071115843E+02  0.16029279540E+03  0.17431468785E+03  0.00000000000E+00 0. -1.
         -5    1    3    3    0  503  0.14793488192E+03 -0.10457209832E+03  0.84315339752E+02  0.19987801168E+03  0.47000000000E+01 0.  1.
         13    1    4    4    0    0 -0.10031841932E+02  0.19948971982E+02  0.32878793714E+01  0.22570101604E+02  0.00000000000E+00 0. -1.
        -14    1    4    4    0    0  0.48202879294E+02 -0.34658606005E+02  0.94919809450E+02  0.11195761148E+03  0.00000000000E+00 0.  1.
</event>
<event>
12    1  0.8313893E-002  0.2211126E+03  0.7818608E-02  0.1133158E+00
         21   -1    0    0  503  502  0.00000000000E+00  0.00000000000E+00  0.40980129419E+03  0.40980129419E+03  0.00000000000E+00 0. -1.
         21   -1    0    0  501  503 -0.00000000000E+00 -0.00000000000E+00 -0.16243948579E+03  0.16243948579E+03  0.00000000000E+00 0. -1.
          6    2    1    2  501    0 -0.64122313232E+02 -0.12020535672E+03 -0.24381079501E+02  0.22190527500E+03  0.17345464882E+03 0.  0.
         24    2    3    3    0    0 -0.55779038744E+02 -0.19014151229E+01 -0.17850935918E+02  0.10303490189E+03  0.84750330692E+02 0.  0.
         -6    2    1    2    0  502  0.64122313232E+02  0.12020535672E+03  0.27174288789E+03  0.35033550498E+03  0.17415444322E+03 0.  0.
        -24    2    5    5    0    0 -0.15016301576E+02  0.25884818973E+02  0.57083255134E+02  0.10282766242E+03  0.80121888241E+02 0.  0.
          5    1    3    3  501    0 -0.83432744873E+01 -0.11830394160E+03 -0.65301435834E+01  0.11887037310E+03  0.47000000000E+01 0. -1.
        -11    1    4    4    0    0 -0.14865417495E+01  0.26996720086E+02 -0.29953136122E+02  0.40351246143E+02  0.00000000000E+00 0.  1.
         12    1    4    4    0    0 -0.54292496995E+02 -0.28898135209E+02  0.12102200205E+02  0.62683655751E+02  0.00000000000E+00 0. -1.
         -5    1    5    5    0  502  0.79138614808E+02  0.94320537748E+02  0.21465963276E+03  0.24750784256E+03  0.47000000000E+01 0.  1.
         13    1    6    6    0    0 -0.21559276488E+02  0.21544432608E+02  0.76249503804E+02  0.82115478501E+02  0.00000000000E+00 0. -1.
        -14    1    6    6    0    0  0.65429749116E+01  0.43403863651E+01 -0.19166248671E+02  0.20712183917E+02  0.00000000000E+00 0.  1.
</event>
<event>
12    1  0.8313893E-002  0.1820781E+03  0.7818608E-02  0.1166375E+00
         21   -1    0    0  503  502  0.00000000000E+00  0.00000000000E+00  0.41445972937E+03  0.41445972937E+03  0.00000000000E+00 0.  1.
         21   -1    0    0  501  503 -0.00000000000E+00 -0.00000000000E+00 -0.81422465204E+02  0.81422465204E+02  0.00000000000E+00 0.  1.
          6    2    1    2  501    0  0.46911334120E+02  0.38780962984E+02  0.21074456067E+03  0.27850617358E+03  0.17160356206E+03 0.  0.
         24    2    3    3    0    0 -0.45472894922E+01 -0.37222308938E+02  0.12510969818E+03  0.15288807393E+03  0.79474199872E+02 0.  0.
         -6    2    1    2    0  502 -0.46911334120E+02 -0.38780962984E+02  0.12229270349E+03  0.21737602099E+03  0.16909226125E+03 0.  0.
        -24    2    5    5    0    0 -0.85579243154E+02 -0.65502986726E+01  0.45783094745E+02  0.12567087860E+03  0.79563588981E+02 0.  0.
          5    1    3    3  501    0  0.51458623612E+02  0.76003271922E+02  0.85634862490E+02  0.12561809965E+03  0.47000000000E+01 0. -1.
        -11    1    4    4    0    0  0.24341685138E+02  0.85633175846E+01  0.14158016532E+02  0.29432931821E+02  0.00000000000E+00 0.  1.
         12    1    4    4    0    0 -0.28888974631E+02 -0.45785626523E+02  0.11095168165E+03  0.12345514211E+03  0.00000000000E+00 0. -1.
         -5    1    5    5    0  502  0.38667909033E+02 -0.32230664311E+02  0.76509608748E+02  0.91705142396E+02  0.47000000000E+01 0.  1.
         11    1    6    6    0    0  0.13222938519E+02  0.93212159124E+01  0.15189424385E+01  0.16249257069E+02  0.00000000000E+00 0. -1.
        -12    1    6    6    0    0 -0.98802181673E+02 -0.15871514585E+02  0.44264152306E+02  0.10942162153E+03  0.00000000000E+00 0.  1.
</event>
<event>
12    1  0.8313893E-002  0.1870590E+03  0.7818608E-02  0.1161868E+00
         21   -1    0    0  501  502  0.00000000000E+00  0.00000000000E+00  0.57908210687E+03  0.57908210687E+03  0.00000000000E+00 0.  1.
         21   -1    0    0  502  503 -0.00000000000E+00 -0.00000000000E+00 -0.62050142192E+02  0.62050142192E+02  0.00000000000E+00 0.  1.
         -6    2    1    2    0  503  0.60991233455E+02  0.30651953273E+02  0.32661926531E+03  0.37639238978E+03  0.17415973650E+03 0.  0.
        -24    2    3    3    0    0 -0.34739388322E+01  0.49425550529E+02  0.85735036146E+02  0.12628139792E+03  0.78367989260E+02 0.  0.
          6    2    1    2  501    0 -0.60991233455E+02 -0.30651953273E+02  0.19041269937E+03  0.26473985928E+03  0.17079439163E+03 0.  0.
         24    2    5    5    0    0 -0.10776307385E+02  0.18344056978E+02  0.28170194670E+02  0.87915460082E+02  0.80516675456E+02 0.  0.
          5    1    5    5  501    0 -0.50214926070E+02 -0.48996010250E+02  0.16224250470E+03  0.17682439919E+03  0.47000000000E+01 0. -1.
        -13    1    6    6    0    0 -0.12113221996E+02  0.49544767603E+02  0.10638980015E+02  0.52101842959E+02  0.00000000000E+00 0.  1.
         14    1    6    6    0    0  0.13369146112E+01 -0.31200710625E+02  0.17531214654E+02  0.35813617123E+02  0.00000000000E+00 0. -1.
         -5    1    3    3    0  503  0.64465172287E+02 -0.18773597256E+02  0.24088422916E+03  0.25011099187E+03  0.47000000000E+01 0.  1.
         13    1    4    4    0    0  0.24481000597E+02  0.55202988719E+02  0.40220996818E+02  0.72556308745E+02  0.00000000000E+00 0. -1.
        -14    1    4    4    0    0 -0.27954939429E+02 -0.57774381896E+01  0.45514039327E+02  0.53725089171E+02  0.00000000000E+00 0.  1.
</event>
<event>
12    1  0.8313893E-002  0.1759167E+03  0.7818608E-02  0.1171898E+00
         21   -1    0    0  503  502  0.00000000000E+00  0.00000000000E+00  0.37282630109E+03  0.37282630109E+03  0.00000000000E+00 0. -1.
         21   -1    0    0  501  503 -0.00000000000E+00 -0.00000000000E+00 -0.85481285962E+02  0.85481285962E+02  0.00000000000E+00 0. -1.
          6    2    1    2  501    0  0.36760174319E+02 -0.44466709341E+01  0.18402065059E+03  0.25457862890E+03  0.17197556556E+03 0.  0.
         24    2    3    3    0    0  0.26983350947E+02  0.54150944395E+02  0.16226807030E+03  0.19113943323E+03  0.80888381674E+02 0.  0.
         -6    2    1    2    0  502 -0.36760174319E+02  0.44466709341E+01  0.10332436454E+03  0.20372895816E+03  0.17163473071E+03 0.  0.
        -24    2    5    5    0    0 -0.24268402936E+02  0.56596063251E+02  0.11102457229E+03  0.14935077622E+03  0.78658305028E+02 0.  0.
          5    1    3    3  501    0  0.97768233716E+01 -0.58597615330E+02  0.21752580293E+02  0.63439195668E+02  0.47000000000E+01 0. -1.
        -11    1    4    4    0    0  0.18622695278E+02 -0.18051257603E+02  0.62798883617E+02  0.67943744848E+02  0.00000000000E+00 0.  1.
         12    1    4    4    0    0  0.83606556690E+01  0.72202201999E+02  0.99469186682E+02  0.12319568838E+03  0.00000000000E+00 0. -1.
         -5    1    5    5    0  502 -0.12491771382E+02 -0.52149392317E+02 -0.77002077485E+01  0.54378181936E+02  0.47000000000E+01 0.  1.
         13    1    6    6    0    0 -0.11696793777E+02 -0.72098181777E+01 -0.63712890411E+01  0.15145619395E+02  0.00000000000E+00 0. -1.
        -14    1    6    6    0    0 -0.12571609160E+02  0.63805881428E+02  0.11739586133E+03  0.13420515683E+03  0.00000000000E+00 0.  1.
</event>
<event>
12    1  0.8313893E-002  0.1874215E+03  0.7818608E-02  0.1162399E+00
         21   -1    0    0  501  502  0.00000000000E+00  0.00000000000E+00  0.28822553171E+03  0.28822553171E+03  0.00000000000E+00 0.  1.
         21   -1    0    0  502  503 -0.00000000000E+00 -0.00000000000E+00 -0.15138475391E+03  0.15138475391E+03  0.00000000000E+00 0.  1.
         -6    2    1    2    0  503  0.53327696775E+02  0.22368907401E+02  0.17339032747E+03  0.25532532342E+03  0.17827676196E+03 0.  0.
        -24    2    3    3    0    0  0.57009542644E+02  0.74280544276E+02  0.15305283422E+03  0.19925324780E+03  0.86654483361E+02 0.  0.
          6    2    1    2  501    0 -0.53327696775E+02 -0.22368907401E+02 -0.36549549672E+02  0.18428496220E+03  0.17111652886E+03 0.  0.
         24    2    5    5    0    0 -0.86214771652E+02 -0.27411451136E+01 -0.66681481395E+02  0.13532751072E+03  0.80166167850E+02 0.  0.
          5    1    5    5  501    0  0.32887074878E+02 -0.19627762288E+02  0.30131931723E+02  0.48957451484E+02  0.47000000000E+01 0. -1.
        -11    1    6    6    0    0 -0.46839178556E+02  0.13334531449E+02  0.80306147675E+01  0.49357969471E+02  0.00000000000E+00 0.  1.
         12    1    6    6    0    0 -0.39375593096E+02 -0.16075676563E+02 -0.74712096163E+02  0.85969541244E+02  0.00000000000E+00 0. -1.
         -5    1    3    3    0  503 -0.36818458694E+01 -0.51911636874E+02  0.20337493248E+02  0.56072075614E+02  0.47000000000E+01 0.  1.
         13    1    4    4    0    0 -0.14223148211E+02  0.80022561200E+01  0.68286969204E+02  0.70210000791E+02  0.00000000000E+00 0. -1.
        -14    1    4    4    0    0  0.71232690855E+02  0.66278288156E+02  0.84765865018E+02  0.12904324701E+03  0.00000000000E+00 0.  1.
</event>
<event>
12    1  0.8313893E-002  0.1797056E+03  0.7818608E-02  0.1170050E+00
         21   -1    0    0  501  502  0.00000000000E+00  0.00000000000E+00  0.65037233309E+02  0.65037233309E+02  0.00000000000E+00 0.  1.
         21   -1    0    0  502  503 -0.00000000000E+00 -0.00000000000E+00 -0.10759327648E+04  0.10759327648E+04  0.00000000000E+00 0.  1.
         -6    2    1    2    0  503 -0.49598360666E+02  0.11604453741E+02 -0.92674846283E+03  0.94253906006E+03  0.16408079004E+03 0.  0.
        -24    2    3    3    0    0  0.19795381783E+02  0.20405680359E+02 -0.70041240894E+03  0.70559380822E+03  0.80478759116E+02 0.  0.
          6    2    1    2  501    0  0.49598360666E+02 -0.11604453741E+02 -0.84147068699E+02  0.19843093808E+03  0.17233527582E+03 0.  0.
         24    2    5    5    0    0 -0.39152618946E+02  0.70679902941E+01 -0.48989484973E+02  0.10104745775E+03  0.78915999791E+02 0.  0.
          5    1    5    5  501    0  0.88750979612E+02 -0.18672444035E+02 -0.35157583726E+02  0.97383480333E+02  0.47000000000E+01 0. -1.
        -11    1    6    6    0    0 -0.32925189869E+02  0.41546898367E+02 -0.25190472128E+02  0.58692186685E+02  0.00000000000E+00 0.  1.
         12    1    6    6    0    0 -0.62274290767E+01 -0.34478908072E+02 -0.23799012845E+02  0.42355271067E+02  0.00000000000E+00 0. -1.
         -5    1    3    3    0  503 -0.69393742449E+02 -0.88012266182E+01 -0.22633605389E+03  0.23694525184E+03  0.47000000000E+01 0.  1.
         13    1    4    4    0    0  0.77523484416E+01 -0.30882023963E+02 -0.21793032395E+03  0.22024401106E+03  0.00000000000E+00 0. -1.
        -14    1    4    4    0    0  0.12043033341E+02  0.51287704323E+02 -0.48248208499E+03  0.48534979716E+03  0.00000000000E+00 0.  1.
</event>
<event>
12    1  0.8313893E-002  0.1744020E+03  0.7818608E-02  0.1173471E+00
         21   -1    0    0  501  502  0.00000000000E+00  0.00000000000E+00  0.85110525308E+03  0.85110525308E+03  0.00000000000E+00 0.  1.
         21   -1    0    0  502  503 -0.00000000000E+00 -0.00000000000E+00 -0.51249724607E+02  0.51249724607E+02  0.00000000000E+00 0.  1.
         -6    2    1    2    0  503  0.17445311655E+01  0.29697450990E+02  0.15037540099E+03  0.22986668709E+03  0.17129200398E+03 0.  0.
        -24    2    3    3    0    0  0.26399137966E+02 -0.32855134094E+02  0.34833784401E+02  0.96103348683E+02  0.79032188194E+02 0.  0.
          6    2    1    2  501    0 -0.17445311655E+01 -0.29697450990E+02  0.64948012747E+03  0.67248829059E+03  0.17184610270E+03 0.  0.
         24    2    5    5    0    0  0.20767379674E+02  0.65527534609E+01  0.15083633355E+03  0.17199994240E+03  0.79738058865E+02 0.  0.
          5    1    5    5  501    0 -0.22511910839E+02 -0.36250204451E+02  0.49864379393E+03  0.50048834819E+03  0.47000000000E+01 0. -1.
        -11    1    6    6    0    0 -0.25213139061E+02 -0.16264446154E+02  0.71081172901E+02  0.77154181552E+02  0.00000000000E+00 0.  1.
         12    1    6    6    0    0  0.45980518734E+02  0.22817199615E+02  0.79755160648E+02  0.94845760850E+02  0.00000000000E+00 0. -1.
         -5    1    3    3    0  503 -0.24654606800E+02  0.62552585084E+02  0.11554161659E+03  0.13376333841E+03  0.47000000000E+01 0.  1.
         13    1    4    4    0    0  0.96204402318E+00 -0.26492555986E+02  0.56291677781E+02  0.62221652492E+02  0.00000000000E+00 0. -1.
        -14    1    4    4    0    0  0.25437093943E+02 -0.63625781080E+01 -0.21457893381E+02  0.33881696191E+02  0.00000000000E+00 0.  1.
</event>
<event>
12    1  0.8313893E-002  0.1776742E+03  0.7818608E-02  0.1171180E+00
         21   -1    0    0  501  502  0.00000000000E+00  0.00000000000E+00  0.14976165752E+04  0.14976165752E+04  0.00000000000E+00 0.  1.
         21   -1    0    0  502  503 -0.00000000000E+00 -0.00000000000E+00 -0.28846964332E+02  0.28846964332E+02  0.00000000000E+00 0.  1.
         -6    2    1    2    0  503 -0.34460830538E+01  0.15909545587E+02  0.33184545315E+03  0.37641671477E+03  0.17692696022E+03 0.  0.
        -24    2    3    3    0    0  0.23630575737E+02 -0.55160009944E+02  0.18596954484E+03  0.21183877640E+03  0.81792204822E+02 0.  0.
          6    2    1    2  501    0  0.34460830538E+01 -0.15909545587E+02  0.11369241578E+04  0.11500468248E+04  0.17247077902E+03 0.  0.
         24    2    5    5    0    0  0.49844075449E+01 -0.18657971000E+02  0.24660388908E+03  0.25970857947E+03  0.79133456515E+02 0.  0.
          5    1    5    5  501    0 -0.15383244911E+01  0.27484254132E+01  0.89032026868E+03  0.89033824533E+03  0.47000000000E+01 0. -1.
        -11    1    6    6    0    0 -0.14635493793E+02 -0.45289955626E+02  0.12741250631E+03  0.13601222196E+03  0.00000000000E+00 0.  1.
         12    1    6    6    0    0  0.19619901338E+02  0.26631984626E+02  0.11919138277E+03  0.12369635751E+03  0.00000000000E+00 0. -1.
         -5    1    3    3    0  503 -0.27076658791E+02  0.71069555531E+02  0.14587590831E+03  0.16457793837E+03  0.47000000000E+01 0.  1.
         11    1    4    4    0    0  0.10455277674E+02 -0.34940639174E+01  0.14282577329E+03  0.14325055961E+03  0.00000000000E+00 0. -1.
        -12    1    4    4    0    0  0.13175298063E+02 -0.51665946026E+02  0.43143771557E+02  0.68588216787E+02  0.00000000000E+00 0.  1.
</event>
<event>
12    1  0.8313893E-002  0.1906120E+03  0.7818608E-02  0.1158086E+00
         21   -1    0    0  501  502  0.00000000000E+00  0.00000000000E+00  0.31848123774E+02  0.31848123774E+02  0.00000000000E+00 0.  1.
         21   -1    0    0  502  503 -0.00000000000E+00 -0.00000000000E+00 -0.15188279170E+04  0.15188279170E+04  0.00000000000E+00 0.  1.
         -6    2    1    2    0  503  0.23693402712E+02  0.78350480361E+02 -0.11315297728E+04  0.11473428488E+04  0.17127699994E+03 0.  0.
        -24    2    3    3    0    0 -0.52224672055E-01  0.11013164321E+03 -0.64183798685E+03  0.65602418192E+03  0.79263764360E+02 0.  0.
          6    2    1    2  501    0 -0.23693402712E+02 -0.78350480361E+02 -0.35545002035E+03  0.40333319196E+03  0.17214171971E+03 0.  0.
         24    2    5    5    0    0 -0.36178798748E+02  0.21742819398E+02 -0.16433584008E+03  0.18718214831E+03  0.79052088128E+02 0.  0.
          5    1    5    5  501    0  0.12485396035E+02 -0.10009329976E+03 -0.19111418026E+03  0.21615104364E+03  0.47000000000E+01 0. -1.
        -13    1    6    6    0    0 -0.49238043162E+02 -0.58921773556E+01 -0.13867009532E+03  0.14727015307E+03  0.00000000000E+00 0.  1.
         14    1    6    6    0    0  0.13059244414E+02  0.27634996753E+02 -0.25665744759E+02  0.39911995243E+02  0.00000000000E+00 0. -1.
         -5    1    3    3    0  503  0.23745627385E+02 -0.31781162849E+02 -0.48969178598E+03  0.49131866685E+03  0.47000000000E+01 0.  1.
         11    1    4    4    0    0  0.89473047181E+01 -0.10913871407E+02 -0.78428278084E+02  0.79687901554E+02  0.00000000000E+00 0. -1.
        -12    1    4    4    0    0 -0.89995293901E+01  0.12104551462E+03 -0.56340970876E+03  0.57633628037E+03  0.00000000000E+00 0.  1.
</event>
<event>
12    1  0.8313893E-002  0.2189465E+03  0.7818608E-02  0.1134742E+00
         21   -1    0    0  501  502  0.00000000000E+00  0.00000000000E+00  0.49681138130E+02  0.49681138130E+02  0.00000000000E+00 0. -1.
         21   -1    0    0  502  503 -0.00000000000E+00 -0.00000000000E+00 -0.11583691673E+04  0.11583691673E+04  0.00000000000E+00 0. -1.
         -6    2    1    2    0  503 -0.13419396904E+03 -0.18314641401E+02 -0.80185506967E+03  0.83110996950E+03  0.17154818927E+03 0.  0.
        -24    2    3    3    0    0 -0.47576520001E+02  0.35911153429E+02 -0.22591588531E+03  0.24615607954E+03  0.77470588384E+02 0.  0.
          6    2    1    2  501    0  0.13419396904E+03  0.18314641401E+02 -0.30683295946E+03  0.37694033589E+03  0.17202937071E+03 0.  0.
         24    2    5    5    0    0  0.10845516597E+03 -0.51372150145E+02 -0.20341280137E+03  0.24951759852E+03  0.80502443253E+02 0.  0.
          5    1    5    5  501    0  0.25738803067E+02  0.69686791546E+02 -0.10342015809E+03  0.12742273737E+03  0.47000000000E+01 0. -1.
        -11    1    6    6    0    0  0.54648170956E+01 -0.25132710052E+02 -0.77653873370E+01  0.26866681614E+02  0.00000000000E+00 0.  1.
         12    1    6    6    0    0  0.10299034888E+03 -0.26239440094E+02 -0.19564741404E+03  0.22265091690E+03  0.00000000000E+00 0. -1.
         -5    1    3    3    0  503 -0.86617449041E+02 -0.54225794829E+02 -0.57593918436E+03  0.58495388996E+03  0.47000000000E+01 0.  1.
         11    1    4    4    0    0 -0.62484482004E+02  0.42482934703E+02 -0.21079683682E+03  0.22392949034E+03  0.00000000000E+00 0. -1.
        -12    1    4    4    0    0  0.14907962003E+02 -0.65717812738E+01 -0.15119048489E+02  0.22226589198E+02  0.00000000000E+00 0.  1.
</event>
<event>
12    1  0.8313893E-002  0.2134509E+03  0.7818608E-02  0.1139108E+00
         21   -1    0    0  503  502  0.00000000000E+00  0.00000000000E+00  0.29173120078E+03  0.29173120078E+03  0.00000000000E+00 0.  1.
         21   -1    0    0  501  503 -0.00000000000E+00 -0.00000000000E+00 -0.47034939678E+03  0.47034939678E+03  0.00000000000E+00 0.  1.
          6    2    1    2  501    0 -0.11373219215E+03  0.56178848845E+02 -0.40109775401E+03  0.45376512757E+03  0.17009499741E+03 0.  0.
         24    2    3    3    0    0 -0.90753787564E+02  0.63190003727E+02 -0.40655618907E+03  0.42868430057E+03  0.79076343854E+02 0.  0.
         -6    2    1    2    0  502  0.11373219215E+03 -0.56178848845E+02  0.22247955800E+03  0.30831546999E+03  0.17166886939E+03 0.  0.
        -24    2    5    5    0    0  0.82741187903E+02 -0.26053290067E+02  0.45076124520E+02  0.12566263030E+03  0.78957973334E+02 0.  0.
          5    1    3    3  501    0 -0.22978404584E+02 -0.70111548820E+01  0.54584350569E+01  0.25080827006E+02  0.47000000000E+01 0. -1.
        -11    1    4    4    0    0 -0.36599948254E+02  0.41117243817E+02 -0.81108874817E+02  0.98024657742E+02  0.00000000000E+00 0.  1.
         12    1    4    4    0    0 -0.54153839310E+02  0.22072759910E+02 -0.32544731425E+03  0.33065964283E+03  0.00000000000E+00 0. -1.
         -5    1    5    5    0  502  0.30991004246E+02 -0.30125558778E+02  0.17740343348E+03  0.18265283969E+03  0.47000000000E+01 0.  1.
         11    1    6    6    0    0  0.34392626722E+02 -0.51278451142E+02  0.15649931014E+02  0.63696567137E+02  0.00000000000E+00 0. -1.
        -12    1    6    6    0    0  0.48348561181E+02  0.25225161074E+02  0.29426193506E+02  0.61966063162E+02  0.00000000000E+00 0.  1.
</event>
<event>
12    1  0.8313893E-002  0.2258512E+03  0.7818608E-02  0.1129807E+00
         21   -1    0    0  501  502  0.00000000000E+00  0.00000000000E+00  0.54061320229E+03  0.54061320229E+03  0.00000000000E+00 0. -1.
         21   -1    0    0  502  503 -0.00000000000E+00 -0.00000000000E+00 -0.13211873756E+04  0.13211873756E+04  0.00000000000E+00 0. -1.
         -6    2    1    2    0  503 -0.22726907800E+02  0.14278164676E+03 -0.12874380417E+04  0.13068954048E+04  0.17197609452E+03 0.  0.
        -24    2    3    3    0    0 -0.22051179570E+02  0.11966526227E+02 -0.70394519529E+03  0.70889954856E+03  0.79814031967E+02 0.  0.
          6    2    1    2  501    0  0.22726907800E+02 -0.14278164676E+03  0.50686386832E+03  0.55490517309E+03  0.17350982429E+03 0.  0.
         24    2    5    5    0    0  0.74900665136E+02 -0.12943756525E+03  0.34984914571E+03  0.38884530863E+03  0.80262421849E+02 0.  0.
          5    1    5    5  501    0 -0.52173757336E+02 -0.13344081512E+02  0.15701472261E+03  0.16605986445E+03  0.47000000000E+01 0. -1.
        -13    1    6    6    0    0 -0.34420370908E+01 -0.17163954849E+02  0.56120231461E+01  0.18383246971E+02  0.00000000000E+00 0.  1.
         14    1    6    6    0    0  0.78342702227E+02 -0.11227361040E+03  0.34423712256E+03  0.37046206166E+03  0.00000000000E+00 0. -1.
         -5    1    3    3    0  503 -0.67572823025E+00  0.13081512053E+03 -0.58349284636E+03  0.59799585628E+03  0.47000000000E+01 0.  1.
         13    1    4    4    0    0 -0.17803517749E+02  0.42027470428E+02 -0.26469357591E+03  0.26860000492E+03  0.00000000000E+00 0. -1.
        -14    1    4    4    0    0 -0.42476618205E+01 -0.30060944202E+02 -0.43925161938E+03  0.44029954364E+03  0.00000000000E+00 0.  1.
</event>
<event>
12    1  0.8313893E-002  0.1887422E+03  0.7818608E-02  0.1159861E+00
         21   -1    0    0  503  502  0.00000000000E+00  0.00000000000E+00  0.20580019393E+03  0.20580019393E+03  0.00000000000E+00 0.  1.
         21   -1    0    0  501  503 -0.00000000000E+00 -0.00000000000E+00 -0.65431461411E+03  0.65431461411E+03  0.00000000000E+00 0. -1.
          6    2    1    2  501    0  0.48800460075E+02  0.57123349877E+02 -0.59328885032E+03  0.62224245633E+03  0.17189954200E+03 0.  0.
         24    2    3    3    0    0  0.48505186720E+01  0.59974825706E+02 -0.15684747251E+03  0.18355931951E+03  0.73975583115E+02 0.  0.
         -6    2    1    2    0  502 -0.48800460075E+02 -0.57123349877E+02  0.14477443014E+03  0.23787235171E+03  0.17314461609E+03 0.  0.
        -24    2    5    5    0    0 -0.83111800893E+02 -0.85669047359E+02  0.10411347561E+03  0.17731223136E+03  0.79707304951E+02 0.  0.
          5    1    3    3  501    0  0.43949941403E+02 -0.28514758299E+01 -0.43644137781E+03  0.43868313682E+03  0.47000000000E+01 0. -1.
        -13    1    4    4    0    0  0.34953982503E+02  0.14072536904E+02 -0.43030048151E+02  0.57196173225E+02  0.00000000000E+00 0.  1.
         14    1    4    4    0    0 -0.30103463831E+02  0.45902288802E+02 -0.11381742436E+03  0.12636314629E+03  0.00000000000E+00 0. -1.
         -5    1    5    5    0  502  0.34311340818E+02  0.28545697483E+02  0.40660954534E+02  0.60560120353E+02  0.47000000000E+01 0.  1.
         11    1    6    6    0    0 -0.23217673478E+02 -0.48665010931E+02  0.28699064021E+01  0.53996111095E+02  0.00000000000E+00 0. -1.
        -12    1    6    6    0    0 -0.59894127415E+02 -0.37004036428E+02  0.10124356921E+03  0.12331612026E+03  0.00000000000E+00 0.  1.
</event>
<event>
12    1  0.8313893E-002  0.2352393E+03  0.7818608E-02  0.1123220E+00
         21   -1    0    0  503  502  0.00000000000E+00  0.00000000000E+00  0.25273550953E+03  0.25273550953E+03  0.00000000000E+00 0. -1.
         21   -1    0    0  501  503 -0.00000000000E+00 -0.00000000000E+00 -0.21797241859E+03  0.21797241859E+03  0.00000000000E+00 0.  1.
          6    2    1    2  501    0 -0.91725255225E+02 -0.13099783997E+03  0.10543498993E+02  0.23422516003E+03  0.17081072478E+03 0.  0.
         24    2    3    3    0    0 -0.27220752325E+02 -0.10377292017E+03  0.61889871769E+02  0.14727363820E+03  0.79682996697E+02 0.  0.
         -6    2    1    2    0  502  0.91725255225E+02  0.13099783997E+03  0.24219591943E+02  0.23648276809E+03  0.17252117101E+03 0.  0.
        -24    2    5    5    0    0  0.22162705996E+02  0.88491314437E+02  0.72747547567E+02  0.14149431908E+03  0.80040854489E+02 0.  0.
          5    1    3    3  501    0 -0.64504502900E+02 -0.27224919801E+02 -0.51346372776E+02  0.86951521837E+02  0.47000000000E+01 0. -1.
        -13    1    4    4    0    0 -0.36185803861E+02 -0.33370878616E+02 -0.53429220356E+01  0.49513379571E+02  0.00000000000E+00 0.  1.
         14    1    4    4    0    0  0.89650515358E+01 -0.70402041554E+02  0.67232793805E+02  0.97760258627E+02  0.00000000000E+00 0. -1.
         -5    1    5    5    0  502  0.69562549229E+02  0.42506525533E+02 -0.48527955623E+02  0.94988449009E+02  0.47000000000E+01 0.  1.
         13    1    6    6    0    0  0.36133935284E+02  0.80541684070E+02  0.25947028708E+02  0.92010175800E+02  0.00000000000E+00 0. -1.
        -14    1    6    6    0    0 -0.13971229289E+02  0.79496303674E+01  0.46800518859E+02  0.49484143281E+02  0.00000000000E+00 0.  1.
</event>
<event>
12    1  0.8313893E-002  0.3196524E+03  0.7818608E-02  0.1075838E+00
         21   -1    0    0  503  502  0.00000000000E+00  0.00000000000E+00  0.59603677689E+03  0.59603677689E+03  0.00000000000E+00 0. -1.
         21   -1    0    0  501  503 -0.00000000000E+00 -0.00000000000E+00 -0.18350726282E+03  0.18350726282E+03  0.00000000000E+00 0.  1.
          6    2    1    2  501    0  0.26838844086E+03 -0.18779976233E+02  0.10578730964E+03  0.33670252991E+03  0.17260531878E+03 0.  0.
         24    2    3    3    0    0  0.10642875348E+03 -0.37202936633E+02 -0.69990394833E+01  0.13842697328E+03  0.80011888602E+02 0.  0.
         -6    2    1    2    0  502 -0.26838844086E+03  0.18779976233E+02  0.30674220444E+03  0.44284150980E+03  0.17214174428E+03 0.  0.
        -24    2    5    5    0    0 -0.16434798431E+03 -0.49752501860E+02  0.22322516854E+03  0.29278051408E+03  0.80033631463E+02 0.  0.
          5    1    3    3  501    0  0.16195968738E+03  0.18422960400E+02  0.11278634912E+03  0.19827555663E+03  0.47000000000E+01 0. -1.
        -11    1    4    4    0    0  0.90735152332E+02 -0.58566443518E+02 -0.18435098493E+02  0.10955705834E+03  0.00000000000E+00 0.  1.
         12    1    4    4    0    0  0.15693601147E+02  0.21363506885E+02  0.11436059010E+02  0.28869914947E+02  0.00000000000E+00 0. -1.
         -5    1    5    5    0  502 -0.10404045655E+03  0.68532478093E+02  0.83517035897E+02  0.15006099572E+03  0.47000000000E+01 0.  1.
         13    1    6    6    0    0 -0.81584252493E+01  0.14017742829E+02  0.42791176983E+02  0.45761794591E+02  0.00000000000E+00 0. -1.
        -14    1    6    6    0    0 -0.15618955906E+03 -0.63770244688E+02  0.18043399156E+03  0.24701871949E+03  0.00000000000E+00 0.  1.
</event>
<event>
12    1  0.8313893E-002  0.2316506E+03  0.7818608E-02  0.1126541E+00
         21   -1    0    0  503  502  0.00000000000E+00  0.00000000000E+00  0.25384419972E+03  0.25384419972E+03  0.00000000000E+00 0. -1.
         21   -1    0    0  501  503 -0.00000000000E+00 -0.00000000000E+00 -0.21233762615E+03  0.21233762615E+03  0.00000000000E+00 0. -1.
          6    2    1    2  501    0 -0.15991094832E+02 -0.14476247814E+03 -0.19861132310E+02  0.22654039934E+03  0.17237806637E+03 0.  0.
         24    2    3    3    0    0  0.52909079743E+02 -0.94684587708E+02 -0.38102389524E+02  0.13930587274E+03  0.78675232587E+02 0.  0.
         -6    2    1    2    0  502  0.15991094832E+02  0.14476247814E+03  0.61367705877E+02  0.23964142653E+03  0.18013919005E+03 0.  0.
        -24    2    5    5    0    0 -0.57340367405E+02  0.67206477594E+02  0.59399491239E+02  0.13278451078E+03  0.79364969470E+02 0.  0.
          5    1    3    3  501    0 -0.68900174575E+02 -0.50077890435E+02  0.18241257214E+02  0.87234526603E+02  0.47000000000E+01 0. -1.
        -13    1    4    4    0    0  0.86446640694E+01  0.12944782359E+02 -0.12936315512E+02  0.20239710132E+02  0.00000000000E+00 0.  1.
         14    1    4    4    0    0  0.44264415674E+02 -0.10762937007E+03 -0.25166074012E+02  0.11906616260E+03  0.00000000000E+00 0. -1.
         -5    1    5    5    0  502  0.73331462237E+02  0.77556000549E+02  0.19682146382E+01  0.10685691575E+03  0.47000000000E+01 0.  1.
         13    1    6    6    0    0 -0.26144915047E+02  0.50742503818E-01  0.52207811108E+02  0.58388480870E+02  0.00000000000E+00 0. -1.
        -14    1    6    6    0    0 -0.31195452358E+02  0.67155735091E+02  0.71916801310E+01  0.74396029911E+02  0.00000000000E+00 0.  1.
</event>
<event>
12    1  0.8313893E-002  0.1724346E+03  0.7818608E-02  0.1175579E+00
         21   -1    0    0  501  502  0.00000000000E+00  0.00000000000E+00  0.15064826571E+03  0.15064826571E+03  0.00000000000E+00 0.  1.
         21   -1    0    0  502  503 -0.00000000000E+00 -0.00000000000E+00 -0.38205720915E+03  0.38205720915E+03  0.00000000000E+00 0.  1.
         -6    2    1    2    0  503  0.37735264531E+01  0.43231019790E+01 -0.30160561842E+03  0.34741852155E+03  0.17233905924E+03 0.  0.
        -24    2    3    3    0    0 -0.40883647081E+02 -0.40945484806E+02 -0.23658361161E+03  0.25635008866E+03  0.79972228636E+02 0.  0.
          6    2    1    2  501    0 -0.37735264531E+01 -0.43231019790E+01  0.70196674984E+02  0.18528695330E+03  0.17137897529E+03 0.  0.
         24    2    5    5    0    0 -0.17411276002E+02  0.63653043710E+02  0.44460751546E+02  0.11118450833E+03  0.77655482478E+02 0.  0.
          5    1    5    5  501    0  0.13637749549E+02 -0.67976145689E+02  0.25735923439E+02  0.74102444971E+02  0.47000000000E+01 0. -1.
        -13    1    6    6    0    0 -0.36469027303E+02  0.31561313095E+01  0.26727454646E+02  0.45324474063E+02  0.00000000000E+00 0.  1.
         14    1    6    6    0    0  0.19057751301E+02  0.60496912401E+02  0.17733296900E+02  0.65860034267E+02  0.00000000000E+00 0. -1.
         -5    1    3    3    0  503  0.44657173534E+02  0.45268586785E+02 -0.65022006818E+02  0.91068432885E+02  0.47000000000E+01 0.  1.
         11    1    4    4    0    0 -0.27686233545E+02  0.14778096120E+02 -0.14484141382E+03  0.14820241162E+03  0.00000000000E+00 0. -1.
        -12    1    4    4    0    0 -0.13197413535E+02 -0.55723580926E+02 -0.91742197786E+02  0.10814767704E+03  0.00000000000E+00 0.  1.
</event>
<event>
12    1  0.8313893E-002  0.1743962E+03  0.7818608E-02  0.1173794E+00
         21   -1    0    0  503  502  0.00000000000E+00  0.00000000000E+00  0.79333857527E+03  0.79333857527E+03  0.00000000000E+00 0. -1.
         21   -1    0    0  501  503 -0.00000000000E+00 -0.00000000000E+00 -0.14770603635E+03  0.14770603635E+03  0.00000000000E+00 0. -1.
          6    2    1    2  501    0  0.10276840032E+02 -0.12026778874E+02 -0.82363412376E+02  0.19286719781E+03  0.17367719321E+03 0.  0.
         24    2    3    3    0    0  0.47821125108E+02 -0.48063591782E+02 -0.91931150088E+02  0.13974604542E+03  0.80502496802E+02 0.  0.
         -6    2    1    2    0  502 -0.10276840032E+02  0.12026778874E+02  0.72799595129E+03  0.74817741381E+03  0.17187518897E+03 0.  0.
        -24    2    5    5    0    0 -0.72046693803E+02  0.47261622101E+01  0.52135302930E+03  0.53232514709E+03  0.79674452405E+02 0.  0.
          5    1    3    3  501    0 -0.37544285076E+02  0.36036812908E+02  0.95677377127E+01  0.53121152392E+02  0.47000000000E+01 0. -1.
        -13    1    4    4    0    0 -0.14971254300E+02 -0.24278239724E+02 -0.35381585768E+01  0.28741780487E+02  0.00000000000E+00 0.  1.
         14    1    4    4    0    0  0.62792379409E+02 -0.23785352058E+02 -0.88392991512E+02  0.11100426493E+03  0.00000000000E+00 0. -1.
         -5    1    5    5    0  502  0.61769853771E+02  0.73006166638E+01  0.20664292200E+03  0.21585226673E+03  0.47000000000E+01 0.  1.
         13    1    6    6    0    0 -0.68164446635E+02  0.35097022407E+02  0.38797559444E+03  0.39547851351E+03  0.00000000000E+00 0. -1.
        -14    1    6    6    0    0 -0.38822471680E+01 -0.30370860197E+02  0.13337743485E+03  0.13684663357E+03  0.00000000000E+00 0.  1.
</event>
<event>
12    1  0.8313893E-002  0.2254948E+03  0.7818608E-02  0.1129885E+00
         21   -1    0    0  501  502  0.00000000000E+00  0.00000000000E+00  0.20545047752E+03  0.20545047752E+03  0.00000000000E+00 0. -1.
         21   -1    0    0  502  503 -0.00000000000E+00 -0.00000000000E+00 -0.65287778742E+03  0.65287778742E+03  0.00000000000E+00 0. -1.
         -6    2    1    2    0  503  0.12750514376E+03 -0.71358616643E+02 -0.56200853774E+03  0.60555882225E+03  0.17175062403E+03 0.  0.
        -24    2    3    3    0    0  0.73795166820E+02  0.25380103990E+02 -0.24638389982E+03  0.27106794979E+03  0.81749195652E+02 0.  0.
          6    2    1    2  501    0 -0.12750514376E+03  0.71358616643E+02  0.11458122784E+03  0.25276944269E+03  0.17150486736E+03 0.  0.
         24    2    5    5    0    0 -0.14043001670E+02  0.13601378671E+02  0.54601351298E+01  0.85022433470E+02  0.82563900828E+02 0.  0.
          5    1    5    5  501    0 -0.11346214209E+03  0.57757237971E+02  0.10912109271E+03  0.16774700921E+03  0.47000000000E+01 0. -1.
        -13    1    6    6    0    0 -0.36340568508E+02  0.32565278596E+02 -0.12895286824E+02  0.50471999285E+02  0.00000000000E+00 0.  1.
         14    1    6    6    0    0  0.22297566838E+02 -0.18963899925E+02  0.18355421954E+02  0.34550434185E+02  0.00000000000E+00 0. -1.
         -5    1    3    3    0  503  0.53709976944E+02 -0.96738720633E+02 -0.31562463792E+03  0.33449087246E+03  0.47000000000E+01 0.  1.
         13    1    4    4    0    0 -0.12310460537E+02 -0.53369505035E+01 -0.76883523432E+01  0.15464192222E+02  0.00000000000E+00 0. -1.
        -14    1    4    4    0    0  0.86105627357E+02  0.30717054494E+02 -0.23869554748E+03  0.25560375757E+03  0.00000000000E+00 0.  1.
</event>
<event>
12    1  0.8313893E-002  0.1958846E+03  0.7818608E-02  0.1153321E+00
         21   -1    0    0  501  502  0.00000000000E+00  0.00000000000E+00  0.27043956085E+03  0.27043956085E+03  0.00000000000E+00 0.  1.
         21   -1    0    0  502  503 -0.00000000000E+00 -0.00000000000E+00 -0.17210960834E+03  0.17210960834E+03  0.00000000000E+00 0. -1.
         -6    2    1    2    0  503  0.13347930662E+02  0.93097419619E+02 -0.43855882259E+02  0.20073398802E+03  0.17182985405E+03 0.  0.
        -24    2    3    3    0    0  0.51564582701E+02  0.24452755282E+01 -0.38796569035E+02  0.10211345074E+03  0.79101817252E+02 0.  0.
          6    2    1    2  501    0 -0.13347930662E+02 -0.93097419619E+02  0.14218583477E+03  0.24181518117E+03  0.17150065144E+03 0.  0.
         24    2    5    5    0    0 -0.33231114740E+02  0.12055499066E+02  0.76364302756E+02  0.11608912423E+03  0.79972095039E+02 0.  0.
          5    1    5    5  501    0  0.19883184079E+02 -0.10515291869E+03  0.65821532018E+02  0.12572605694E+03  0.47000000000E+01 0. -1.
        -13    1    6    6    0    0  0.91984736630E+01 -0.12812274311E+02  0.63255207645E+02  0.65191928833E+02  0.00000000000E+00 0.  1.
         14    1    6    6    0    0 -0.42429588403E+02  0.24867773378E+02  0.13109095111E+02  0.50897195399E+02  0.00000000000E+00 0. -1.
         -5    1    3    3    0  503 -0.38216652040E+02  0.90652144091E+02 -0.50593132240E+01  0.98620537271E+02  0.47000000000E+01 0.  1.
         11    1    4    4    0    0  0.43017345872E+02  0.24257214353E+02 -0.54779107225E+02  0.73754017398E+02  0.00000000000E+00 0. -1.
        -12    1    4    4    0    0  0.85472368294E+01 -0.21811938825E+02  0.15982538190E+02  0.28359433347E+02  0.00000000000E+00 0.  1.
</event>
<event>
12    1  0.8313893E-002  0.2149679E+03  0.7818608E-02  0.1138559E+00
         21   -1    0    0  503  502  0.00000000000E+00  0.00000000000E+00  0.51817187950E+03  0.51817187950E+03  0.00000000000E+00 0.  1.
         21   -1    0    0  501  503 -0.00000000000E+00 -0.00000000000E+00 -0.87384606923E+02  0.87384606923E+02  0.00000000000E+00 0.  1.
          6    2    1    2  501    0 -0.40550591556E+01 -0.12031366227E+03  0.21058032279E+03  0.30092406328E+03  0.17809940674E+03 0.  0.
         24    2    3    3    0    0  0.60631532366E+02 -0.31595148432E+02  0.11225068469E+03  0.15345834676E+03  0.79213710021E+02 0.  0.
         -6    2    1    2    0  502  0.40550591556E+01  0.12031366227E+03  0.22020694979E+03  0.30463242314E+03  0.17267886860E+03 0.  0.
        -24    2    5    5    0    0 -0.43022368498E+02  0.22076099121E+02  0.14284415697E+03  0.17093876316E+03  0.80481856498E+02 0.  0.
          5    1    3    3  501    0 -0.64686591522E+02 -0.88718513839E+02  0.98329638100E+02  0.14746571652E+03  0.47000000000E+01 0. -1.
        -13    1    4    4    0    0  0.12598716590E+02 -0.47465832612E+02  0.32069799034E+02  0.58653260228E+02  0.00000000000E+00 0.  1.
         14    1    4    4    0    0  0.48032815776E+02  0.15870684180E+02  0.80180885656E+02  0.94805086532E+02  0.00000000000E+00 0. -1.
         -5    1    5    5    0  502  0.47077427653E+02  0.98237563150E+02  0.77362792819E+02  0.13369365999E+03  0.47000000000E+01 0.  1.
         13    1    6    6    0    0  0.85976546199E+01 -0.23373996200E+02  0.33084944199E+02  0.41411072142E+02  0.00000000000E+00 0. -1.
        -14    1    6    6    0    0 -0.51620023118E+02  0.45450095321E+02  0.10975921277E+03  0.12952769101E+03  0.00000000000E+00 0.  1.
</event>
<event>
12    1  0.8313893E-002  0.2103657E+03  0.7818608E-02  0.1141571E+00
         21   -1    0    0  503  502  0.00000000000E+00  0.00000000000E+00  0.89494254484E+02  0.89494254484E+02  0.00000000000E+00 0. -1.
         21   -1    0    0  501  503 -0.00000000000E+00 -0.00000000000E+00 -0.61480723536E+03  0.61480723536E+03  0.00000000000E+00 0. -1.
          6    2    1    2  501    0  0.49058692442E+02  0.10855318799E+03 -0.42142338432E+03  0.47101103349E+03  0.17338735506E+03 0.  0.
         24    2    3    3    0    0  0.64183589626E+02  0.67410750730E+02 -0.40631990001E+03  0.42440987582E+03  0.79775554272E+02 0.  0.
         -6    2    1    2    0  502 -0.49058692442E+02 -0.10855318799E+03 -0.10388959655E+03  0.23329045635E+03  0.17158332910E+03 0.  0.
        -24    2    5    5    0    0 -0.11371453866E+01 -0.12181884621E+03 -0.11505976904E+03  0.18211121140E+03  0.71306510724E+02 0.  0.
          5    1    3    3  501    0 -0.15124897184E+02  0.41142437255E+02 -0.15103484314E+02  0.46601157674E+02  0.47000000000E+01 0. -1.
        -13    1    4    4    0    0  0.24655441280E+02 -0.14788292514E+02 -0.64259831171E+02  0.70398226414E+02  0.00000000000E+00 0.  1.
         14    1    4    4    0    0  0.39528148347E+02  0.82199043243E+02 -0.34206006884E+03  0.35401164940E+03  0.00000000000E+00 0. -1.
         -5    1    5    5    0  502 -0.47921547055E+02  0.13265658230E+02  0.11170172489E+02  0.51179244952E+02  0.47000000000E+01 0.  1.
         13    1    6    6    0    0 -0.19172980089E+02 -0.59488051264E+02 -0.17432413152E+02  0.64886982030E+02  0.00000000000E+00 0. -1.
        -14    1    6    6    0    0  0.18035834702E+02 -0.62330794951E+02 -0.97627355889E+02  0.11722422937E+03  0.00000000000E+00 0.  1.
</event>
<event>
12    1  0.8313893E-002  0.1746718E+03  0.7818608E-02  0.1173721E+00
         21   -1    0    0  503  502  0.00000000000E+00  0.00000000000E+00  0.32232582313E+03  0.32232582313E+03  0.00000000000E+00 0. -1.
         21   -1    0    0  501  503 -0.00000000000E+00 -0.00000000000E+00 -0.19774633780E+03  0.19774633780E+03  0.00000000000E+00 0. -1.
          6    2    1    2  501    0 -0.28681057707E+02 -0.21281651696E+02 -0.12651430173E+03  0.21567591005E+03  0.17098163019E+03 0.  0.
         24    2    3    3    0    0 -0.56158711855E+02 -0.10665759572E+02 -0.14934521547E+03  0.17811184124E+03  0.78436440914E+02 0.  0.
         -6    2    1    2    0  502  0.28681057707E+02  0.21281651696E+02  0.25109378706E+03  0.30439625088E+03  0.16832550572E+03 0.  0.
        -24    2    5    5    0    0  0.61807819513E+02 -0.18222785796E+02  0.98490104050E+02  0.14325048767E+03  0.81658588939E+02 0.  0.
          5    1    3    3  501    0  0.27477654148E+02 -0.10615892124E+02  0.22830913736E+02  0.37564068804E+02  0.47000000000E+01 0. -1.
        -13    1    4    4    0    0 -0.22068416413E+01  0.30995838374E+01  0.92630320328E+01  0.10014056742E+02  0.00000000000E+00 0.  1.
         14    1    4    4    0    0 -0.53951870214E+02 -0.13765343409E+02 -0.15860824750E+03  0.16809778450E+03  0.00000000000E+00 0. -1.
         -5    1    5    5    0  502 -0.33126761806E+02  0.39504437492E+02  0.15260368301E+03  0.16114576320E+03  0.47000000000E+01 0.  1.
         11    1    6    6    0    0  0.47142307050E+02 -0.23091814495E+02  0.11137803155E+03  0.12312877374E+03  0.00000000000E+00 0. -1.
        -12    1    6    6    0    0  0.14665512462E+02  0.48690286983E+01 -0.12887927502E+02  0.20121713931E+02  0.00000000000E+00 0.  1.
</event>
<event>
12    1  0.8313893E-002  0.2356463E+03  0.7818608E-02  0.1122794E+00
         21   -1    0    0  501  502  0.00000000000E+00  0.00000000000E+00  0.14071869971E+04  0.14071869971E+04  0.00000000000E+00 0.  1.
         21   -1    0    0  502  503 -0.00000000000E+00 -0.00000000000E+00 -0.67061721991E+02  0.67061721991E+02  0.00000000000E+00 0.  1.
         -6    2    1    2    0  503  0.11472798153E+03  0.11077704357E+03  0.19628675718E+03  0.30638925572E+03  0.17295034504E+03 0.  0.
        -24    2    3    3    0    0  0.14042435899E+02  0.53724993879E+02  0.25429305735E+02  0.99974929215E+02  0.79150312116E+02 0.  0.
          6    2    1    2  501    0 -0.11472798153E+03 -0.11077704357E+03  0.11438385179E+04  0.11678594633E+04  0.17347941651E+03 0.  0.
         24    2    5    5    0    0  0.71323363363E+01 -0.27023409677E+02  0.30644931213E+03  0.31750225593E+03  0.78200810233E+02 0.  0.
          5    1    5    5  501    0 -0.12186031786E+03 -0.83753633897E+02  0.83738920577E+03  0.85035720742E+03  0.47000000000E+01 0. -1.
        -13    1    6    6    0    0 -0.13979496888E+02  0.13454608016E+02  0.20889596845E+03  0.20979508680E+03  0.00000000000E+00 0.  1.
         14    1    6    6    0    0  0.21111833225E+02 -0.40478017693E+02  0.97553343684E+02  0.10770716913E+03  0.00000000000E+00 0. -1.
         -5    1    3    3    0  503  0.10068554563E+03  0.57052049696E+02  0.17085745145E+03  0.20641432651E+03  0.47000000000E+01 0.  1.
         13    1    4    4    0    0  0.15191909510E+02  0.12487633154E+02  0.48763438159E+02  0.52579539723E+02  0.00000000000E+00 0. -1.
        -14    1    4    4    0    0 -0.11494736112E+01  0.41237360725E+02 -0.23334132424E+02  0.47395389492E+02  0.00000000000E+00 0.  1.
</event>
<event>
12    1  0.8313893E-002  0.1739221E+03  0.7818608E-02  0.1174103E+00
         21   -1    0    0  503  502  0.00000000000E+00  0.00000000000E+00  0.15820090401E+03  0.15820090401E+03  0.00000000000E+00 0.  1.
         21   -1    0    0  501  503 -0.00000000000E+00 -0.00000000000E+00 -0.63398930302E+03  0.63398930302E+03  0.00000000000E+00 0.  1.
          6    2    1    2  501    0  0.18001945844E+02  0.70581848020E+01 -0.56914308555E+03  0.59479720048E+03  0.17171479218E+03 0.  0.
         24    2    3    3    0    0  0.77194736762E+02  0.57038303743E+01 -0.33654662158E+03  0.35473715420E+03  0.81137284946E+02 0.  0.
         -6    2    1    2    0  502 -0.18001945844E+02 -0.70581848020E+01  0.93354686534E+02  0.19739300655E+03  0.17284389926E+03 0.  0.
        -24    2    5    5    0    0 -0.50285027244E+02 -0.58420335441E+02  0.56576856337E+02  0.12629471785E+03  0.82509972277E+02 0.  0.
          5    1    3    3  501    0 -0.59192790918E+02  0.13543544277E+01 -0.23259646397E+03  0.24006004629E+03  0.47000000000E+01 0. -1.
        -13    1    4    4    0    0  0.41632211112E+02 -0.37102607477E+02 -0.14837599974E+03  0.15850956369E+03  0.00000000000E+00 0.  1.
         14    1    4    4    0    0  0.35562525650E+02  0.42806437851E+02 -0.18817062184E+03  0.19622759051E+03  0.00000000000E+00 0. -1.
         -5    1    5    5    0  502  0.32283081399E+02  0.51362150639E+02  0.36777830197E+02  0.71098288706E+02  0.47000000000E+01 0.  1.
         11    1    6    6    0    0 -0.80724602061E+01 -0.48970163347E+02 -0.62427377283E+01  0.50022127967E+02  0.00000000000E+00 0. -1.
        -12    1    6    6    0    0 -0.42212567038E+02 -0.94501720948E+01  0.62819594065E+02  0.76272589880E+02  0.00000000000E+00 0.  1.
</event>
<event>
12    1  0.8313893E-002  0.1816143E+03  0.7818608E-02  0.1168055E+00
         21   -1    0    0  501  502  0.00000000000E+00  0.00000000000E+00  0.67125332070E+02  0.67125332070E+02  0.00000000000E+00 0. -1.
         21   -1    0    0  502  503 -0.00000000000E+00 -0.00000000000E+00 -0.50175151594E+03  0.50175151594E+03  0.00000000000E+00 0. -1.
         -6    2    1    2    0  503  0.30909895853E+02 -0.78666497280E+01 -0.15184267404E+03  0.23672757323E+03  0.17879161173E+03 0.  0.
        -24    2    3    3    0    0 -0.31101020231E+02 -0.12457862854E+02 -0.15094191568E+03  0.17436304551E+03  0.80601103736E+02 0.  0.
          6    2    1    2  501    0 -0.30909895853E+02  0.78666497280E+01 -0.28278350983E+03  0.33214927478E+03  0.17128724841E+03 0.  0.
         24    2    5    5    0    0  0.18613895961E+01  0.31654288714E+02 -0.54168844457E+02  0.99928336577E+02  0.77755707031E+02 0.  0.
          5    1    5    5  501    0 -0.32771285449E+02 -0.23787638986E+02 -0.22861466537E+03  0.23222093821E+03  0.47000000000E+01 0. -1.
        -13    1    6    6    0    0 -0.37263332481E+02  0.12039038091E+02 -0.33468298258E+02  0.51513312591E+02  0.00000000000E+00 0.  1.
         14    1    6    6    0    0  0.39124722077E+02  0.19615250623E+02 -0.20700546199E+02  0.48415023986E+02  0.00000000000E+00 0. -1.
         -5    1    3    3    0  503  0.62010916084E+02  0.45912131263E+01 -0.90075835753E+00  0.62364527716E+02  0.47000000000E+01 0.  1.
         13    1    4    4    0    0  0.37151249555E+01 -0.38531653254E+02 -0.42310872377E+02  0.57347191537E+02  0.00000000000E+00 0. -1.
        -14    1    4    4    0    0 -0.34816145187E+02  0.26073790400E+02 -0.10863104331E+03  0.11701585397E+03  0.00000000000E+00 0.  1.
</event>
<event>
12    1  0.8313893E-002  0.2031201E+03  0.7818608E-02  0.1148649E+00
         21   -1    0    0  503  502  0.00000000000E+00  0.00000000000E+00  0.58685655364E+02  0.58685655364E+02  0.00000000000E+00 0.  1.
         21   -1    0    0  501  503 -0.00000000000E+00 -0.00000000000E+00 -0.86572399207E+03  0.86572399207E+03  0.00000000000E+00 0.  1.
          6    2    1    2  501    0 -0.66923406920E+02 -0.64303817008E+02 -0.62421522124E+03  0.65643156645E+03  0.18067660537E+03 0.  0.
         24    2    3    3    0    0 -0.26621037506E+01  0.31495976133E+02 -0.28126978919E+03  0.29457417076E+03  0.81622083164E+02 0.  0.
         -6    2    1    2    0  502  0.66923406920E+02  0.64303817008E+02 -0.18282311546E+03  0.26797808098E+03  0.17255212854E+03 0.  0.
        -24    2    5    5    0    0  0.10557185657E+03  0.21727924974E+02 -0.13684541508E+03  0.19420513082E+03  0.85857123087E+02 0.  0.
          5    1    3    3  501    0 -0.64261303170E+02 -0.95799793140E+02 -0.34294543206E+03  0.36185739569E+03  0.47000000000E+01 0. -1.
        -11    1    4    4    0    0  0.32103310536E+02 -0.42702026950E+01 -0.16351286143E+03  0.16668927090E+03  0.00000000000E+00 0.  1.
         12    1    4    4    0    0 -0.34765414286E+02  0.35766178828E+02 -0.11775692775E+03  0.12788489986E+03  0.00000000000E+00 0. -1.
         -5    1    5    5    0  502 -0.38648449649E+02  0.42575892034E+02 -0.45977700378E+02  0.73772950157E+02  0.47000000000E+01 0.  1.
         11    1    6    6    0    0  0.63823678374E+02  0.43375981012E+02 -0.12296304098E+03  0.14517178478E+03  0.00000000000E+00 0. -1.
        -12    1    6    6    0    0  0.41748178196E+02 -0.21648056038E+02 -0.13882374101E+02  0.49033346037E+02  0.00000000000E+00 0.  1.
</event>
<event>
12    1  0.8313893E-002  0.1780170E+03  0.7818608E-02  0.1174187E+00
         21   -1    0    0  503  502  0.00000000000E+00  0.00000000000E+00  0.14297984927E+03  0.14297984927E+03  0.00000000000E+00 0.  1.
         21   -1    0    0  501  503 -0.00000000000E+00 -0.00000000000E+00 -0.41450982383E+03  0.41450982383E+03  0.00000000000E+00 0. -1.
          6    2    1    2  501    0 -0.44159244140E+02 -0.43901269945E+01 -0.33246881138E+03  0.36933120170E+03  0.15459855741E+03 0.  0.
         24    2    3    3    0    0 -0.65700931244E+02  0.40425206858E+02 -0.24164208215E+03  0.26567772528E+03  0.79012328970E+02 0.  0.
         -6    2    1    2    0  502  0.44159244140E+02  0.43901269945E+01  0.60938836826E+02  0.18815847140E+03  0.17239708950E+03 0.  0.
        -24    2    5    5    0    0 -0.83660968921E+01  0.32057937974E+02 -0.18261791338E+02  0.89066349026E+02  0.80632614627E+02 0.  0.
          5    1    3    3  501    0  0.21541687103E+02 -0.44815333853E+02 -0.90826729227E+02  0.10365347642E+03  0.47000000000E+01 0. -1.
        -11    1    4    4    0    0 -0.10996458982E+02 -0.22183768770E+02 -0.82375586779E+02  0.86016155483E+02  0.00000000000E+00 0.  1.
         12    1    4    4    0    0 -0.54704472261E+02  0.62608975628E+02 -0.15926649537E+03  0.17966156980E+03  0.00000000000E+00 0. -1.
         -5    1    5    5    0  502  0.52525341032E+02 -0.27667810979E+02  0.79200628163E+02  0.99092122373E+02  0.47000000000E+01 0.  1.
         11    1    6    6    0    0 -0.14495054523E+02 -0.24299546102E+02  0.31467258116E+01  0.28468867729E+02  0.00000000000E+00 0. -1.
        -12    1    6    6    0    0  0.61289576310E+01  0.56357484076E+02 -0.21408517149E+02  0.60597481297E+02  0.00000000000E+00 0.  1.
</event>
<event>
12    1  0.8313893E-002  0.1893377E+03  0.7818608E-02  0.1159370E+00
         21   -1    0    0  501  502  0.00000000000E+00  0.00000000000E+00  0.13630432675E+03  0.13630432675E+03  0.00000000000E+00 0.  1.
         21   -1    0    0  502  503 -0.00000000000E+00 -0.00000000000E+00 -0.70886582555E+03  0.70886582555E+03  0.00000000000E+00 0.  1.
         -6    2    1    2    0  503  0.51824948920E+02 -0.55639597970E+02 -0.62251550317E+03  0.65067219486E+03  0.17339885608E+03 0.  0.
        -24    2    3    3    0    0  0.48961949701E+02  0.27041588964E+02 -0.24612081086E+03  0.26526406076E+03  0.81615245746E+02 0.  0.
          6    2    1    2  501    0 -0.51824948920E+02  0.55639597970E+02  0.49954004373E+02  0.19449795744E+03  0.17190829736E+03 0.  0.
         24    2    5    5    0    0 -0.58293195455E+02 -0.24722245498E+02  0.50829599149E+02  0.11373459468E+03  0.79640591520E+02 0.  0.
          5    1    5    5  501    0  0.64682465350E+01  0.80361843468E+02 -0.87559477652E+00  0.80763362764E+02  0.47000000000E+01 0. -1.
        -13    1    6    6    0    0 -0.21015460553E+02  0.26647078940E+02  0.26324170127E+01  0.34038889782E+02  0.00000000000E+00 0.  1.
         14    1    6    6    0    0 -0.37277734903E+02 -0.51369324438E+02  0.48197182136E+02  0.79695704894E+02  0.00000000000E+00 0. -1.
         -5    1    3    3    0  503  0.28629992195E+01 -0.82681186933E+02 -0.37639469231E+03  0.38540813411E+03  0.47000000000E+01 0.  1.
         11    1    4    4    0    0  0.59524536261E+02  0.23672314776E+02 -0.24597143777E+03  0.25417611434E+03  0.00000000000E+00 0. -1.
        -12    1    4    4    0    0 -0.10562586561E+02  0.33692741879E+01 -0.14937309338E+00  0.11087946416E+02  0.00000000000E+00 0.  1.
</event>
<event>
12    1  0.8313893E-002  0.2158435E+03  0.7818608E-02  0.1137068E+00
         21   -1    0    0  503  502  0.00000000000E+00  0.00000000000E+00  0.84456017921E+02  0.84456017921E+02  0.00000000000E+00 0.  1.
         21   -1    0    0  501  503 -0.00000000000E+00 -0.00000000000E+00 -0.96154259732E+03  0.96154259732E+03  0.00000000000E+00 0. -1.
          6    2    1    2  501    0 -0.95623740882E+02  0.88085791732E+02 -0.78043110023E+03  0.80972902909E+03  0.17229449152E+03 0.  0.
         24    2    3    3    0    0 -0.91100626085E+02  0.90675605489E+02 -0.36704861078E+03  0.39628696750E+03  0.76139926647E+02 0.  0.
         -6    2    1    2    0  502  0.95623740882E+02 -0.88085791732E+02 -0.96655479170E+02  0.23626958616E+03  0.17198264205E+03 0.  0.
        -24    2    5    5    0    0  0.95774617993E+01  0.58071459559E+01 -0.10670378357E+02  0.82531583527E+02  0.81068826231E+02 0.  0.
          5    1    3    3  501    0 -0.45231147968E+01 -0.25898137572E+01 -0.41338248945E+03  0.41344206158E+03  0.47000000000E+01 0. -1.
        -11    1    4    4    0    0 -0.63150267996E+02  0.97293029791E+02 -0.24743007900E+03  0.27326824548E+03  0.00000000000E+00 0.  1.
         12    1    4    4    0    0 -0.27950358089E+02 -0.66174243024E+01 -0.11961853179E+03  0.12301872202E+03  0.00000000000E+00 0. -1.
         -5    1    5    5    0  502  0.86046279083E+02 -0.93892937687E+02 -0.85985100813E+02  0.15373800263E+03  0.47000000000E+01 0.  1.
         11    1    6    6    0    0  0.12719619744E+02  0.37026788032E+02 -0.26609919074E+02  0.47337718064E+02  0.00000000000E+00 0. -1.
        -12    1    6    6    0    0 -0.31421579446E+01 -0.31219642076E+02  0.15939540717E+02  0.35193865462E+02  0.00000000000E+00 0.  1.
</event>
<event>
12    1  0.8313893E-002  0.2302172E+03  0.7818608E-02  0.1126667E+00
         21   -1    0    0  503  502  0.00000000000E+00  0.00000000000E+00  0.12549156817E+04  0.12549156817E+04  0.00000000000E+00 0.  1.
         21   -1    0    0  501  503 -0.00000000000E+00 -0.00000000000E+00 -0.56663490916E+02  0.56663490916E+02  0.00000000000E+00 0. -1.
          6    2    1    2  501    0  0.10999697270E+03 -0.10551164046E+03  0.26704278525E+03  0.35257878312E+03  0.17253379052E+03 0.  0.
         24    2    3    3    0    0  0.13546209337E+03 -0.12246986165E+03  0.23122316050E+03  0.30523758379E+03  0.79730714601E+02 0.  0.
         -6    2    1    2    0  502 -0.10999697270E+03  0.10551164046E+03  0.93120940557E+03  0.95900038954E+03  0.17116877587E+03 0.  0.
        -24    2    5    5    0    0 -0.43155195858E+02  0.15070729842E+02  0.64289685407E+03  0.64949497957E+03  0.80236311522E+02 0.  0.
          5    1    3    3  501    0 -0.25465120671E+02  0.16958221187E+02  0.35819624752E+02  0.47341199330E+02  0.47000000000E+01 0. -1.
        -11    1    4    4    0    0  0.29099866827E+01 -0.37816164305E+02  0.72312765684E+02  0.81655779870E+02  0.00000000000E+00 0.  1.
         12    1    4    4    0    0  0.13255210669E+03 -0.84653697345E+02  0.15891039482E+03  0.22358180392E+03  0.00000000000E+00 0. -1.
         -5    1    5    5    0  502 -0.66841776845E+02  0.90440910622E+02  0.28831255150E+03  0.30950540997E+03  0.47000000000E+01 0.  1.
         13    1    6    6    0    0 -0.13095032170E+01 -0.30257575667E+02  0.18535172986E+03  0.18780974268E+03  0.00000000000E+00 0. -1.
        -14    1    6    6    0    0 -0.41845692641E+02  0.45328305510E+02  0.45754512421E+03  0.46168523689E+03  0.00000000000E+00 0.  1.
</event>
<event>
12    1  0.8313893E-002  0.2201467E+03  0.7818608E-02  0.1133830E+00
         21   -1    0    0  503  502  0.00000000000E+00  0.00000000000E+00  0.14126535807E+04  0.14126535807E+04  0.00000000000E+00 0. -1.
         21   -1    0    0  501  503 -0.00000000000E+00 -0.00000000000E+00 -0.41668314338E+02  0.41668314338E+02  0.00000000000E+00 0. -1.
          6    2    1    2  501    0  0.52812492784E+02  0.12692052446E+03  0.37927392876E+03  0.43853536616E+03  0.17194933969E+03 0.  0.
         24    2    3    3    0    0  0.32233759790E+02  0.36192037742E+02  0.30566162379E+03  0.31980877270E+03  0.80620989640E+02 0.  0.
         -6    2    1    2    0  502 -0.52812492784E+02 -0.12692052446E+03  0.99171133765E+03  0.10157865289E+04  0.17156024070E+03 0.  0.
        -24    2    5    5    0    0 -0.61304978827E+02 -0.34014569104E+02  0.73450951371E+03  0.74214715475E+03  0.79767676583E+02 0.  0.
          5    1    3    3  501    0  0.20578732993E+02  0.90728486716E+02  0.73612304965E+02  0.11872659346E+03  0.47000000000E+01 0. -1.
        -13    1    4    4    0    0  0.16102427985E+02 -0.74260212851E+01  0.23212154686E+03  0.23279786617E+03  0.00000000000E+00 0.  1.
         14    1    4    4    0    0  0.16131331805E+02  0.43618059028E+02  0.73540076934E+02  0.87010906527E+02  0.00000000000E+00 0. -1.
         -5    1    5    5    0  502  0.84924860434E+01 -0.92905955354E+02  0.25720182394E+03  0.27363937417E+03  0.47000000000E+01 0.  1.
         13    1    6    6    0    0 -0.66748491622E+02 -0.53765760546E+02  0.59116525421E+03  0.59734619437E+03  0.00000000000E+00 0. -1.
        -14    1    6    6    0    0  0.54435127949E+01  0.19751191442E+02  0.14334425950E+03  0.14480096038E+03  0.00000000000E+00 0.  1.
</event>
<event>
12    1  0.8313893E-002  0.2974745E+03  0.7818608E-02  0.1086565E+00
         21   -1    0    0  501  502  0.00000000000E+00  0.00000000000E+00  0.94834164803E+02  0.94834164803E+02  0.00000000000E+00 0. -1.
         21   -1    0    0  502  503 -0.00000000000E+00 -0.00000000000E+00 -0.96995505194E+03  0.96995505194E+03  0.00000000000E+00 0.  1.
         -6    2    1    2    0  503 -0.21725371123E+03  0.10607874649E+03 -0.54290834699E+03  0.61885620904E+03  0.17257363280E+03 0.  0.
        -24    2    3    3    0    0 -0.35167117087E+02  0.63584225767E+02 -0.23787658452E+03  0.26104651357E+03  0.79248551364E+02 0.  0.
          6    2    1    2  501    0  0.21725371123E+03 -0.10607874649E+03 -0.33221254015E+03  0.44593300770E+03  0.17331820454E+03 0.  0.
         24    2    5    5    0    0  0.86892623454E+02 -0.35259956196E+02 -0.24434468780E+03  0.27344485234E+03  0.79209647721E+02 0.  0.
          5    1    5    5  501    0  0.13036108778E+03 -0.70818790292E+02 -0.87867852349E+02  0.17248815537E+03  0.47000000000E+01 0. -1.
        -13    1    6    6    0    0  0.88440338789E+02 -0.17232398811E+02 -0.23764049686E+03  0.25414888322E+03  0.00000000000E+00 0.  1.
         14    1    6    6    0    0 -0.15477153354E+01 -0.18027557385E+02 -0.67041909405E+01  0.19295969118E+02  0.00000000000E+00 0. -1.
         -5    1    3    3    0  503 -0.18208659414E+03  0.42494520721E+02 -0.30503176247E+03  0.35780969547E+03  0.47000000000E+01 0.  1.
         11    1    4    4    0    0 -0.54673876353E+02  0.55317185877E+02 -0.13317762222E+03  0.15422549358E+03  0.00000000000E+00 0. -1.
        -12    1    4    4    0    0  0.19506759266E+02  0.82670398904E+01 -0.10469896230E+03  0.10682102000E+03  0.00000000000E+00 0.  1.
</event>
<event>
12    1  0.8313893E-002  0.2169421E+03  0.7818608E-02  0.1136303E+00
         21   -1    0    0  501  502  0.00000000000E+00  0.00000000000E+00  0.14070333155E+04  0.14070333155E+04  0.00000000000E+00 0. -1.
         21   -1    0    0  502  503 -0.00000000000E+00 -0.00000000000E+00 -0.49280932784E+02  0.49280932784E+02  0.00000000000E+00 0.  1.
         -6    2    1    2    0  503  0.72190049394E+02  0.10971449268E+03  0.26422650514E+03  0.34147671676E+03  0.17187794779E+03 0.  0.
        -24    2    3    3    0    0  0.98205334262E+02  0.51677159418E+02  0.23331184843E+03  0.27060406267E+03  0.80481821743E+02 0.  0.
          6    2    1    2  501    0 -0.72190049394E+02 -0.10971449268E+03  0.10935258776E+04  0.11148375315E+04  0.17267079553E+03 0.  0.
         24    2    5    5    0    0  0.20021594001E+02 -0.80900779429E+02  0.48507016401E+03  0.49874203355E+03  0.80652040774E+02 0.  0.
          5    1    5    5  501    0 -0.92211643395E+02 -0.28813713254E+02  0.60845571357E+03  0.61609549797E+03  0.47000000000E+01 0. -1.
        -11    1    6    6    0    0 -0.87734373718E+01 -0.83440140444E+02  0.30341811336E+03  0.31480435473E+03  0.00000000000E+00 0.  1.
         12    1    6    6    0    0  0.28795031373E+02  0.25393610152E+01  0.18165205065E+03  0.18393767882E+03  0.00000000000E+00 0. -1.
         -5    1    3    3    0  503 -0.26015284868E+02  0.58037333264E+02  0.30914656715E+02  0.70872654099E+02  0.47000000000E+01 0.  1.
         13    1    4    4    0    0  0.64608122252E+02  0.25315333776E+02  0.21161874126E+03  0.22270511273E+03  0.00000000000E+00 0. -1.
        -14    1    4    4    0    0  0.33597212010E+02  0.26361825643E+02  0.21693107169E+02  0.47898949933E+02  0.00000000000E+00 0.  1.
</event>
<event>
12    1  0.8313893E-002  0.1757554E+03  0.7818608E-02  0.1172645E+00
         21   -1    0    0  501  502  0.00000000000E+00  0.00000000000E+00  0.70625999462E+02  0.70625999462E+02  0.00000000000E+00 0.  1.
         21   -1    0    0  502  503 -0.00000000000E+00 -0.00000000000E+00 -0.61940221791E+03  0.61940221791E+03  0.00000000000E+00 0.  1.
         -6    2    1    2    0  503 -0.85390105336E+01  0.25032581578E+02 -0.46332243239E+03  0.49459971279E+03  0.17106038319E+03 0.  0.
        -24    2    3    3    0    0 -0.40896340411E+02  0.69178602258E+02 -0.25363252201E+03  0.27783297998E+03  0.80021989947E+02 0.  0.
          6    2    1    2  501    0  0.85390105336E+01 -0.25032581578E+02 -0.85453786065E+02  0.19542850459E+03  0.17375386617E+03 0.  0.
         24    2    5    5    0    0  0.53508399575E+02 -0.65410279563E+02 -0.61378514500E+02  0.13020340860E+03  0.77742858654E+02 0.  0.
          5    1    5    5  501    0 -0.44969389041E+02  0.40377697984E+02 -0.24075271564E+02  0.65225095984E+02  0.47000000000E+01 0. -1.
        -11    1    6    6    0    0 -0.44501745821E+00 -0.10110322648E+02  0.17231016263E+02  0.19983107517E+02  0.00000000000E+00 0.  1.
         12    1    6    6    0    0  0.53953417033E+02 -0.55299956914E+02 -0.78609530763E+02  0.11022030108E+03  0.00000000000E+00 0. -1.
         -5    1    3    3    0  503  0.32357329877E+02 -0.44146020679E+02 -0.20968991037E+03  0.21676673280E+03  0.47000000000E+01 0.  1.
         11    1    4    4    0    0 -0.51263411354E+01  0.47578408786E+02 -0.47203536794E+02  0.67217246610E+02  0.00000000000E+00 0. -1.
        -12    1    4    4    0    0 -0.35769999275E+02  0.21600193472E+02 -0.20642898522E+03  0.21061573337E+03  0.00000000000E+00 0.  1.
</event>
<event>
12    1  0.8313893E-002  0.1994324E+03  0.7818608E-02  0.1150308E+00
         21   -1    0    0  501  502  0.00000000000E+00  0.00000000000E+00  0.46228464370E+02  0.46228464370E+02  0.00000000000E+00 0. -1.
         21   -1    0    0  502  503 -0.00000000000E+00 -0.00000000000E+00 -0.10097678210E+04  0.10097678210E+04  0.00000000000E+00 0.  1.
         -6    2    1    2    0  503  0.16552834357E+00 -0.96006796251E+02 -0.68566216494E+03  0.71395968740E+03  0.17432297173E+03 0.  0.
        -24    2    3    3    0    0 -0.64913569259E+02 -0.71555537125E+02 -0.37611490220E+03  0.39666684019E+03  0.80920924888E+02 0.  0.
          6    2    1    2  501    0 -0.16552834357E+00  0.96006796251E+02 -0.27787719170E+03  0.34203659798E+03  0.17480265549E+03 0.  0.
         24    2    5    5    0    0 -0.20124625686E+02  0.13004283672E+03 -0.18912796769E+03  0.24479806457E+03  0.82707704088E+02 0.  0.
          5    1    5    5  501    0  0.19959097342E+02 -0.34036040465E+02 -0.88749224006E+02  0.97238533406E+02  0.47000000000E+01 0. -1.
        -13    1    6    6    0    0  0.50561490262E+01  0.45891924672E+02 -0.13243869367E+03  0.14025562725E+03  0.00000000000E+00 0.  1.
         14    1    6    6    0    0 -0.25180774712E+02  0.84150912045E+02 -0.56689274018E+02  0.10454243732E+03  0.00000000000E+00 0. -1.
         -5    1    3    3    0  503  0.65079097603E+02 -0.24451259126E+02 -0.30954726274E+03  0.31729284721E+03  0.47000000000E+01 0.  1.
         13    1    4    4    0    0 -0.59588724599E+02 -0.63193859886E+02 -0.37684644795E+03  0.38672668043E+03  0.00000000000E+00 0. -1.
        -14    1    4    4    0    0 -0.53248446603E+01 -0.83616772390E+01  0.73154574796E+00  0.99401597616E+01  0.00000000000E+00 0.  1.
</event>
<event>
12    1  0.8313893E-002  0.2406050E+03  0.7818608E-02  0.1122472E+00
         21   -1    0    0  501  502  0.00000000000E+00  0.00000000000E+00  0.44637067410E+03  0.44637067410E+03  0.00000000000E+00 0. -1.
         21   -1    0    0  502  503 -0.00000000000E+00 -0.00000000000E+00 -0.12032124841E+03  0.12032124841E+03  0.00000000000E+00 0. -1.
         -6    2    1    2    0  503 -0.12725618831E+03 -0.62925753318E+02  0.15074133422E+03  0.26899462435E+03  0.17170139834E+03 0.  0.
        -24    2    3    3    0    0 -0.12377378718E+03 -0.27118533844E-01  0.58934130061E+02  0.15755397597E+03  0.77653541641E+02 0.  0.
          6    2    1    2  501    0  0.12725618831E+03  0.62925753318E+02  0.17530809147E+03  0.29769729816E+03  0.19426004866E+03 0.  0.
         24    2    5    5    0    0  0.37551423087E+02  0.94348899645E+02  0.15347707342E+03  0.20005999803E+03  0.78466339952E+02 0.  0.
          5    1    5    5  501    0  0.89704765226E+02 -0.31423146326E+02  0.21831018052E+02  0.97637300140E+02  0.47000000000E+01 0. -1.
        -13    1    6    6    0    0  0.22899635065E+00 -0.64764565310E+01  0.51405891032E+02  0.51812764463E+02  0.00000000000E+00 0.  1.
         14    1    6    6    0    0  0.37322426737E+02  0.10082535618E+03  0.10207118238E+03  0.14824723356E+03  0.00000000000E+00 0. -1.
         -5    1    3    3    0  503 -0.34824011296E+01 -0.62898634785E+02  0.91807204156E+02  0.11144064838E+03  0.47000000000E+01 0.  1.
         13    1    4    4    0    0 -0.37036912684E+02  0.27491255654E+02 -0.49220419464E+01  0.46386728010E+02  0.00000000000E+00 0. -1.
        -14    1    4    4    0    0 -0.86736874500E+02 -0.27518374188E+02  0.63856172008E+02  0.11116724796E+03  0.00000000000E+00 0.  1.
</event>
<event>
12    1  0.8313893E-002  0.1775745E+03  0.7818608E-02  0.1171424E+00
         21   -1    0    0  501  502  0.00000000000E+00  0.00000000000E+00  0.32117806007E+03  0.32117806007E+03  0.00000000000E+00 0. -1.
         21   -1    0    0  502  503 -0.00000000000E+00 -0.00000000000E+00 -0.14505564821E+03  0.14505564821E+03  0.00000000000E+00 0. -1.
         -6    2    1    2    0  503  0.54948360968E+00 -0.11357959550E+02 -0.49110511648E+02  0.17941916758E+03  0.17219201539E+03 0.  0.
        -24    2    3    3    0    0  0.54104334921E+02  0.22953646809E+02  0.14798096769E+01  0.98013522559E+02  0.78423923701E+02 0.  0.
          6    2    1    2  501    0 -0.54948360968E+00  0.11357959550E+02  0.22523292350E+03  0.28681454070E+03  0.17721006109E+03 0.  0.
         24    2    5    5    0    0  0.33455343730E+02 -0.31176053257E+02  0.54502149049E+02  0.10754781798E+03  0.80652604307E+02 0.  0.
          5    1    5    5  501    0 -0.34004827340E+02  0.42534012807E+02  0.17073077445E+03  0.17926672272E+03  0.47000000000E+01 0. -1.
        -11    1    6    6    0    0  0.17269060573E+02 -0.53206978641E+02  0.57286706010E+02  0.80068531363E+02  0.00000000000E+00 0.  1.
         12    1    6    6    0    0  0.16186283158E+02  0.22030925384E+02 -0.27845569607E+01  0.27479286621E+02  0.00000000000E+00 0. -1.
         -5    1    3    3    0  503 -0.53554851311E+02 -0.34311606360E+02 -0.50590321325E+02  0.81405645023E+02  0.47000000000E+01 0.  1.
         13    1    4    4    0    0  0.11951679833E+02  0.44692285108E+02 -0.13643611280E+02  0.48232676971E+02  0.00000000000E+00 0. -1.
        -14    1    4    4    0    0  0.42152655088E+02 -0.21738638299E+02  0.15123420957E+02  0.49780845588E+02  0.00000000000E+00 0.  1.
</event>
<event>
12    1  0.8313893E-002  0.2071170E+03  0.7818608E-02  0.1144430E+00
         21   -1    0    0  503  502  0.00000000000E+00  0.00000000000E+00  0.15908939825E+03  0.15908939825E+03  0.00000000000E+00 0.  1.
         21   -1    0    0  501  503 -0.00000000000E+00 -0.00000000000E+00 -0.29929884378E+03  0.29929884378E+03  0.00000000000E+00 0.  1.
          6    2    1    2  501    0  0.57221718498E+02 -0.10027783706E+03 -0.14689689221E+03  0.25392153515E+03  0.17195196829E+03 0.  0.
         24    2    3    3    0    0  0.10204929086E+03 -0.68831558055E+02 -0.13102222462E+03  0.19671598666E+03  0.79865605319E+02 0.  0.
         -6    2    1    2    0  502 -0.57221718498E+02  0.10027783706E+03  0.66874466762E+01  0.20446670688E+03  0.16861774107E+03 0.  0.
        -24    2    5    5    0    0 -0.26167117009E+02  0.12837388889E+03  0.28355852875E+02  0.15708120035E+03  0.81889411704E+02 0.  0.
          5    1    3    3  501    0 -0.44827572364E+02 -0.31446279005E+02 -0.15874667596E+02  0.57205548495E+02  0.47000000000E+01 0. -1.
        -13    1    4    4    0    0  0.63164007492E+02  0.48052941704E+01 -0.52808158472E+02  0.82471111886E+02  0.00000000000E+00 0.  1.
         14    1    4    4    0    0  0.38885283370E+02 -0.73636852225E+02 -0.78214066146E+02  0.11424487477E+03  0.00000000000E+00 0. -1.
         -5    1    5    5    0  502 -0.31054601489E+02 -0.28096051829E+02 -0.21668406199E+02  0.47385506531E+02  0.47000000000E+01 0.  1.
         11    1    6    6    0    0 -0.17233889524E+02  0.11030795540E+03 -0.11683383920E+02  0.11225575010E+03  0.00000000000E+00 0. -1.
        -12    1    6    6    0    0 -0.89332274854E+01  0.18065933492E+02  0.40039236795E+02  0.44825450242E+02  0.00000000000E+00 0.  1.
</event>
<event>
12    1  0.8313893E-002  0.2367081E+03  0.7818608E-02  0.1122047E+00
         21   -1    0    0  503  502  0.00000000000E+00  0.00000000000E+00  0.64661749856E+02  0.64661749856E+02  0.00000000000E+00 0. -1.
         21   -1    0    0  501  503 -0.00000000000E+00 -0.00000000000E+00 -0.10153312858E+04  0.10153312858E+04  0.00000000000E+00 0.  1.
          6    2    1    2  501    0  0.34518253362E+02 -0.15881060337E+03 -0.68248057417E+03  0.72228362680E+03  0.17176025694E+03 0.  0.
         24    2    3    3    0    0  0.17388173662E+02 -0.13462405439E+02 -0.18066729196E+03  0.19954258338E+03  0.81810679338E+02 0.  0.
         -6    2    1    2    0  502 -0.34518253362E+02  0.15881060337E+03 -0.26818896173E+03  0.35770940881E+03  0.17209992563E+03 0.  0.
        -24    2    5    5    0    0 -0.77386337093E+02  0.15583956652E+03 -0.23385665689E+03  0.30250708261E+03  0.80913431488E+02 0.  0.
          5    1    3    3  501    0  0.17130079700E+02 -0.14534819793E+03 -0.50181328221E+03  0.52274104342E+03  0.47000000000E+01 0. -1.
        -11    1    4    4    0    0 -0.30830745608E+02  0.81223092922E+01 -0.67274558856E+02  0.74447115809E+02  0.00000000000E+00 0.  1.
         12    1    4    4    0    0  0.48218919271E+02 -0.21584714731E+02 -0.11339273310E+03  0.12509546757E+03  0.00000000000E+00 0. -1.
         -5    1    5    5    0  502  0.42868083731E+02  0.29710368530E+01 -0.34332304837E+02  0.55202326202E+02  0.47000000000E+01 0.  1.
         13    1    6    6    0    0  0.17415571782E+01  0.32130869137E+02 -0.80845624324E+01  0.33178094017E+02  0.00000000000E+00 0. -1.
        -14    1    6    6    0    0 -0.79127894272E+02  0.12370869738E+03 -0.22577209446E+03  0.26932898859E+03  0.00000000000E+00 0.  1.
</event>
<event>
12    1  0.8313893E-002  0.1913682E+03  0.7818608E-02  0.1157340E+00
         21   -1    0    0  501  502  0.00000000000E+00  0.00000000000E+00  0.12096256674E+03  0.12096256674E+03  0.00000000000E+00 0.  1.
         21   -1    0    0  502  503 -0.00000000000E+00 -0.00000000000E+00 -0.30372505134E+03  0.30372505134E+03  0.00000000000E+00 0.  1.
         -6    2    1    2    0  503  0.78984957533E+02 -0.30237323888E+02 -0.10752509258E+03  0.21950722843E+03  0.17166496010E+03 0.  0.
        -24    2    3    3    0    0  0.10716474505E+03 -0.40371909057E+01 -0.11614346011E+03  0.17979685634E+03  0.85656434269E+02 0.  0.
          6    2    1    2  501    0 -0.78984957533E+02  0.30237323888E+02 -0.75237392025E+02  0.20518038965E+03  0.17112979830E+03 0.  0.
         24    2    5    5    0    0 -0.79166931365E+02  0.43143830325E+02 -0.11271039120E+03  0.16526890396E+03  0.80507050702E+02 0.  0.
          5    1    5    5  501    0  0.18197383184E+00 -0.12906506437E+02  0.37472999178E+02  0.39911485694E+02  0.47000000000E+01 0. -1.
        -11    1    6    6    0    0 -0.29987578958E+02  0.95570587607E+01  0.63837044040E+01  0.32114544148E+02  0.00000000000E+00 0.  1.
         12    1    6    6    0    0 -0.49179352407E+02  0.33586771564E+02 -0.11909409561E+03  0.13315435981E+03  0.00000000000E+00 0. -1.
         -5    1    3    3    0  503 -0.28179787516E+02 -0.26200132982E+02  0.86183675246E+01  0.39710372090E+02  0.47000000000E+01 0.  1.
         11    1    4    4    0    0  0.72065378715E+02  0.11471131193E+02 -0.19083343604E+02  0.75426650882E+02  0.00000000000E+00 0. -1.
        -12    1    4    4    0    0  0.35099366334E+02 -0.15508322099E+02 -0.97060116503E+02  0.10437020546E+03  0.00000000000E+00 0.  1.
</event>
<event>
12    1  0.8313893E-002  0.1937967E+03  0.7818608E-02  0.1155410E+00
         21   -1    0    0  501  502  0.00000000000E+00  0.00000000000E+00  0.54275985888E+03  0.54275985888E+03  0.00000000000E+00 0. -1.
         21   -1    0    0  502  503 -0.00000000000E+00 -0.00000000000E+00 -0.91118469266E+02  0.91118469266E+02  0.00000000000E+00 0. -1.
         -6    2    1    2    0  503 -0.40553611204E+02 -0.80282242878E+02  0.67834134399E+02  0.20391881817E+03  0.16997523558E+03 0.  0.
        -24    2    3    3    0    0  0.39740070529E+02 -0.23248648362E+02  0.22134266850E+02  0.95242812891E+02  0.80383423553E+02 0.  0.
          6    2    1    2  501    0  0.40553611204E+02  0.80282242878E+02  0.38380725521E+03  0.42995950997E+03  0.17166052883E+03 0.  0.
         24    2    5    5    0    0  0.14202663994E+02 -0.24597474234E+02  0.18241325636E+03  0.20132058010E+03  0.80303352802E+02 0.  0.
          5    1    5    5  501    0  0.26350947209E+02  0.10487971711E+03  0.20139399885E+03  0.22863892987E+03  0.47000000000E+01 0. -1.
        -11    1    6    6    0    0 -0.75032160836E+00  0.18597813441E+02  0.67366239858E+01  0.19794538389E+02  0.00000000000E+00 0.  1.
         12    1    6    6    0    0  0.14952985603E+02 -0.43195287674E+02  0.17567663238E+03  0.18152604171E+03  0.00000000000E+00 0. -1.
         -5    1    3    3    0  503 -0.80293681733E+02 -0.57033594517E+02  0.45699867549E+02  0.10867600528E+03  0.47000000000E+01 0.  1.
         13    1    4    4    0    0 -0.15643319314E+02 -0.11861733863E+02 -0.17414088559E+02  0.26242420806E+02  0.00000000000E+00 0. -1.
        -14    1    4    4    0    0  0.55383389843E+02 -0.11386914499E+02  0.39548355409E+02  0.69000392085E+02  0.00000000000E+00 0.  1.
</event>
<event>
12    1  0.8313893E-002  0.2253242E+03  0.7818608E-02  0.1130990E+00
         21   -1    0    0  501  502  0.00000000000E+00  0.00000000000E+00  0.11625160934E+03  0.11625160934E+03  0.00000000000E+00 0.  1.
         21   -1    0    0  502  503 -0.00000000000E+00 -0.00000000000E+00 -0.51743519976E+03  0.51743519976E+03  0.00000000000E+00 0.  1.
         -6    2    1    2    0  503 -0.10659274357E+03 -0.84065989783E+02 -0.65395644966E+02  0.22930512915E+03  0.17284428904E+03 0.  0.
        -24    2    3    3    0    0 -0.44973189763E+02 -0.11030706491E+03 -0.11088356994E+02  0.14295158283E+03  0.78242999722E+02 0.  0.
          6    2    1    2  501    0  0.10659274357E+03  0.84065989783E+02 -0.33578794546E+03  0.40438167995E+03  0.17983852519E+03 0.  0.
         24    2    5    5    0    0  0.64683349347E+02  0.12775312897E+03 -0.24704619875E+03  0.29685423665E+03  0.81153039697E+02 0.  0.
          5    1    5    5  501    0  0.41909394225E+02 -0.43687139188E+02 -0.88741746708E+02  0.10752744330E+03  0.47000000000E+01 0. -1.
        -13    1    6    6    0    0  0.57443773867E+02  0.10126228776E+03 -0.24252695590E+03  0.26902260577E+03  0.00000000000E+00 0.  1.
         14    1    6    6    0    0  0.72395754797E+01  0.26490841214E+02 -0.45192428566E+01  0.27831630879E+02  0.00000000000E+00 0. -1.
         -5    1    3    3    0  503 -0.61619553809E+02  0.26241075126E+02 -0.54307287972E+02  0.86353546321E+02  0.47000000000E+01 0.  1.
         13    1    4    4    0    0 -0.31524540962E+02 -0.22990160547E+02  0.26263939207E+02  0.47033378228E+02  0.00000000000E+00 0. -1.
        -14    1    4    4    0    0 -0.13448648801E+02 -0.87316904363E+02 -0.37352296201E+02  0.95918204599E+02  0.00000000000E+00 0.  1.
</event>
<event>
12    1  0.8313893E-002  0.2042657E+03  0.7818608E-02  0.1146245E+00
         21   -1    0    0  501  502  0.00000000000E+00  0.00000000000E+00  0.79452353549E+02  0.79452353549E+02  0.00000000000E+00 0.  1.
         21   -1    0    0  502  503 -0.00000000000E+00 -0.00000000000E+00 -0.53667357243E+03  0.53667357243E+03  0.00000000000E+00 0.  1.
         -6    2    1    2    0  503 -0.10925745464E+03 -0.16496424705E+02 -0.18197840141E+03  0.27336787367E+03  0.17147749809E+03 0.  0.
        -24    2    3    3    0    0 -0.98453568468E+02 -0.33982397393E+02 -0.20406362933E+03  0.24283378633E+03  0.80488350023E+02 0.  0.
          6    2    1    2  501    0  0.10925745464E+03  0.16496424705E+02 -0.27524281747E+03  0.34275805231E+03  0.17179973933E+03 0.  0.
         24    2    5    5    0    0  0.11106065242E+03 -0.41281736859E+02 -0.22715971550E+03  0.26742119432E+03  0.76641428187E+02 0.  0.
          5    1    5    5  501    0 -0.18031977836E+01  0.57778161564E+02 -0.48083101978E+02  0.75336857990E+02  0.47000000000E+01 0. -1.
        -11    1    6    6    0    0  0.80117530631E+02  0.68092920338E+01 -0.16107626888E+03  0.18002985744E+03  0.00000000000E+00 0.  1.
         12    1    6    6    0    0  0.30943121791E+02 -0.48091028893E+02 -0.66083446616E+02  0.87391336887E+02  0.00000000000E+00 0. -1.
         -5    1    3    3    0  503 -0.10803886170E+02  0.17485972688E+02  0.22085227924E+02  0.30534087340E+02  0.47000000000E+01 0.  1.
         11    1    4    4    0    0 -0.37007755183E+01  0.95243276990E+01  0.32963824921E+01  0.10736605380E+02  0.00000000000E+00 0. -1.
        -12    1    4    4    0    0 -0.94752792950E+02 -0.43506725092E+02 -0.20736001183E+03  0.23209718095E+03  0.00000000000E+00 0.  1.
</event>
<event>
12    1  0.8313893E-002  0.3564495E+03  0.7818608E-02  0.1060021E+00
         21   -1    0    0  501  502  0.00000000000E+00  0.00000000000E+00  0.29479688498E+03  0.29479688498E+03  0.00000000000E+00 0. -1.
         21   -1    0    0  502  503 -0.00000000000E+00 -0.00000000000E+00 -0.48051449965E+03  0.48051449965E+03  0.00000000000E+00 0.  1.
         -6    2    1    2    0  503  0.31128255893E+03 -0.20523336409E+02  0.31950573408E+02  0.35765637717E+03  0.17198606385E+03 0.  0.
        -24    2    3    3    0    0  0.81048794079E+02 -0.26676736674E+02  0.48429282701E+02  0.12670380916E+03  0.80174213627E+02 0.  0.
          6    2    1    2  501    0 -0.31128255893E+03  0.20523336409E+02 -0.21766818808E+03  0.41765500747E+03  0.17244774957E+03 0.  0.
         24    2    5    5    0    0 -0.27534180295E+03 -0.26998936260E+02 -0.21158767474E+03  0.35757866452E+03  0.80938904137E+02 0.  0.
          5    1    5    5  501    0 -0.35940755979E+02  0.47522272668E+02 -0.60805133343E+01  0.60076342951E+02  0.47000000000E+01 0. -1.
        -11    1    6    6    0    0 -0.14492588416E+03  0.26435465216E+02 -0.10724414165E+03  0.18221869179E+03  0.00000000000E+00 0.  1.
         12    1    6    6    0    0 -0.13041591879E+03 -0.53434401475E+02 -0.10434353310E+03  0.17535997273E+03  0.00000000000E+00 0. -1.
         -5    1    3    3    0  503  0.23023376485E+03  0.61534002650E+01 -0.16478709293E+02  0.23095256801E+03  0.47000000000E+01 0.  1.
         13    1    4    4    0    0  0.94867279028E+02 -0.12884774180E+02  0.31282243413E+02  0.10071939629E+03  0.00000000000E+00 0. -1.
        -14    1    4    4    0    0 -0.13818484949E+02 -0.13791962494E+02  0.17147039288E+02  0.25984412868E+02  0.00000000000E+00 0.  1.
</event>
<event>
12    1  0.8313893E-002  0.2081168E+03  0.7818608E-02  0.1144115E+00
         21   -1    0    0  503  502  0.00000000000E+00  0.00000000000E+00  0.36237980708E+03  0.36237980708E+03  0.00000000000E+00 0.  1.
         21   -1    0    0  501  503 -0.00000000000E+00 -0.00000000000E+00 -0.13433438919E+03  0.13433438919E+03  0.00000000000E+00 0. -1.
          6    2    1    2  501    0  0.29993672653E+02 -0.11251835011E+03  0.22483601073E+02  0.20419362901E+03  0.16622131722E+03 0.  0.
         24    2    3    3    0    0  0.53438897031E+02 -0.14731208752E+02  0.33414280048E+02  0.10293369960E+03  0.80038166990E+02 0.  0.
         -6    2    1    2    0  502 -0.29993672653E+02  0.11251835011E+03  0.20556181682E+03  0.29252056727E+03  0.17248948440E+03 0.  0.
        -24    2    5    5    0    0 -0.24422201407E+02  0.49895645258E+02  0.20765895923E+03  0.22944020217E+03  0.80215607508E+02 0.  0.
          5    1    3    3  501    0 -0.23445224378E+02 -0.97787141354E+02 -0.10930678975E+02  0.10125992940E+03  0.47000000000E+01 0. -1.
        -13    1    4    4    0    0  0.36458978256E+02  0.80287250735E+01  0.55550004575E+02  0.66929220301E+02  0.00000000000E+00 0.  1.
         14    1    4    4    0    0  0.16979918775E+02 -0.22759933825E+02 -0.22135724527E+02  0.36004479300E+02  0.00000000000E+00 0. -1.
         -5    1    5    5    0  502 -0.55714712459E+01  0.62622704847E+02 -0.20971424058E+01  0.63080365095E+02  0.47000000000E+01 0.  1.
         13    1    6    6    0    0 -0.67395477932E+01  0.24168496388E+02  0.65619095614E+01  0.25934463156E+02  0.00000000000E+00 0. -1.
        -14    1    6    6    0    0 -0.17682653614E+02  0.25727148870E+02  0.20109704967E+03  0.20350573902E+03  0.00000000000E+00 0.  1.
</event>
<event>
12    1  0.8313893E-002  0.1924196E+03  0.7818608E-02  0.1157222E+00
         21   -1    0    0  501  502  0.00000000000E+00  0.00000000000E+00  0.10390624279E+04  0.10390624279E+04  0.00000000000E+00 0. -1.
         21   -1    0    0  502  503 -0.00000000000E+00 -0.00000000000E+00 -0.11169375078E+03  0.11169375078E+03  0.00000000000E+00 0. -1.
         -6    2    1    2    0  503 -0.86399858319E+02  0.19697816260E+02 -0.15048388274E+02  0.18889588840E+03  0.16613928850E+03 0.  0.
        -24    2    3    3    0    0 -0.26574108142E+02  0.68332395080E+02 -0.95365131668E+01  0.11145614791E+03  0.83402807998E+02 0.  0.
          6    2    1    2  501    0  0.86399858319E+02 -0.19697816260E+02  0.94241706544E+03  0.96186029031E+03  0.17079916090E+03 0.  0.
         24    2    5    5    0    0  0.12015508909E+03 -0.95904030009E+01  0.57847470108E+03  0.59618596803E+03  0.79218100292E+02 0.  0.
          5    1    5    5  501    0 -0.33755230767E+02 -0.10107413259E+02  0.36394236436E+03  0.36567432229E+03  0.47000000000E+01 0. -1.
        -11    1    6    6    0    0  0.10584342190E+03 -0.23170161351E+02  0.33886959649E+03  0.35576999559E+03  0.00000000000E+00 0.  1.
         12    1    6    6    0    0  0.14311667181E+02  0.13579758350E+02  0.23960510460E+03  0.24041597244E+03  0.00000000000E+00 0. -1.
         -5    1    3    3    0  503 -0.59825750177E+02 -0.48634578820E+02 -0.55118751070E+01  0.77439740498E+02  0.47000000000E+01 0.  1.
         11    1    4    4    0    0  0.28149844238E+02  0.15835345203E+02  0.87237561901E+01  0.33455579660E+02  0.00000000000E+00 0. -1.
        -12    1    4    4    0    0 -0.54723952380E+02  0.52497049877E+02 -0.18260269357E+02  0.78000568247E+02  0.00000000000E+00 0.  1.
</event>
<event>
12    1  0.8313893E-002  0.2259973E+03  0.7818608E-02  0.1130565E+00
         21   -1    0    0  501  502  0.00000000000E+00  0.00000000000E+00  0.49979782406E+03  0.49979782406E+03  0.00000000000E+00 0. -1.
         21   -1    0    0  502  503 -0.00000000000E+00 -0.00000000000E+00 -0.21503897369E+03  0.21503897369E+03  0.00000000000E+00 0. -1.
         -6    2    1    2    0  503  0.13863929374E+03 -0.16693955801E+02 -0.11867899763E+03  0.25526357404E+03  0.17769424815E+03 0.  0.
        -24    2    3    3    0    0  0.17060752974E+03 -0.10800601181E+02 -0.11785175801E+03  0.22240822339E+03  0.79704446390E+02 0.  0.
          6    2    1    2  501    0 -0.13863929374E+03  0.16693955801E+02  0.40343784800E+03  0.45957322371E+03  0.17013497236E+03 0.  0.
         24    2    5    5    0    0 -0.64159113887E+02 -0.50393841998E+02  0.16970663866E+03  0.20521041584E+03  0.81578430723E+02 0.  0.
          5    1    5    5  501    0 -0.74480179855E+02  0.67087797799E+02  0.23373120934E+03  0.25436280787E+03  0.47000000000E+01 0. -1.
        -11    1    6    6    0    0 -0.33311254969E+02 -0.36364140528E+02  0.22593294491E+02  0.54244330394E+02  0.00000000000E+00 0.  1.
         12    1    6    6    0    0 -0.30847858918E+02 -0.14029701470E+02  0.14711334417E+03  0.15096608545E+03  0.00000000000E+00 0. -1.
         -5    1    3    3    0  503 -0.31968235996E+02 -0.58933546198E+01 -0.82723961735E+00  0.32855350656E+02  0.47000000000E+01 0.  1.
         13    1    4    4    0    0  0.37949197583E+01 -0.17629478578E+01 -0.36241991995E+02  0.36482754623E+02  0.00000000000E+00 0. -1.
        -14    1    4    4    0    0  0.16681260998E+03 -0.90376533230E+01 -0.81609766020E+02  0.18592546877E+03  0.00000000000E+00 0.  1.
</event>
<event>
12    1  0.8313893E-002  0.1853055E+03  0.7818608E-02  0.1162802E+00
         21   -1    0    0  503  502  0.00000000000E+00  0.00000000000E+00  0.91286104021E+03  0.91286104021E+03  0.00000000000E+00 0. -1.
         21   -1    0    0  501  503 -0.00000000000E+00 -0.00000000000E+00 -0.38678175235E+02  0.38678175235E+02  0.00000000000E+00 0. -1.
          6    2    1    2  501    0  0.46332388894E+02 -0.51354039668E+02  0.51729069837E+03  0.54947957130E+03  0.17191336483E+03 0.  0.
         24    2    3    3    0    0  0.18756570700E+02 -0.95085980579E+02  0.29000974441E+03  0.31634520996E+03  0.81089378867E+02 0.  0.
         -6    2    1    2    0  502 -0.46332388894E+02  0.51354039668E+02  0.35689216661E+03  0.40205964415E+03  0.17174402818E+03 0.  0.
        -24    2    5    5    0    0 -0.59679105247E+02 -0.26244579817E+01  0.12195127041E+03  0.16058267268E+03  0.85709970398E+02 0.  0.
          5    1    3    3  501    0  0.27575818194E+02  0.43731940912E+02  0.22728095396E+03  0.23313436134E+03  0.47000000000E+01 0. -1.
        -11    1    4    4    0    0 -0.14828165220E+02 -0.15694000692E+02  0.15269906637E+03  0.15421796592E+03  0.00000000000E+00 0.  1.
         12    1    4    4    0    0  0.33584735920E+02 -0.79391979887E+02  0.13731067804E+03  0.16212724405E+03  0.00000000000E+00 0. -1.
         -5    1    5    5    0  502  0.13346716352E+02  0.53978497649E+02  0.23494089620E+03  0.24147697147E+03  0.47000000000E+01 0.  1.
         13    1    6    6    0    0 -0.26740001480E+02  0.41269071202E+02  0.64843847324E+02  0.81381130815E+02  0.00000000000E+00 0. -1.
        -14    1    6    6    0    0 -0.32939103767E+02 -0.43893529184E+02  0.57107423090E+02  0.79201541861E+02  0.00000000000E+00 0.  1.
</event>
<event>
12    1  0.8313893E-002  0.2706049E+03  0.7818608E-02  0.1100969E+00
         21   -1    0    0  503  502  0.00000000000E+00  0.00000000000E+00  0.11151761468E+03  0.11151761468E+03  0.00000000000E+00 0.  1.
         21   -1    0    0  501  503 -0.00000000000E+00 -0.00000000000E+00 -0.70329450109E+03  0.70329450109E+03  0.00000000000E+00 0.  1.
          6    2    1    2  501    0  0.20387523930E+03 -0.44296912031E+02 -0.40136484556E+03  0.48392877950E+03  0.17194765122E+03 0.  0.
         24    2    3    3    0    0  0.61650970096E+02  0.17140458747E+02 -0.89454386886E+02  0.13562931423E+03  0.79363632129E+02 0.  0.
         -6    2    1    2    0  502 -0.20387523930E+03  0.44296912031E+02 -0.19041204085E+03  0.33088333627E+03  0.17233603019E+03 0.  0.
        -24    2    5    5    0    0 -0.10559141874E+03  0.81246389317E+02 -0.15587719239E+03  0.22025007267E+03  0.80385769359E+02 0.  0.
          5    1    3    3  501    0  0.14222426921E+03 -0.61437370777E+02 -0.31191045868E+03  0.34829946528E+03  0.47000000000E+01 0. -1.
        -11    1    4    4    0    0  0.72150787896E+02  0.32273745324E+02 -0.54153255810E+02  0.95811825711E+02  0.00000000000E+00 0.  1.
         12    1    4    4    0    0 -0.10499817800E+02 -0.15133286577E+02 -0.35301131076E+02  0.39817488516E+02  0.00000000000E+00 0. -1.
         -5    1    5    5    0  502 -0.98283820563E+02 -0.36949477287E+02 -0.34534848465E+02  0.11063326360E+03  0.47000000000E+01 0.  1.
         11    1    6    6    0    0 -0.36406349662E+02 -0.12201166508E+02 -0.28728196033E+02  0.47954144838E+02  0.00000000000E+00 0. -1.
        -12    1    6    6    0    0 -0.69185069078E+02  0.93447555825E+02 -0.12714899635E+03  0.17229592783E+03  0.00000000000E+00 0.  1.
</event>
<event>
12    1  0.8313893E-002  0.3502282E+03  0.7818608E-02  0.1062550E+00
         21   -1    0    0  503  502  0.00000000000E+00  0.00000000000E+00  0.35546868591E+03  0.35546868591E+03  0.00000000000E+00 0.  1.
         21   -1    0    0  501  503 -0.00000000000E+00 -0.00000000000E+00 -0.35038464023E+03  0.35038464023E+03  0.00000000000E+00 0.  1.
          6    2    1    2  501    0 -0.26735171152E+03 -0.14672710486E+03  0.47139780235E+02  0.35338639200E+03  0.17220337459E+03 0.  0.
         24    2    3    3    0    0 -0.13045460352E+03 -0.14111510548E+03 -0.34013451943E+01  0.20727407878E+03  0.77582846117E+02 0.  0.
         -6    2    1    2    0  502  0.26735171152E+03  0.14672710486E+03 -0.42055734549E+02  0.35246693414E+03  0.17163471065E+03 0.  0.
        -24    2    5    5    0    0  0.20920128983E+03  0.59498223813E+02 -0.70356036639E+02  0.24377771512E+03  0.84689929730E+02 0.  0.
          5    1    3    3  501    0 -0.13689710799E+03 -0.56119993814E+01  0.50541125430E+02  0.14611231322E+03  0.47000000000E+01 0. -1.
        -11    1    4    4    0    0 -0.90462076367E+02 -0.11690592973E+03 -0.33639223206E+02  0.15159809037E+03  0.00000000000E+00 0.  1.
         12    1    4    4    0    0 -0.39992527154E+02 -0.24209175746E+02  0.30237878012E+02  0.55675988407E+02  0.00000000000E+00 0. -1.
         -5    1    5    5    0  502  0.58150421689E+02  0.87228881046E+02  0.28300302090E+02  0.10868921901E+03  0.47000000000E+01 0.  1.
         13    1    6    6    0    0  0.89932711344E+01 -0.51721304846E+01  0.13725292974E+02  0.17205043641E+02  0.00000000000E+00 0. -1.
        -14    1    6    6    0    0  0.20020801869E+03  0.64670354298E+02 -0.84081329613E+02  0.22657267148E+03  0.00000000000E+00 0.  1.
</event>
<event>
12    1  0.8313893E-002  0.1884709E+03  0.7818608E-02  0.1163219E+00
         21   -1    0    0  503  502  0.00000000000E+00  0.00000000000E+00  0.14069891160E+03  0.14069891160E+03  0.00000000000E+00 0.  1.
         21   -1    0    0  501  503 -0.00000000000E+00 -0.00000000000E+00 -0.41179581272E+03  0.41179581272E+03  0.00000000000E+00 0.  1.
          6    2    1    2  501    0  0.72422145616E+02 -0.16663925639E+02 -0.31407088152E+03  0.35918658449E+03  0.15764463285E+03 0.  0.
         24    2    3    3    0    0 -0.59187571222E+01  0.29908625255E+02 -0.87680377777E+02  0.11509428694E+03  0.68038876302E+02 0.  0.
         -6    2    1    2    0  502 -0.72422145616E+02  0.16663925639E+02  0.42973980404E+02  0.19330813983E+03  0.17320109798E+03 0.  0.
        -24    2    5    5    0    0 -0.24800161070E+02  0.60359511807E+02 -0.12713648713E+02  0.10786599743E+03  0.84941850006E+02 0.  0.
          5    1    3    3  501    0  0.78340902738E+02 -0.46572550894E+02 -0.22639050374E+03  0.24409229755E+03  0.47000000000E+01 0. -1.
        -13    1    4    4    0    0 -0.34751280806E+02  0.15860796227E+02 -0.66399586181E+02  0.76603664531E+02  0.00000000000E+00 0.  1.
         14    1    4    4    0    0  0.28832523684E+02  0.14047829028E+02 -0.21280791596E+02  0.38490622408E+02  0.00000000000E+00 0. -1.
         -5    1    5    5    0  502 -0.47621984546E+02 -0.43695586168E+02  0.55687629117E+02  0.85442142409E+02  0.47000000000E+01 0.  1.
         13    1    6    6    0    0  0.30062130363E+02  0.34791420985E+02  0.17883571764E+00  0.45980502807E+02  0.00000000000E+00 0. -1.
        -14    1    6    6    0    0 -0.54862291433E+02  0.25568090822E+02 -0.12892484430E+02  0.61885494619E+02  0.00000000000E+00 0.  1.
</event>
<event>
12    1  0.8313893E-002  0.2055256E+03  0.7818608E-02  0.1145391E+00
         21   -1    0    0  501  502  0.00000000000E+00  0.00000000000E+00  0.40524669064E+02  0.40524669064E+02  0.00000000000E+00 0. -1.
         21   -1    0    0  502  503 -0.00000000000E+00 -0.00000000000E+00 -0.11556924379E+04  0.11556924379E+04  0.00000000000E+00 0. -1.
         -6    2    1    2    0  503  0.10640005045E+03 -0.37749910490E+02 -0.75097306727E+03  0.77858930727E+03  0.17174031311E+03 0.  0.
        -24    2    3    3    0    0  0.84046949873E+02  0.41368487100E+02 -0.44936371461E+03  0.46593986531E+03  0.79981051319E+02 0.  0.
          6    2    1    2  501    0 -0.10640005045E+03  0.37749910490E+02 -0.36419470153E+03  0.41762779966E+03  0.17037949393E+03 0.  0.
         24    2    5    5    0    0 -0.16332676277E+01  0.25079336403E+02 -0.20289283696E+03  0.22481440867E+03  0.93511359632E+02 0.  0.
          5    1    5    5  501    0 -0.10476678282E+03  0.12670574086E+02 -0.16130186457E+03  0.19281339099E+03  0.47000000000E+01 0. -1.
        -13    1    6    6    0    0 -0.24705411860E+02  0.35788041017E+02 -0.37338948749E+02  0.57317871111E+02  0.00000000000E+00 0.  1.
         14    1    6    6    0    0  0.23072144232E+02 -0.10708704614E+02 -0.16555388821E+03  0.16749653756E+03  0.00000000000E+00 0. -1.
         -5    1    3    3    0  503  0.22353100577E+02 -0.79118397590E+02 -0.30160935266E+03  0.31264944195E+03  0.47000000000E+01 0.  1.
         11    1    4    4    0    0  0.81651813353E+02  0.59598045653E+02 -0.32900483133E+03  0.34418472469E+03  0.00000000000E+00 0. -1.
        -12    1    4    4    0    0  0.23951365204E+01 -0.18229558553E+02 -0.12035888328E+03  0.12175514062E+03  0.00000000000E+00 0.  1.
</event>
<event>
12    1  0.8313893E-002  0.2147856E+03  0.7818608E-02  0.1138192E+00
         21   -1    0    0  501  502  0.00000000000E+00  0.00000000000E+00  0.10241561084E+04  0.10241561084E+04  0.00000000000E+00 0.  1.
         21   -1    0    0  502  503 -0.00000000000E+00 -0.00000000000E+00 -0.36734663391E+03  0.36734663391E+03  0.00000000000E+00 0.  1.
         -6    2    1    2    0  503  0.56411323653E+02  0.11603865659E+03 -0.32351478390E+03  0.38832291552E+03  0.17171390176E+03 0.  0.
        -24    2    3    3    0    0 -0.38322986444E+02  0.32399164399E+02 -0.52706705268E+02  0.89442906797E+02  0.51996919643E+02 0.  0.
          6    2    1    2  501    0 -0.56411323653E+02 -0.11603865659E+03  0.98032425835E+03  0.10031798267E+04  0.16937209340E+03 0.  0.
         24    2    5    5    0    0 -0.30674625792E+02  0.14396905483E+01  0.26465358837E+03  0.27745940018E+03  0.77454448138E+02 0.  0.
          5    1    5    5  501    0 -0.25736697862E+02 -0.11747834714E+03  0.71567066998E+03  0.72572042657E+03  0.47000000000E+01 0. -1.
        -13    1    6    6    0    0 -0.69663801834E+01 -0.36991942299E+02  0.10503269886E+03  0.11157419988E+03  0.00000000000E+00 0.  1.
         14    1    6    6    0    0 -0.23708245609E+02  0.38431632848E+02  0.15962088951E+03  0.16588520030E+03  0.00000000000E+00 0. -1.
         -5    1    3    3    0  503  0.94734310097E+02  0.83639492196E+02 -0.27080807863E+03  0.29888000872E+03  0.47000000000E+01 0.  1.
         11    1    4    4    0    0 -0.92725687979E+01  0.40507240482E+02 -0.25048901010E+02  0.48520763652E+02  0.00000000000E+00 0. -1.
        -12    1    4    4    0    0 -0.29050417646E+02 -0.81080760833E+01 -0.27657804258E+02  0.40922143145E+02  0.00000000000E+00 0.  1.
</event>
<event>
12    1  0.8313893E-002  0.2009164E+03  0.7818608E-02  0.1149052E+00
         21   -1    0    0  501  502  0.00000000000E+00  0.00000000000E+00  0.49627514797E+02  0.49627514797E+02  0.00000000000E+00 0. -1.
         21   -1    0    0  502  503 -0.00000000000E+00 -0.00000000000E+00 -0.92631698362E+03  0.92631698362E+03  0.00000000000E+00 0. -1.
         -6    2    1    2    0  503 -0.23387063390E+02  0.99390853856E+02 -0.61030118729E+03  0.64252233806E+03  0.17303733450E+03 0.  0.
        -24    2    3    3    0    0 -0.45328121466E+02  0.49199734301E+02 -0.17537407058E+03  0.20413410218E+03  0.80245963064E+02 0.  0.
          6    2    1    2  501    0  0.23387063390E+02 -0.99390853856E+02 -0.26638828153E+03  0.33342216035E+03  0.17257498056E+03 0.  0.
         24    2    5    5    0    0  0.54933053924E+02 -0.12175642805E+03 -0.22285042103E+03  0.27500124180E+03  0.90117171808E+02 0.  0.
          5    1    5    5  501    0 -0.31545990534E+02  0.22365574192E+02 -0.43537860501E+02  0.58420918554E+02  0.47000000000E+01 0. -1.
        -11    1    6    6    0    0  0.12000323388E+02  0.14165185346E+02 -0.27273744037E+02  0.32992686327E+02  0.00000000000E+00 0.  1.
         12    1    6    6    0    0  0.42932730536E+02 -0.13592161339E+03 -0.19557667699E+03  0.24200855547E+03  0.00000000000E+00 0. -1.
         -5    1    3    3    0  503  0.21941058076E+02  0.50191119555E+02 -0.43492711671E+03  0.43838823588E+03  0.47000000000E+01 0.  1.
         11    1    4    4    0    0 -0.64765761327E+02  0.17238188594E+02 -0.10966967043E+03  0.12852702283E+03  0.00000000000E+00 0. -1.
        -12    1    4    4    0    0  0.19437639862E+02  0.31961545707E+02 -0.65704400156E+02  0.75607079346E+02  0.00000000000E+00 0.  1.
</event>
<event>
12    1  0.8313893E-002  0.2344799E+03  0.7818608E-02  0.1123903E+00
         21   -1    0    0  503  502  0.00000000000E+00  0.00000000000E+00  0.11238092927E+03  0.11238092927E+03  0.00000000000E+00 0.  1.
         21   -1    0    0  501  503 -0.00000000000E+00 -0.00000000000E+00 -0.10314829669E+04  0.10314829669E+04  0.00000000000E+00 0.  1.
          6    2    1    2  501    0  0.50681981946E+02 -0.14632034274E+03 -0.87697374959E+03  0.90777960115E+03  0.17607538383E+03 0.  0.
         24    2    3    3    0    0 -0.22579512225E+02 -0.24810605179E+02 -0.24055254448E+03  0.25571679500E+03  0.80000950528E+02 0.  0.
         -6    2    1    2    0  502 -0.50681981946E+02  0.14632034274E+03 -0.42128287996E+02  0.23608429498E+03  0.17315512033E+03 0.  0.
        -24    2    5    5    0    0 -0.59428642454E+01  0.89809239348E+01 -0.39847627251E+02  0.91547116296E+02  0.81713318831E+02 0.  0.
          5    1    3    3  501    0  0.73261494172E+02 -0.12150973756E+03 -0.63642120511E+03  0.65206280615E+03  0.47000000000E+01 0. -1.
        -11    1    4    4    0    0  0.85546960540E+01 -0.28495421045E+02 -0.20945780111E+03  0.21156025688E+03  0.00000000000E+00 0.  1.
         12    1    4    4    0    0 -0.31134208279E+02  0.36848158665E+01 -0.31094743370E+02  0.44156538116E+02  0.00000000000E+00 0. -1.
         -5    1    5    5    0  502 -0.44739117701E+02  0.13733941880E+03 -0.22806607456E+01  0.14453717869E+03  0.47000000000E+01 0.  1.
         13    1    6    6    0    0 -0.24090293937E+00 -0.15576424044E+02  0.20731115681E+02  0.25931875706E+02  0.00000000000E+00 0. -1.
        -14    1    6    6    0    0 -0.57019613060E+01  0.24557347979E+02 -0.60578742932E+02  0.65615240590E+02  0.00000000000E+00 0.  1.
</event>
<event>
12    1  0.8313893E-002  0.1791106E+03  0.7818608E-02  0.1169098E+00
         21   -1    0    0  503  502  0.00000000000E+00  0.00000000000E+00  0.16188314969E+04  0.16188314969E+04  0.00000000000E+00 0. -1.
         21   -1    0    0  501  503 -0.00000000000E+00 -0.00000000000E+00 -0.30394510648E+02  0.30394510648E+02  0.00000000000E+00 0. -1.
          6    2    1    2  501    0 -0.43706208274E+02  0.21816650187E+02  0.30078672672E+03  0.34917839742E+03  0.17048958733E+03 0.  0.
         24    2    3    3    0    0  0.22042801041E+02  0.52240399143E+02  0.21428581697E+03  0.23624906503E+03  0.81732888074E+02 0.  0.
         -6    2    1    2    0  502  0.43706208274E+02 -0.21816650187E+02  0.12876502596E+04  0.13000476102E+04  0.17232062808E+03 0.  0.
        -24    2    5    5    0    0 -0.29402289238E+01 -0.66231505820E+02  0.56541692334E+03  0.57493268723E+03  0.80349488712E+02 0.  0.
          5    1    3    3  501    0 -0.65749009316E+02 -0.30423748956E+02  0.86500909754E+02  0.11292933239E+03  0.47000000000E+01 0. -1.
        -11    1    4    4    0    0  0.19532969556E+01 -0.22198602670E+02  0.52298376551E+02  0.56848161970E+02  0.00000000000E+00 0.  1.
         12    1    4    4    0    0  0.20089504086E+02  0.74439001813E+02  0.16198744042E+03  0.17940090306E+03  0.00000000000E+00 0. -1.
         -5    1    5    5    0  502  0.46646437198E+02  0.44414855633E+02  0.72223333622E+03  0.72511492292E+03  0.47000000000E+01 0.  1.
         13    1    6    6    0    0  0.18759120661E+01 -0.11316116167E+02  0.40766316155E+03  0.40782450492E+03  0.00000000000E+00 0. -1.
        -14    1    6    6    0    0 -0.48161409899E+01 -0.54915389653E+02  0.15775376180E+03  0.16710818231E+03  0.00000000000E+00 0.  1.
</event>
<event>
12    1  0.8313893E-002  0.2461680E+03  0.7818608E-02  0.1115771E+00
         21   -1    0    0  501  502  0.00000000000E+00  0.00000000000E+00  0.31475150192E+03  0.31475150192E+03  0.00000000000E+00 0.  1.
         21   -1    0    0  502  503 -0.00000000000E+00 -0.00000000000E+00 -0.19967562535E+03  0.19967562535E+03  0.00000000000E+00 0. -1.
         -6    2    1    2    0  503  0.30784097584E+02  0.17258183717E+03  0.85208434544E+01  0.24618722149E+03  0.17263658960E+03 0.  0.
        -24    2    3    3    0    0  0.14404176603E+02  0.17223482310E+03 -0.40265520006E+02  0.19450916532E+03  0.79625301901E+02 0.  0.
          6    2    1    2  501    0 -0.30784097584E+02 -0.17258183717E+03  0.10655503311E+03  0.26823990578E+03  0.17281932990E+03 0.  0.
         24    2    5    5    0    0 -0.25914896093E+02 -0.19748080365E+03  0.77132350505E+02  0.22910613639E+03  0.82885297774E+02 0.  0.
          5    1    5    5  501    0 -0.48692014905E+01  0.24898966479E+02  0.29422682609E+02  0.39133769391E+02  0.47000000000E+01 0. -1.
        -11    1    6    6    0    0 -0.19951917733E+02 -0.10177589612E+02  0.27073156785E+02  0.35137133774E+02  0.00000000000E+00 0.  1.
         12    1    6    6    0    0 -0.59629783605E+01 -0.18730321404E+03  0.50059193720E+02  0.19396900262E+03  0.00000000000E+00 0. -1.
         -5    1    3    3    0  503  0.16379920981E+02  0.34701407658E+00  0.48786363460E+02  0.51678056172E+02  0.47000000000E+01 0.  1.
         11    1    4    4    0    0 -0.29764575498E+02  0.88601821810E+02 -0.51113469302E+01  0.93607364294E+02  0.00000000000E+00 0. -1.
        -12    1    4    4    0    0  0.44168752101E+02  0.83633001285E+02 -0.35154173075E+02  0.10090180103E+03  0.00000000000E+00 0.  1.
</event>
<event>
12    1  0.8313893E-002  0.1767022E+03  0.7818608E-02  0.1171195E+00
         21   -1    0    0  503  502  0.00000000000E+00  0.00000000000E+00  0.50342923456E+03  0.50342923456E+03  0.00000000000E+00 0. -1.
         21   -1    0    0  501  503 -0.00000000000E+00 -0.00000000000E+00 -0.92634408141E+02  0.92634408141E+02  0.00000000000E+00 0. -1.
          6    2    1    2  501    0 -0.25859963029E+02  0.33403680129E+02  0.33180336758E+02  0.17915075395E+03  0.17090791192E+03 0.  0.
         24    2    3    3    0    0 -0.71880205899E+02  0.15298713163E+02 -0.13387765767E+02  0.11106014699E+03  0.82184605329E+02 0.  0.
         -6    2    1    2    0  502  0.25859963029E+02 -0.33403680129E+02  0.37761448966E+03  0.41691288876E+03  0.17157829255E+03 0.  0.
        -24    2    5    5    0    0  0.20827474720E+02  0.46726258231E+02  0.19472590517E+03  0.21712185468E+03  0.81280961630E+02 0.  0.
          5    1    3    3  501    0  0.46020242870E+02  0.18104966966E+02  0.46568102525E+02  0.68090606954E+02  0.47000000000E+01 0. -1.
        -11    1    4    4    0    0  0.14648617705E+02 -0.12283223554E+02  0.83236126156E+00  0.19135109271E+02  0.00000000000E+00 0.  1.
         12    1    4    4    0    0 -0.86528823604E+02  0.27581936717E+02 -0.14220127028E+02  0.91925037721E+02  0.00000000000E+00 0. -1.
         -5    1    5    5    0  502  0.50324883095E+01 -0.80129938360E+02  0.18288858450E+03  0.19979103408E+03  0.47000000000E+01 0.  1.
         13    1    6    6    0    0  0.36002444207E+02 -0.58241897341E+01  0.11333995831E+03  0.11906319047E+03  0.00000000000E+00 0. -1.
        -14    1    6    6    0    0 -0.15174969488E+02  0.52550447965E+02  0.81385946858E+02  0.98058664208E+02  0.00000000000E+00 0.  1.
</event>
<event>
12    1  0.8313893E-002  0.2886539E+03  0.7818608E-02  0.1091130E+00
         21   -1    0    0  503  502  0.00000000000E+00  0.00000000000E+00  0.24214933885E+03  0.24214933885E+03  0.00000000000E+00 0.  1.
         21   -1    0    0  501  503 -0.00000000000E+00 -0.00000000000E+00 -0.46346719819E+03  0.46346719819E+03  0.00000000000E+00 0. -1.
          6    2    1    2  501    0 -0.19403115241E+03  0.12690295532E+03 -0.29031569660E+03  0.40939504582E+03  0.17195537696E+03 0.  0.
         24    2    3    3    0    0 -0.54464502166E+02  0.11242014596E+03 -0.15426207409E+03  0.21389241200E+03  0.79677507463E+02 0.  0.
         -6    2    1    2    0  502  0.19403115241E+03 -0.12690295532E+03  0.68997837264E+02  0.29622149122E+03  0.17097959567E+03 0.  0.
        -24    2    5    5    0    0  0.16408269953E+03 -0.15652671161E+03  0.36686588715E+02  0.24292436607E+03  0.79010113933E+02 0.  0.
          5    1    3    3  501    0 -0.13956665025E+03  0.14482809360E+02 -0.13605362252E+03  0.19550263382E+03  0.47000000000E+01 0. -1.
        -13    1    4    4    0    0 -0.18150383042E+02  0.73234221210E+02 -0.13928483426E+03  0.15840755227E+03  0.00000000000E+00 0.  1.
         14    1    4    4    0    0 -0.36314119123E+02  0.39185924751E+02 -0.14977239822E+02  0.55484859728E+02  0.00000000000E+00 0. -1.
         -5    1    5    5    0  502  0.29948452881E+02  0.29623756289E+02  0.32311248550E+02  0.53297125152E+02  0.47000000000E+01 0.  1.
         13    1    6    6    0    0  0.71021142856E+02 -0.74802965521E+02 -0.22629906729E+02  0.10560113192E+03  0.00000000000E+00 0. -1.
        -14    1    6    6    0    0  0.93061556678E+02 -0.81723746090E+02  0.59316495444E+02  0.13732323415E+03  0.00000000000E+00 0.  1.
</event>
<event>
12    1  0.8313893E-002  0.1883808E+03  0.7818608E-02  0.1160113E+00
         21   -1    0    0  501  502  0.00000000000E+00  0.00000000000E+00  0.20862511444E+03  0.20862511444E+03  0.00000000000E+00 0. -1.
         21   -1    0    0  502  503 -0.00000000000E+00 -0.00000000000E+00 -0.24555363510E+03  0.24555363510E+03  0.00000000000E+00 0. -1.
         -6    2    1    2    0  503  0.62695135449E+02  0.46106131079E+02 -0.14497527186E+03  0.23770815293E+03  0.17155430973E+03 0.  0.
        -24    2    3    3    0    0  0.92838006542E+02 -0.13775569571E+02 -0.88700451199E+02  0.15005339727E+03  0.76417211492E+02 0.  0.
          6    2    1    2  501    0 -0.62695135449E+02 -0.46106131079E+02  0.10804675120E+03  0.21647059661E+03  0.17067209327E+03 0.  0.
         24    2    5    5    0    0  0.18636453860E+01 -0.62604395380E+02  0.14392625250E+02  0.10143488818E+03  0.78479968036E+02 0.  0.
          5    1    5    5  501    0 -0.64558780835E+02  0.16498264301E+02  0.93654125947E+02  0.11503570843E+03  0.47000000000E+01 0. -1.
        -13    1    6    6    0    0 -0.32841917616E+01 -0.69454670342E+02  0.35921798372E+02  0.78263099518E+02  0.00000000000E+00 0.  1.
         14    1    6    6    0    0  0.51478371476E+01  0.68502749623E+01 -0.21529173122E+02  0.23171788659E+02  0.00000000000E+00 0. -1.
         -5    1    3    3    0  503 -0.30142871093E+02  0.59881700650E+02 -0.56274820657E+02  0.87654755664E+02  0.47000000000E+01 0.  1.
         13    1    4    4    0    0  0.17844042718E+02 -0.12403631028E+02 -0.69230416376E+02  0.72561080992E+02  0.00000000000E+00 0. -1.
        -14    1    4    4    0    0  0.74993963824E+02 -0.13719385426E+01 -0.19470034824E+02  0.77492316273E+02  0.00000000000E+00 0.  1.
</event>
<event>
12    1  0.8313893E-002  0.1835658E+03  0.7818608E-02  0.1165578E+00
         21   -1    0    0  501  502  0.00000000000E+00  0.00000000000E+00  0.78532247254E+03  0.78532247254E+03  0.00000000000E+00 0.  1.
         21   -1    0    0  502  503 -0.00000000000E+00 -0.00000000000E+00 -0.53089811385E+02  0.53089811385E+02  0.00000000000E+00 0.  1.
         -6    2    1    2    0  503 -0.13499388284E+02 -0.46742287790E+02  0.16855400150E+03  0.24559695318E+03  0.17187302591E+03 0.  0.
        -24    2    3    3    0    0  0.48331615391E+02 -0.39959092637E+02  0.14914307959E+03  0.18026733783E+03  0.79498306706E+02 0.  0.
          6    2    1    2  501    0  0.13499388284E+02  0.46742287790E+02  0.56367865965E+03  0.59281533075E+03  0.17700087590E+03 0.  0.
         24    2    5    5    0    0 -0.92553743842E+01  0.85680254097E+02  0.50532850221E+03  0.51891827183E+03  0.80576111767E+02 0.  0.
          5    1    5    5  501    0  0.22754762668E+02 -0.38937966307E+02  0.58350157440E+02  0.73897058923E+02  0.47000000000E+01 0. -1.
        -11    1    6    6    0    0 -0.39697608412E+02  0.30094122380E+02  0.29748522876E+03  0.30162728266E+03  0.00000000000E+00 0.  1.
         12    1    6    6    0    0  0.30442234028E+02  0.55586131717E+02  0.20784327346E+03  0.21729098917E+03  0.00000000000E+00 0. -1.
         -5    1    3    3    0  503 -0.61831003675E+02 -0.67831951522E+01  0.19410921917E+02  0.65329615348E+02  0.47000000000E+01 0.  1.
         13    1    4    4    0    0 -0.55732211564E+01 -0.11992576502E+00  0.92051018440E+02  0.92219657190E+02  0.00000000000E+00 0. -1.
        -14    1    4    4    0    0  0.53904836547E+02 -0.39839166872E+02  0.57092061146E+02  0.88047680640E+02  0.00000000000E+00 0.  1.
</event>
<event>
12    1  0.8313893E-002  0.2517634E+03  0.7818608E-02  0.1112352E+00
         21   -1    0    0  501  502  0.00000000000E+00  0.00000000000E+00  0.10396236035E+04  0.10396236035E+04  0.00000000000E+00 0.  1.
         21   -1    0    0  502  503 -0.00000000000E+00 -0.00000000000E+00 -0.28728840968E+03  0.28728840968E+03  0.00000000000E+00 0. -1.
         -6    2    1    2    0  503  0.77433675643E+02 -0.16609992182E+03 -0.21316695149E+03  0.32912485592E+03  0.17116618657E+03 0.  0.
        -24    2    3    3    0    0  0.18152940548E+02 -0.11880033872E+03 -0.20795740089E+03  0.25296262426E+03  0.79377320172E+02 0.  0.
          6    2    1    2  501    0 -0.77433675643E+02  0.16609992182E+03  0.96550214535E+03  0.99778715729E+03  0.17262578145E+03 0.  0.
         24    2    5    5    0    0 -0.50683357755E+02  0.17510676040E+03  0.62169167050E+03  0.65278797575E+03  0.80002673835E+02 0.  0.
          5    1    5    5  501    0 -0.26750317888E+02 -0.90068385755E+01  0.34381047485E+03  0.34499918154E+03  0.47000000000E+01 0. -1.
        -13    1    6    6    0    0 -0.67957126662E+02  0.16022321971E+03  0.57606527859E+03  0.60178140250E+03  0.00000000000E+00 0.  1.
         14    1    6    6    0    0  0.17273768908E+02  0.14883540683E+02  0.45626391914E+02  0.51006573249E+02  0.00000000000E+00 0. -1.
         -5    1    3    3    0  503  0.59280735094E+02 -0.47299583099E+02 -0.52095506063E+01  0.76162231665E+02  0.47000000000E+01 0.  1.
         13    1    4    4    0    0  0.37780698779E+02 -0.23641192315E+02 -0.87559546333E+02  0.98249485130E+02  0.00000000000E+00 0. -1.
        -14    1    4    4    0    0 -0.19627758230E+02 -0.95159146406E+02 -0.12039785455E+03  0.15471313913E+03  0.00000000000E+00 0.  1.
</event>
<event>
12    1  0.8313893E-002  0.2393117E+03  0.7818608E-02  0.1120287E+00
         21   -1    0    0  503  502  0.00000000000E+00  0.00000000000E+00  0.25770377229E+03  0.25770377229E+03  0.00000000000E+00 0.  1.
         21   -1    0    0  501  503 -0.00000000000E+00 -0.00000000000E+00 -0.42758482345E+03  0.42758482345E+03  0.00000000000E+00 0.  1.
          6    2    1    2  501    0  0.83821029116E+02 -0.14496954032E+03 -0.32252562905E+03  0.40161282465E+03  0.17096182904E+03 0.  0.
         24    2    3    3    0    0  0.10348597682E+03 -0.10410262458E+03 -0.31350425204E+03  0.35513390241E+03  0.79299866013E+02 0.  0.
         -6    2    1    2    0  502 -0.83821029116E+02  0.14496954032E+03  0.15264457789E+03  0.28367577109E+03  0.17067349941E+03 0.  0.
        -24    2    5    5    0    0 -0.72413541378E+02  0.14579165286E+03  0.61493363938E+02  0.19168968273E+03  0.80402572341E+02 0.  0.
          5    1    3    3  501    0 -0.19664947701E+02 -0.40866915735E+02 -0.90213770083E+01  0.46478922244E+02  0.47000000000E+01 0. -1.
        -13    1    4    4    0    0  0.70996717662E+02 -0.18612595259E+02 -0.11282129490E+03  0.13459423169E+03  0.00000000000E+00 0.  1.
         14    1    4    4    0    0  0.32489259155E+02 -0.85490029325E+02 -0.20068295715E+03  0.22053967072E+03  0.00000000000E+00 0. -1.
         -5    1    5    5    0  502 -0.11407487738E+02 -0.82211254006E+00  0.91151213955E+02  0.91986088356E+02  0.47000000000E+01 0.  1.
         13    1    6    6    0    0  0.30446038062E+01  0.58127853192E+02  0.47597903193E+02  0.75190939065E+02  0.00000000000E+00 0. -1.
        -14    1    6    6    0    0 -0.75458145184E+02  0.87663799667E+02  0.13895460745E+02  0.11649874367E+03  0.00000000000E+00 0.  1.
</event>
<event>
12    1  0.8313893E-002  0.1950467E+03  0.7818608E-02  0.1154245E+00
         21   -1    0    0  503  502  0.00000000000E+00  0.00000000000E+00  0.24328499577E+02  0.24328499577E+02  0.00000000000E+00 0.  1.
         21   -1    0    0  501  503 -0.00000000000E+00 -0.00000000000E+00 -0.16424510790E+04  0.16424510790E+04  0.00000000000E+00 0.  1.
          6    2    1    2  501    0  0.29675192241E+02 -0.85954064167E+02 -0.61363147841E+03  0.64352711429E+03  0.17121576254E+03 0.  0.
         24    2    3    3    0    0  0.73102041380E-01 -0.20203468388E+02 -0.12895662017E+03  0.15349524512E+03  0.80763821783E+02 0.  0.
         -6    2    1    2    0  502 -0.29675192241E+02  0.85954064167E+02 -0.10044911010E+04  0.10232524643E+04  0.17255293532E+03 0.  0.
        -24    2    5    5    0    0 -0.67293376965E+02  0.76944794922E+02 -0.92958430928E+03  0.93881661763E+03  0.82466680686E+02 0.  0.
          5    1    3    3  501    0  0.29602090200E+02 -0.65750595779E+02 -0.48467485824E+03  0.49003186917E+03  0.47000000000E+01 0. -1.
        -13    1    4    4    0    0 -0.29710479238E+02 -0.92482760507E+01 -0.13788275122E+02  0.34034684034E+02  0.00000000000E+00 0.  1.
         14    1    4    4    0    0  0.29783581279E+02 -0.10955192337E+02 -0.11516834505E+03  0.11946056109E+03  0.00000000000E+00 0. -1.
         -5    1    5    5    0  502  0.37618184724E+02  0.90092692448E+01 -0.74906791710E+02  0.84435846644E+02  0.47000000000E+01 0.  1.
         11    1    6    6    0    0 -0.80952131793E+01  0.68260509463E+02 -0.59128060779E+03  0.59526278800E+03  0.00000000000E+00 0. -1.
        -12    1    6    6    0    0 -0.59198163786E+02  0.86842854587E+01 -0.33830370149E+03  0.34355382963E+03  0.00000000000E+00 0.  1.
</event>
<event>
12    1  0.8313893E-002  0.1980773E+03  0.7818608E-02  0.1152045E+00
         21   -1    0    0  503  502  0.00000000000E+00  0.00000000000E+00  0.50080446885E+02  0.50080446885E+02  0.00000000000E+00 0. -1.
         21   -1    0    0  501  503 -0.00000000000E+00 -0.00000000000E+00 -0.77297785742E+03  0.77297785742E+03  0.00000000000E+00 0. -1.
          6    2    1    2  501    0 -0.59516529089E+02  0.68827223893E+02 -0.34415138568E+03  0.39708285146E+03  0.17594092952E+03 0.  0.
         24    2    3    3    0    0 -0.79075717698E+02  0.18406037274E+02 -0.29528982038E+03  0.32404587122E+03  0.10591457548E+03 0.  0.
         -6    2    1    2    0  502  0.59516529089E+02 -0.68827223893E+02 -0.37874602485E+03  0.42597545284E+03  0.17241557672E+03 0.  0.
        -24    2    5    5    0    0 -0.32029962345E+02 -0.15433145812E+02 -0.14621017502E+03  0.17038457052E+03  0.79933635684E+02 0.  0.
          5    1    3    3  501    0  0.19559188610E+02  0.50421186619E+02 -0.48861565299E+02  0.73036980240E+02  0.47000000000E+01 0. -1.
        -13    1    4    4    0    0 -0.91116570908E+02  0.28439080771E+02 -0.14921787246E+03  0.17713549692E+03  0.00000000000E+00 0.  1.
         14    1    4    4    0    0  0.12040853209E+02 -0.10033043497E+02 -0.14607194792E+03  0.14691037430E+03  0.00000000000E+00 0. -1.
         -5    1    5    5    0  502  0.91546491434E+02 -0.53394078081E+02 -0.23253584984E+03  0.25559088232E+03  0.47000000000E+01 0.  1.
         11    1    6    6    0    0  0.10958512688E+02  0.81803110900E+01  0.24052035580E+01  0.13884937667E+02  0.00000000000E+00 0. -1.
        -12    1    6    6    0    0 -0.42988475033E+02 -0.23613456902E+02 -0.14861537858E+03  0.15649963285E+03  0.00000000000E+00 0.  1.
</event>
<event>
12    1  0.8313893E-002  0.2298565E+03  0.7818608E-02  0.1126950E+00
         21   -1    0    0  503  502  0.00000000000E+00  0.00000000000E+00  0.73062587129E+03  0.73062587129E+03  0.00000000000E+00 0. -1.
         21   -1    0    0  501  503 -0.00000000000E+00 -0.00000000000E+00 -0.20765830651E+03  0.20765830651E+03  0.00000000000E+00 0. -1.
          6    2    1    2  501    0 -0.15023375498E+03  0.25377672516E+02 -0.11801693192E+03  0.25733254378E+03  0.17052224040E+03 0.  0.
         24    2    3    3    0    0 -0.11178028301E+03  0.60892023892E+02 -0.26014010400E+02  0.15137705205E+03  0.77689207147E+02 0.  0.
         -6    2    1    2    0  502  0.15023375498E+03 -0.25377672516E+02  0.64098449669E+03  0.68095163401E+03  0.17210402512E+03 0.  0.
        -24    2    5    5    0    0  0.12603749756E+03 -0.43952400610E+02  0.29600086550E+03  0.33459015349E+03  0.80726663032E+02 0.  0.
          5    1    3    3  501    0 -0.38453471974E+02 -0.35514351377E+02 -0.92002921518E+02  0.10595549173E+03  0.47000000000E+01 0. -1.
        -11    1    4    4    0    0 -0.64628812730E+01  0.33184222838E+02  0.12235800095E+02  0.35953807638E+02  0.00000000000E+00 0.  1.
         12    1    4    4    0    0 -0.10531740174E+03  0.27707801055E+02 -0.38249810495E+02  0.11542324441E+03  0.00000000000E+00 0. -1.
         -5    1    5    5    0  502  0.24196257420E+02  0.18574728094E+02  0.34498363119E+03  0.34636148052E+03  0.47000000000E+01 0.  1.
         13    1    6    6    0    0  0.56314543671E+02 -0.29318662208E+02  0.22586166112E+03  0.23461543373E+03  0.00000000000E+00 0. -1.
        -14    1    6    6    0    0  0.69722953893E+02 -0.14633738402E+02  0.70139204381E+02  0.99974719757E+02  0.00000000000E+00 0.  1.
</event>
<event>
12    1  0.8313893E-002  0.2909169E+03  0.7818608E-02  0.1089971E+00
         21   -1    0    0  503  502  0.00000000000E+00  0.00000000000E+00  0.45053721667E+02  0.45053721667E+02  0.00000000000E+00 0. -1.
         21   -1    0    0  501  503 -0.00000000000E+00 -0.00000000000E+00 -0.20512640193E+04  0.20512640193E+04  0.00000000000E+00 0.  1.
          6    2    1    2  501    0 -0.10746713076E+03  0.20227987420E+03 -0.13104113796E+04  0.13421501487E+04  0.17810869194E+03 0.  0.
         24    2    3    3    0    0  0.12385015243E+02  0.11156317790E+03 -0.71475001641E+03  0.72779796510E+03  0.78883209710E+02 0.  0.
         -6    2    1    2    0  502  0.10746713076E+03 -0.20227987420E+03 -0.69579891798E+03  0.75416759223E+03  0.17934963395E+03 0.  0.
        -24    2    5    5    0    0  0.52305495693E+02 -0.21182759705E+03 -0.59740129494E+03  0.64086204419E+03  0.78797568098E+02 0.  0.
          5    1    3    3  501    0 -0.11985214601E+03  0.90716696295E+02 -0.59566136322E+03  0.61435218362E+03  0.47000000000E+01 0. -1.
        -11    1    4    4    0    0  0.75194679367E+01  0.73214145216E+02 -0.63415727142E+03  0.63841389267E+03  0.00000000000E+00 0.  1.
         12    1    4    4    0    0  0.48655473067E+01  0.38349032689E+02 -0.80592744990E+02  0.89384072428E+02  0.00000000000E+00 0. -1.
         -5    1    5    5    0  502  0.55161635071E+02  0.95477228485E+01 -0.98397623045E+02  0.11330554804E+03  0.47000000000E+01 0.  1.
         13    1    6    6    0    0  0.50020638498E+02 -0.11503071532E+03 -0.24290303638E+03  0.27337888511E+03  0.00000000000E+00 0. -1.
        -14    1    6    6    0    0  0.22848571946E+01 -0.96796881731E+02 -0.35449825856E+03  0.36748315908E+03  0.00000000000E+00 0.  1.
</event>
<event>
12    1  0.8313893E-002  0.2316540E+03  0.7818608E-02  0.1125713E+00
         21   -1    0    0  501  502  0.00000000000E+00  0.00000000000E+00  0.47576893832E+02  0.47576893832E+02  0.00000000000E+00 0. -1.
         21   -1    0    0  502  503 -0.00000000000E+00 -0.00000000000E+00 -0.11251686989E+04  0.11251686989E+04  0.00000000000E+00 0.  1.
         -6    2    1    2    0  503  0.27838929271E+02 -0.15302909300E+03 -0.50682085128E+03  0.55725305371E+03  0.17167026912E+03 0.  0.
        -24    2    3    3    0    0  0.57727100337E+02 -0.12733826503E+03 -0.48721301166E+03  0.51298253547E+03  0.78912046658E+02 0.  0.
          6    2    1    2  501    0 -0.27838929271E+02  0.15302909300E+03 -0.57077095377E+03  0.61549253899E+03  0.16987841123E+03 0.  0.
         24    2    5    5    0    0  0.48272643887E+02  0.84317543290E+02 -0.33478384280E+03  0.35814791562E+03  0.82158455519E+02 0.  0.
          5    1    5    5  501    0 -0.76111573158E+02  0.68711549710E+02 -0.23598711097E+03  0.25734462337E+03  0.47000000000E+01 0. -1.
        -13    1    6    6    0    0  0.18444194898E+02  0.26632273600E+02 -0.24613271126E+03  0.24825546897E+03  0.00000000000E+00 0.  1.
         14    1    6    6    0    0  0.29828448989E+02  0.57685269690E+02 -0.88651131540E+02  0.10989244665E+03  0.00000000000E+00 0. -1.
         -5    1    3    3    0  503 -0.29888171066E+02 -0.25690827969E+02 -0.19607839610E+02  0.44270518244E+02  0.47000000000E+01 0.  1.
         13    1    4    4    0    0  0.73504993621E+02 -0.12222604784E+03 -0.41283878930E+03  0.43678147489E+03  0.00000000000E+00 0. -1.
        -14    1    4    4    0    0 -0.15777893284E+02 -0.51122171948E+01 -0.74374222368E+02  0.76201060583E+02  0.00000000000E+00 0.  1.
</event>
<event>
12    1  0.8313893E-002  0.2611025E+03  0.7818608E-02  0.1106609E+00
         21   -1    0    0  503  502  0.00000000000E+00  0.00000000000E+00  0.21382974328E+03  0.21382974328E+03  0.00000000000E+00 0.  1.
         21   -1    0    0  501  503 -0.00000000000E+00 -0.00000000000E+00 -0.34062251414E+03  0.34062251414E+03  0.00000000000E+00 0.  1.
          6    2    1    2  501    0  0.14489625836E+03 -0.13142493093E+03 -0.13525485109E+03  0.29405508858E+03  0.17293664222E+03 0.  0.
         24    2    3    3    0    0  0.11749718629E+03 -0.20511518857E+02 -0.52699945740E+02  0.15302354415E+03  0.80078771158E+02 0.  0.
         -6    2    1    2    0  502 -0.14489625836E+03  0.13142493093E+03  0.84620802279E+01  0.26039716884E+03  0.17166141261E+03 0.  0.
        -24    2    5    5    0    0 -0.56931405179E+01  0.77664406605E+02  0.15401089617E+02  0.11093833891E+03  0.77498061760E+02 0.  0.
          5    1    3    3  501    0  0.27399072064E+02 -0.11091341208E+03 -0.82554905345E+02  0.14103154443E+03  0.47000000000E+01 0. -1.
        -13    1    4    4    0    0  0.10862471186E+03 -0.42305337440E+02 -0.55889641787E+02  0.12927769205E+03  0.00000000000E+00 0.  1.
         14    1    4    4    0    0  0.88724744313E+01  0.21793818583E+02  0.31896960469E+01  0.23745852098E+02  0.00000000000E+00 0. -1.
         -5    1    5    5    0  502 -0.13920311784E+03  0.53760524327E+02 -0.69390093890E+01  0.14945882993E+03  0.47000000000E+01 0.  1.
         13    1    6    6    0    0 -0.11809789932E+02 -0.10552185105E+02  0.15993394777E+02  0.22507963596E+02  0.00000000000E+00 0. -1.
        -14    1    6    6    0    0  0.61166494143E+01  0.88216591710E+02 -0.59230515998E+00  0.88430375315E+02  0.00000000000E+00 0.  1.
</event>
<event>
12    1  0.8313893E-002  0.1892155E+03  0.7818608E-02  0.1159238E+00
         21   -1    0    0  501  502  0.00000000000E+00  0.00000000000E+00  0.12007638450E+03  0.12007638450E+03  0.00000000000E+00 0. -1.
         21   -1    0    0  502  503 -0.00000000000E+00 -0.00000000000E+00 -0.30155207312E+03  0.30155207312E+03  0.00000000000E+00 0. -1.
         -6    2    1    2    0  503  0.24442389891E+02  0.76376749013E+02 -0.11449387986E+03  0.22090709254E+03  0.17105629715E+03 0.  0.
        -24    2    3    3    0    0  0.68684035882E+02  0.27129309732E+02 -0.11173102712E+03  0.15448151861E+03  0.76988446798E+02 0.  0.
          6    2    1    2  501    0 -0.24442389891E+02 -0.76376749013E+02 -0.66981808748E+02  0.20072136508E+03  0.17138163695E+03 0.  0.
         24    2    5    5    0    0  0.48189849978E+02 -0.41205921571E+02 -0.13254393519E+02  0.10365873315E+03  0.80927525580E+02 0.  0.
          5    1    5    5  501    0 -0.72632239869E+02 -0.35170827443E+02 -0.53727415229E+02  0.97062631937E+02  0.47000000000E+01 0. -1.
        -13    1    6    6    0    0  0.53973388260E+02  0.53633934850E+01 -0.16292639129E+02  0.56633406393E+02  0.00000000000E+00 0.  1.
         14    1    6    6    0    0 -0.57835382817E+01 -0.46569315056E+02  0.30382456107E+01  0.47025326753E+02  0.00000000000E+00 0. -1.
         -5    1    3    3    0  503 -0.44241645991E+02  0.49247439281E+02 -0.27628527447E+01  0.66425573923E+02  0.47000000000E+01 0.  1.
         13    1    4    4    0    0  0.40524288048E+02 -0.24180330278E+02 -0.60268308272E+02  0.76545249860E+02  0.00000000000E+00 0. -1.
        -14    1    4    4    0    0  0.28159747834E+02  0.51309640011E+02 -0.51462718848E+02  0.77936268754E+02  0.00000000000E+00 0.  1.
</event>
<event>
12    1  0.8313893E-002  0.2157121E+03  0.7818608E-02  0.1137139E+00
         21   -1    0    0  501  502  0.00000000000E+00  0.00000000000E+00  0.68699786772E+02  0.68699786772E+02  0.00000000000E+00 0. -1.
         21   -1    0    0  502  503 -0.00000000000E+00 -0.00000000000E+00 -0.88505988198E+03  0.88505988198E+03  0.00000000000E+00 0.  1.
         -6    2    1    2    0  503  0.12753576522E+02 -0.13028838773E+03 -0.63945412711E+03  0.67485796283E+03  0.17144670197E+03 0.  0.
        -24    2    3    3    0    0  0.63093013763E+02 -0.12184760262E+03 -0.53641474365E+03  0.55977316653E+03  0.82326509136E+02 0.  0.
          6    2    1    2  501    0 -0.12753576522E+02  0.13028838773E+03 -0.17690596810E+03  0.27890170593E+03  0.17132636204E+03 0.  0.
         24    2    5    5    0    0  0.35284605182E+02  0.29793507087E+02 -0.12644773011E+03  0.15652927554E+03  0.79873207187E+02 0.  0.
          5    1    5    5  501    0 -0.48038181705E+02  0.10049488064E+03 -0.50458237994E+02  0.12237243039E+03  0.47000000000E+01 0. -1.
        -13    1    6    6    0    0 -0.18751055754E+02  0.31038082048E+02 -0.66998587603E+02  0.76182513544E+02  0.00000000000E+00 0.  1.
         14    1    6    6    0    0  0.54035660936E+02 -0.12445749614E+01 -0.59449142502E+02  0.80346762000E+02  0.00000000000E+00 0. -1.
         -5    1    3    3    0  503 -0.50339437241E+02 -0.84407851131E+01 -0.10303938346E+03  0.11508479630E+03  0.47000000000E+01 0.  1.
         13    1    4    4    0    0  0.74633367382E+02 -0.75049674915E+02 -0.29053893641E+03  0.30921750727E+03  0.00000000000E+00 0. -1.
        -14    1    4    4    0    0 -0.11540353618E+02 -0.46797927703E+02 -0.24587580724E+03  0.25055565926E+03  0.00000000000E+00 0.  1.
</event>
<event>
12    1  0.8313893E-002  0.2171050E+03  0.7818608E-02  0.1136635E+00
         21   -1    0    0  503  502  0.00000000000E+00  0.00000000000E+00  0.82778995561E+03  0.82778995561E+03  0.00000000000E+00 0.  1.
         21   -1    0    0  501  503 -0.00000000000E+00 -0.00000000000E+00 -0.75449787520E+02  0.75449787520E+02  0.00000000000E+00 0.  1.
          6    2    1    2  501    0  0.12492809317E+03 -0.43531168264E+02  0.14973467928E+03  0.26373289563E+03  0.17214114844E+03 0.  0.
         24    2    3    3    0    0  0.15353793236E+03 -0.53421984967E+02  0.10407732998E+03  0.20875076490E+03  0.79479469548E+02 0.  0.
         -6    2    1    2    0  502 -0.12492809317E+03  0.43531168264E+02  0.60260548882E+03  0.63950684750E+03  0.16832599853E+03 0.  0.
        -24    2    5    5    0    0 -0.59139009632E+02  0.57139710703E+02  0.52124657081E+03  0.53389075271E+03  0.81110907116E+02 0.  0.
          5    1    3    3  501    0 -0.28609839199E+02  0.98908167030E+01  0.45657349300E+02  0.54982130726E+02  0.47000000000E+01 0. -1.
        -11    1    4    4    0    0  0.57040192685E+02 -0.15327449635E+02 -0.36685052560E+01  0.59177463824E+02  0.00000000000E+00 0.  1.
         12    1    4    4    0    0  0.96497739680E+02 -0.38094535332E+02  0.10774583523E+03  0.14957330108E+03  0.00000000000E+00 0. -1.
         -5    1    5    5    0  502 -0.65789083533E+02 -0.13608542439E+02  0.81358918008E+02  0.10561609479E+03  0.47000000000E+01 0.  1.
         11    1    6    6    0    0  0.96719205365E+01  0.34578745519E+02  0.95446240258E+02  0.10197656823E+03  0.00000000000E+00 0. -1.
        -12    1    6    6    0    0 -0.68810930169E+02  0.22560965183E+02  0.42580033055E+03  0.43191418448E+03  0.00000000000E+00 0.  1.
</event>
<event>
12    1  0.8313893E-002  0.2547027E+03  0.7818608E-02  0.1110471E+00
         21   -1    0    0  503  502  0.00000000000E+00  0.00000000000E+00  0.53870781571E+03  0.53870781571E+03  0.00000000000E+00 0.  1.
         21   -1    0    0  501  503 -0.00000000000E+00 -0.00000000000E+00 -0.16858620646E+03  0.16858620646E+03  0.00000000000E+00 0.  1.
          6    2    1    2  501    0 -0.12903683948E+03  0.13686219101E+03 -0.44049864491E+01  0.25474074108E+03  0.17173140653E+03 0.  0.
         24    2    3    3    0    0 -0.16122174668E+03  0.11093922057E+03  0.61044103740E+01  0.21184078690E+03  0.80865894569E+02 0.  0.
         -6    2    1    2    0  502  0.12903683948E+03 -0.13686219101E+03  0.37452659570E+03  0.45255328109E+03  0.17074113761E+03 0.  0.
        -24    2    5    5    0    0  0.45542053133E+02 -0.29139541651E+02  0.67083391259E+02  0.11622165533E+03  0.78000642907E+02 0.  0.
          5    1    3    3  501    0  0.32184907196E+02  0.25922970431E+02 -0.10509396823E+02  0.42899954182E+02  0.47000000000E+01 0. -1.
        -11    1    4    4    0    0 -0.63835785175E+02  0.79852919292E+02 -0.24506829318E+02  0.10512887744E+03  0.00000000000E+00 0.  1.
         12    1    4    4    0    0 -0.97385961501E+02  0.31086301283E+02  0.30611239692E+02  0.10671190946E+03  0.00000000000E+00 0. -1.
         -5    1    5    5    0  502  0.83494786348E+02 -0.10772264935E+03  0.30744320444E+03  0.33633162576E+03  0.47000000000E+01 0.  1.
         11    1    6    6    0    0 -0.22048467580E+02 -0.11298629149E+02  0.21158722397E+02  0.32580446233E+02  0.00000000000E+00 0. -1.
        -12    1    6    6    0    0  0.67590520713E+02 -0.17840912502E+02  0.45924668862E+02  0.83641209097E+02  0.00000000000E+00 0.  1.
</event>
<event>
12    1  0.8313893E-002  0.2118083E+03  0.7818608E-02  0.1140427E+00
         21   -1    0    0  503  502  0.00000000000E+00  0.00000000000E+00  0.39997437976E+03  0.39997437976E+03  0.00000000000E+00 0.  1.
         21   -1    0    0  501  503 -0.00000000000E+00 -0.00000000000E+00 -0.12319269871E+03  0.12319269871E+03  0.00000000000E+00 0.  1.
          6    2    1    2  501    0 -0.63726495690E+00 -0.12171395222E+03  0.21976269714E+03  0.30521859344E+03  0.17334374651E+03 0.  0.
         24    2    3    3    0    0  0.14781444206E+02 -0.13732469125E+02  0.35559377595E+02  0.91090850684E+02  0.81400257631E+02 0.  0.
         -6    2    1    2    0  502  0.63726495690E+00  0.12171395222E+03  0.57018983903E+02  0.21794848503E+03  0.17156831097E+03 0.  0.
        -24    2    5    5    0    0 -0.56343882494E+02  0.56799953822E+02  0.66693324556E+02  0.13090618945E+03  0.79294155183E+02 0.  0.
          5    1    3    3  501    0 -0.15418709163E+02 -0.10798148310E+03  0.18420331955E+03  0.21412774275E+03  0.47000000000E+01 0. -1.
        -11    1    4    4    0    0 -0.22721132591E+02 -0.31978816553E+02  0.53464548692E+01  0.39591402527E+02  0.00000000000E+00 0.  1.
         12    1    4    4    0    0  0.37502576797E+02  0.18246347429E+02  0.30212922726E+02  0.51499448157E+02  0.00000000000E+00 0. -1.
         -5    1    5    5    0  502  0.56981147451E+02  0.64913998398E+02 -0.96743406530E+01  0.87042295580E+02  0.47000000000E+01 0.  1.
         11    1    6    6    0    0 -0.62955224105E+01 -0.11874363264E+02  0.39438865496E+02  0.41666031932E+02  0.00000000000E+00 0. -1.
        -12    1    6    6    0    0 -0.50048360083E+02  0.68674317087E+02  0.27254459060E+02  0.89240157513E+02  0.00000000000E+00 0.  1.
</event>
<event>
12    1  0.8313893E-002  0.1853161E+03  0.7818608E-02  0.1162977E+00
         21   -1    0    0  501  502  0.00000000000E+00  0.00000000000E+00  0.50929107671E+03  0.50929107671E+03  0.00000000000E+00 0.  1.
         21   -1    0    0  502  503 -0.00000000000E+00 -0.00000000000E+00 -0.28428345997E+03  0.28428345997E+03  0.00000000000E+00 0.  1.
         -6    2    1    2    0  503  0.53622794963E+02  0.42302885810E+02 -0.23425204367E+03  0.29869061068E+03  0.17227049272E+03 0.  0.
        -24    2    3    3    0    0  0.24627151347E+02 -0.81650238123E+01 -0.35837886898E+02  0.91862119278E+02  0.80505469526E+02 0.  0.
          6    2    1    2  501    0 -0.53622794963E+02 -0.42302885810E+02  0.45925966041E+03  0.49488392600E+03  0.17124755837E+03 0.  0.
         24    2    5    5    0    0 -0.12458591933E+02  0.32991895183E+02  0.31217649648E+03  0.32453327948E+03  0.81387977485E+02 0.  0.
          5    1    5    5  501    0 -0.41164203030E+02 -0.75294780993E+02  0.14708316393E+03  0.17035064651E+03  0.47000000000E+01 0. -1.
        -13    1    6    6    0    0  0.16811956321E+02  0.19100450705E+01  0.24057223123E+03  0.24116651630E+03  0.00000000000E+00 0.  1.
         14    1    6    6    0    0 -0.29270548254E+02  0.31081850112E+02  0.71604265250E+02  0.83366763182E+02  0.00000000000E+00 0. -1.
         -5    1    3    3    0  503  0.28995643616E+02  0.50467909623E+02 -0.19841415677E+03  0.20682849140E+03  0.47000000000E+01 0.  1.
         13    1    4    4    0    0  0.49901661721E+02  0.12099020580E+02 -0.28189509352E+02  0.58576536079E+02  0.00000000000E+00 0. -1.
        -14    1    4    4    0    0 -0.25274510374E+02 -0.20264044392E+02 -0.76483775460E+01  0.33285583199E+02  0.00000000000E+00 0.  1.
</event>
<event>
12    1  0.8313893E-002  0.2081641E+03  0.7818608E-02  0.1143138E+00
         21   -1    0    0  501  502  0.00000000000E+00  0.00000000000E+00  0.74227813977E+02  0.74227813977E+02  0.00000000000E+00 0.  1.
         21   -1    0    0  502  503 -0.00000000000E+00 -0.00000000000E+00 -0.70423789865E+03  0.70423789865E+03  0.00000000000E+00 0. -1.
         -6    2    1    2    0  503 -0.38993276931E+02  0.10906622839E+03 -0.47734882787E+03  0.52076308892E+03  0.17296350335E+03 0.  0.
        -24    2    3    3    0    0 -0.74505407366E+02  0.81806509324E+02 -0.21381810967E+03  0.25341550032E+03  0.79106706973E+02 0.  0.
          6    2    1    2  501    0  0.38993276931E+02 -0.10906622839E+03 -0.15266125680E+03  0.25770262370E+03  0.17230573152E+03 0.  0.
         24    2    5    5    0    0  0.21141365117E+02 -0.87275697352E+02 -0.19998141143E+02  0.12200033834E+03  0.80125852491E+02 0.  0.
          5    1    5    5  501    0  0.17851911814E+02 -0.21790531037E+02 -0.13266311566E+03  0.13570228537E+03  0.47000000000E+01 0. -1.
        -11    1    6    6    0    0  0.25644543759E+02 -0.67171720781E+02 -0.48575187704E+02  0.86771144731E+02  0.00000000000E+00 0.  1.
         12    1    6    6    0    0 -0.45031786424E+01 -0.20103976571E+02  0.28577046562E+02  0.35229193605E+02  0.00000000000E+00 0. -1.
         -5    1    3    3    0  503  0.35512130434E+02  0.27259719066E+02 -0.26353071820E+03  0.26734758860E+03  0.47000000000E+01 0.  1.
         13    1    4    4    0    0 -0.29383667668E+02  0.84201974532E+02 -0.15970058395E+03  0.18291432135E+03  0.00000000000E+00 0. -1.
        -14    1    4    4    0    0 -0.45121739697E+02 -0.23954652086E+01 -0.54117525711E+02  0.70501178968E+02  0.00000000000E+00 0.  1.
</event>
<event>
12    1  0.8313893E-002  0.2643386E+03  0.7818608E-02  0.1104766E+00
         21   -1    0    0  503  502  0.00000000000E+00  0.00000000000E+00  0.15100809407E+03  0.15100809407E+03  0.00000000000E+00 0. -1.
         21   -1    0    0  501  503 -0.00000000000E+00 -0.00000000000E+00 -0.49250813252E+03  0.49250813252E+03  0.00000000000E+00 0.  1.
          6    2    1    2  501    0 -0.17437911045E+03 -0.98926655591E+02 -0.25341444585E+03  0.36618820686E+03  0.17227990054E+03 0.  0.
         24    2    3    3    0    0 -0.39618497357E+02 -0.83709670009E+02 -0.14562009944E+03  0.19288589698E+03  0.86155799031E+02 0.  0.
         -6    2    1    2    0  502  0.17437911045E+03  0.98926655591E+02 -0.88085592592E+02  0.27732801973E+03  0.17016815670E+03 0.  0.
        -24    2    5    5    0    0  0.43463176105E+02  0.94271085708E+02 -0.15886675714E+02  0.12767699302E+03  0.72615031521E+02 0.  0.
          5    1    3    3  501    0 -0.13476061310E+03 -0.15216985582E+02 -0.10779434641E+03  0.17330230988E+03  0.47000000000E+01 0. -1.
        -13    1    4    4    0    0 -0.35625392738E+02  0.47378583705E+01 -0.27428072879E+02  0.45209679179E+02  0.00000000000E+00 0.  1.
         14    1    4    4    0    0 -0.39931046197E+01 -0.88447528379E+02 -0.11819202656E+03  0.14767621780E+03  0.00000000000E+00 0. -1.
         -5    1    5    5    0  502  0.13091593435E+03  0.46555698834E+01 -0.72198916878E+02  0.14965102671E+03  0.47000000000E+01 0.  1.
         11    1    6    6    0    0  0.50132284346E+02  0.99799601959E+02 -0.25684443281E+02  0.11459885301E+03  0.00000000000E+00 0. -1.
        -12    1    6    6    0    0 -0.66691082417E+01 -0.55285162512E+01  0.97977675671E+01  0.13078140005E+02  0.00000000000E+00 0.  1.
</event>
<event>
12    1  0.8313893E-002  0.1743420E+03  0.7818608E-02  0.1174445E+00
         21   -1    0    0  503  502  0.00000000000E+00  0.00000000000E+00  0.29939662044E+02  0.29939662044E+02  0.00000000000E+00 0. -1.
         21   -1    0    0  501  503 -0.00000000000E+00 -0.00000000000E+00 -0.99246358730E+03  0.99246358730E+03  0.00000000000E+00 0. -1.
          6    2    1    2  501    0 -0.14288183831E+02 -0.44097324785E+01 -0.45884709661E+03  0.48940656554E+03  0.16957160844E+03 0.  0.
         24    2    3    3    0    0  0.91099639749E+01  0.19340631255E+02 -0.44579792862E+03  0.45329667931E+03  0.79278211703E+02 0.  0.
         -6    2    1    2    0  502  0.14288183831E+02  0.44097324785E+01 -0.50367682865E+03  0.53299668381E+03  0.17369950862E+03 0.  0.
        -24    2    5    5    0    0  0.23227935882E+01  0.62291908304E+02 -0.22218915688E+03  0.24533209405E+03  0.83271470059E+02 0.  0.
          5    1    3    3  501    0 -0.23398147805E+02 -0.23750363733E+02 -0.13049167988E+02  0.36109886228E+02  0.47000000000E+01 0. -1.
        -13    1    4    4    0    0 -0.20540694391E+02  0.34997938487E+02 -0.33738754243E+03  0.33981926021E+03  0.00000000000E+00 0.  1.
         14    1    4    4    0    0  0.29650658366E+02 -0.15657307232E+02 -0.10841038620E+03  0.11347741910E+03  0.00000000000E+00 0. -1.
         -5    1    5    5    0  502  0.11965390242E+02 -0.57882175825E+02 -0.28148767177E+03  0.28766458976E+03  0.47000000000E+01 0.  1.
         13    1    6    6    0    0  0.12191745955E+02  0.35379029809E+02 -0.22644168942E+02  0.43738687757E+02  0.00000000000E+00 0. -1.
        -14    1    6    6    0    0 -0.98689523669E+01  0.26912878495E+02 -0.19954498794E+03  0.20159340629E+03  0.00000000000E+00 0.  1.
</event>
<event>
12    1  0.8313893E-002  0.3014115E+03  0.7818608E-02  0.1084537E+00
         21   -1    0    0  501  502  0.00000000000E+00  0.00000000000E+00  0.86587713621E+02  0.86587713621E+02  0.00000000000E+00 0. -1.
         21   -1    0    0  502  503 -0.00000000000E+00 -0.00000000000E+00 -0.13846800430E+04  0.13846800430E+04  0.00000000000E+00 0.  1.
         -6    2    1    2    0  503  0.23127885331E+03 -0.89234313492E+02 -0.10111378757E+04  0.10551060237E+04  0.17145333724E+03 0.  0.
        -24    2    3    3    0    0  0.10031090933E+03  0.21740472464E+02 -0.45161965225E+03  0.46982768149E+03  0.79011475906E+02 0.  0.
          6    2    1    2  501    0 -0.23127885331E+03  0.89234313492E+02 -0.28695445359E+03  0.41616173285E+03  0.17144987244E+03 0.  0.
         24    2    5    5    0    0 -0.13647424657E+03  0.83690192500E+02 -0.26339306902E+03  0.31820317233E+03  0.79044808646E+02 0.  0.
          5    1    5    5  501    0 -0.94804606742E+02  0.55441209922E+01 -0.23561384574E+02  0.97958560525E+02  0.47000000000E+01 0. -1.
        -11    1    6    6    0    0 -0.23612887606E+02  0.58233206520E+02 -0.94057451273E+02  0.11311710279E+03  0.00000000000E+00 0.  1.
         12    1    6    6    0    0 -0.11286135896E+03  0.25456985980E+02 -0.16933561775E+03  0.20508606954E+03  0.00000000000E+00 0. -1.
         -5    1    3    3    0  503  0.13096794398E+03 -0.11097478596E+03 -0.55951822349E+03  0.58527834223E+03  0.47000000000E+01 0.  1.
         11    1    4    4    0    0  0.40050430586E+02  0.30809917611E+02 -0.90932960288E+02  0.10402928088E+03  0.00000000000E+00 0. -1.
        -12    1    4    4    0    0  0.60260478748E+02 -0.90694451467E+01 -0.36068669196E+03  0.36579840062E+03  0.00000000000E+00 0.  1.
</event>
<event>
12    1  0.8313893E-002  0.1772351E+03  0.7818608E-02  0.1171191E+00
         21   -1    0    0  501  502  0.00000000000E+00  0.00000000000E+00  0.28081710690E+03  0.28081710690E+03  0.00000000000E+00 0. -1.
         21   -1    0    0  502  503 -0.00000000000E+00 -0.00000000000E+00 -0.18987917520E+03  0.18987917520E+03  0.00000000000E+00 0. -1.
         -6    2    1    2    0  503 -0.35774715499E+02  0.18369852219E+02 -0.10725726917E+03  0.20481358537E+03  0.16978575094E+03 0.  0.
        -24    2    3    3    0    0 -0.31264494771E+02  0.75593907322E+02 -0.77089076422E+02  0.13979709187E+03  0.83117950737E+02 0.  0.
          6    2    1    2  501    0  0.35774715499E+02 -0.18369852219E+02  0.19819520087E+03  0.26588269673E+03  0.17261225054E+03 0.  0.
         24    2    5    5    0    0 -0.28278684822E+02  0.36704470896E+02  0.11437777722E+03  0.14678832379E+03  0.79483544722E+02 0.  0.
          5    1    5    5  501    0  0.64053400320E+02 -0.55074323115E+02  0.83817423651E+02  0.11909437294E+03  0.47000000000E+01 0. -1.
        -11    1    6    6    0    0 -0.18178577935E+02  0.42556859148E+02  0.17917702539E+02  0.49624500205E+02  0.00000000000E+00 0.  1.
         12    1    6    6    0    0 -0.10100106887E+02 -0.58523882522E+01  0.96460074676E+02  0.97163823586E+02  0.00000000000E+00 0. -1.
         -5    1    3    3    0  503 -0.45102207273E+01 -0.57224055103E+02 -0.30168192747E+02  0.65016493500E+02  0.47000000000E+01 0.  1.
         13    1    4    4    0    0 -0.35346104282E+02 -0.40827284976E+00 -0.64013773610E+01  0.35923410289E+02  0.00000000000E+00 0. -1.
        -14    1    4    4    0    0  0.40816095109E+01  0.76002180171E+02 -0.70687699061E+02  0.10387368158E+03  0.00000000000E+00 0.  1.
</event>
<event>
12    1  0.8313893E-002  0.2335546E+03  0.7818608E-02  0.1124287E+00
         21   -1    0    0  501  502  0.00000000000E+00  0.00000000000E+00  0.28319767633E+03  0.28319767633E+03  0.00000000000E+00 0.  1.
         21   -1    0    0  502  503 -0.00000000000E+00 -0.00000000000E+00 -0.19270923048E+03  0.19270923048E+03  0.00000000000E+00 0.  1.
         -6    2    1    2    0  503 -0.15042008436E+03 -0.43547502523E+02  0.59524769670E+02  0.24102059806E+03  0.17327764926E+03 0.  0.
        -24    2    3    3    0    0 -0.12414355072E+03 -0.13964969564E+02  0.10455962749E+03  0.18088898496E+03  0.78622309923E+02 0.  0.
          6    2    1    2  501    0  0.15042008436E+03  0.43547502523E+02  0.30963676176E+02  0.23488630874E+03  0.17230856635E+03 0.  0.
         24    2    5    5    0    0  0.10888390739E+03  0.69769358234E+01  0.86830171388E+02  0.15610930935E+03  0.70187284320E+02 0.  0.
          5    1    5    5  501    0  0.41536176967E+02  0.36570566700E+02 -0.55866495212E+02  0.78776999391E+02  0.47000000000E+01 0. -1.
        -11    1    6    6    0    0  0.81754924494E+02  0.20248134156E+02  0.25920566657E+02  0.88123381640E+02  0.00000000000E+00 0.  1.
         12    1    6    6    0    0  0.27128982896E+02 -0.13271198332E+02  0.60909604730E+02  0.67985927710E+02  0.00000000000E+00 0. -1.
         -5    1    3    3    0  503 -0.26276533633E+02 -0.29582532959E+02 -0.45034857818E+02  0.60131613106E+02  0.47000000000E+01 0.  1.
         11    1    4    4    0    0 -0.33238649366E+02 -0.34766502034E+02  0.61764148052E+02  0.78283634688E+02  0.00000000000E+00 0. -1.
        -12    1    4    4    0    0 -0.90904901359E+02  0.20801532470E+02  0.42795479436E+02  0.10260535027E+03  0.00000000000E+00 0.  1.
</event>
<event>
12    1  0.8313893E-002  0.4574642E+03  0.7818608E-02  0.1025531E+00
         21   -1    0    0  501  502  0.00000000000E+00  0.00000000000E+00  0.18817816985E+04  0.18817816985E+04  0.00000000000E+00 0. -1.
         21   -1    0    0  502  503 -0.00000000000E+00 -0.00000000000E+00 -0.17741298979E+03  0.17741298979E+03  0.00000000000E+00 0.  1.
         -6    2    1    2    0  503  0.19202337641E+03  0.37774680612E+03  0.22314509918E+03  0.50898643135E+03  0.17235958164E+03 0.  0.
        -24    2    3    3    0    0  0.12260088367E+03  0.99973161720E+02  0.84465308911E+02  0.19081689438E+03  0.65200376006E+02 0.  0.
          6    2    1    2  501    0 -0.19202337641E+03 -0.37774680612E+03  0.14812236095E+04  0.15502082569E+04  0.17192042285E+03 0.  0.
         24    2    5    5    0    0 -0.15430802708E+02 -0.12045316248E+03  0.50441188752E+03  0.52474826921E+03  0.78627728868E+02 0.  0.
          5    1    5    5  501    0 -0.17659257371E+03 -0.25729364364E+03  0.97681172197E+03  0.10254599877E+04  0.47000000000E+01 0. -1.
        -11    1    6    6    0    0  0.10515850570E+01 -0.83444377098E+02  0.18718178787E+03  0.20494167856E+03  0.00000000000E+00 0.  1.
         12    1    6    6    0    0 -0.16482387765E+02 -0.37008785384E+02  0.31723009965E+03  0.31980659065E+03  0.00000000000E+00 0. -1.
         -5    1    3    3    0  503  0.69422492740E+02  0.27777364440E+03  0.13867979026E+03  0.31816953696E+03  0.47000000000E+01 0.  1.
         13    1    4    4    0    0  0.11544557520E+03  0.95441523860E+02  0.94942981116E+02  0.17734411457E+03  0.00000000000E+00 0. -1.
        -14    1    4    4    0    0  0.71553084707E+01  0.45316378603E+01 -0.10477672205E+02  0.13472779811E+02  0.00000000000E+00 0.  1.
</event>
<event>
12    1  0.8313893E-002  0.1837480E+03  0.7818608E-02  0.1164877E+00
         21   -1    0    0  501  502  0.00000000000E+00  0.00000000000E+00  0.16150020360E+03  0.16150020360E+03  0.00000000000E+00 0. -1.
         21   -1    0    0  502  503 -0.00000000000E+00 -0.00000000000E+00 -0.43517284324E+03  0.43517284324E+03  0.00000000000E+00 0. -1.
         -6    2    1    2    0  503 -0.32409511559E+02  0.49442810750E+02 -0.35384689733E+03  0.39871162974E+03  0.17397807037E+03 0.  0.
        -24    2    3    3    0    0 -0.52965161663E+02  0.81737333559E+02 -0.17441097798E+03  0.21517740921E+03  0.79973921670E+02 0.  0.
          6    2    1    2  501    0  0.32409511559E+02 -0.49442810750E+02  0.80174257681E+02  0.19796141710E+03  0.17107262520E+03 0.  0.
         24    2    5    5    0    0  0.45287469866E+02  0.27208088952E+02  0.73815880865E+02  0.11983510149E+03  0.78233191486E+02 0.  0.
          5    1    5    5  501    0 -0.12877958306E+02 -0.76650899702E+02  0.63583768169E+01  0.78126315612E+02  0.47000000000E+01 0. -1.
        -13    1    6    6    0    0  0.18412396726E+02  0.23215119130E+02 -0.10355010409E+02  0.31387646455E+02  0.00000000000E+00 0.  1.
         14    1    6    6    0    0  0.26875073140E+02  0.39929698221E+01  0.84170891274E+02  0.88447455035E+02  0.00000000000E+00 0. -1.
         -5    1    3    3    0  503  0.20555650103E+02 -0.32294522809E+02 -0.17943591934E+03  0.18353422053E+03  0.47000000000E+01 0.  1.
         13    1    4    4    0    0 -0.42257910443E+02  0.22715963731E+02 -0.13533582038E+03  0.14358805758E+03  0.00000000000E+00 0. -1.
        -14    1    4    4    0    0 -0.10707251219E+02  0.59021369828E+02 -0.39075157609E+02  0.71589351632E+02  0.00000000000E+00 0.  1.
</event>
<event>
12    1  0.8313893E-002  0.2036433E+03  0.7818608E-02  0.1146901E+00
         21   -1    0    0  501  502  0.00000000000E+00  0.00000000000E+00  0.13374616572E+03  0.13374616572E+03  0.00000000000E+00 0.  1.
         21   -1    0    0  502  503 -0.00000000000E+00 -0.00000000000E+00 -0.31063288883E+03  0.31063288883E+03  0.00000000000E+00 0.  1.
         -6    2    1    2    0  503  0.76402434749E+02 -0.75241713511E+02 -0.10662539761E+03  0.22986860718E+03  0.17312409903E+03 0.  0.
        -24    2    3    3    0    0 -0.17164291309E+02 -0.19789566746E+02 -0.84892866320E+02  0.11885479848E+03  0.78952039380E+02 0.  0.
          6    2    1    2  501    0 -0.76402434749E+02  0.75241713511E+02 -0.70261325494E+02  0.21451044736E+03  0.17198671658E+03 0.  0.
         24    2    5    5    0    0 -0.38613024622E+02  0.26464773568E+02  0.30563727055E+02  0.96209937604E+02  0.78299813357E+02 0.  0.
          5    1    5    5  501    0 -0.37789410127E+02  0.48776939943E+02 -0.10082505255E+03  0.11830050976E+03  0.47000000000E+01 0. -1.
        -13    1    6    6    0    0 -0.61907276106E+02  0.27686980664E+02  0.24522637373E+02  0.72114072669E+02  0.00000000000E+00 0.  1.
         14    1    6    6    0    0  0.23294251484E+02 -0.12222070957E+01  0.60410896818E+01  0.24095864935E+02  0.00000000000E+00 0. -1.
         -5    1    3    3    0  503  0.93566726058E+02 -0.55452146765E+02 -0.21732531291E+02  0.11101380870E+03  0.47000000000E+01 0.  1.
         13    1    4    4    0    0 -0.46584265327E+02 -0.22594677206E+02 -0.65563478641E+02  0.83541504329E+02  0.00000000000E+00 0. -1.
        -14    1    4    4    0    0  0.29419974018E+02  0.28051104603E+01 -0.19329387679E+02  0.35313294153E+02  0.00000000000E+00 0.  1.
</event>
<event>
12    1  0.8313893E-002  0.1946054E+03  0.7818608E-02  0.1156096E+00
         21   -1    0    0  503  502  0.00000000000E+00  0.00000000000E+00  0.28206870058E+03  0.28206870058E+03  0.00000000000E+00 0. -1.
         21   -1    0    0  501  503 -0.00000000000E+00 -0.00000000000E+00 -0.23928951431E+03  0.23928951431E+03  0.00000000000E+00 0. -1.
          6    2    1    2  501    0  0.69601085651E+02  0.25926987121E+02 -0.15534066150E+03  0.24900199114E+03  0.17987426356E+03 0.  0.
         24    2    3    3    0    0  0.97077012000E+02  0.19832997186E+02 -0.17358978362E+03  0.21513189075E+03  0.79567728418E+02 0.  0.
         -6    2    1    2    0  502 -0.69601085651E+02 -0.25926987121E+02  0.19811984777E+03  0.27235622375E+03  0.17149320321E+03 0.  0.
        -24    2    5    5    0    0 -0.23721377893E+02  0.36175074498E+02  0.47175996880E+02  0.10274564105E+03  0.80372584186E+02 0.  0.
          5    1    3    3  501    0 -0.27475926348E+02  0.60939899347E+01  0.18249122121E+02  0.33870100387E+02  0.47000000000E+01 0. -1.
        -11    1    4    4    0    0  0.56510888928E+02 -0.27551803237E+02 -0.10531114913E+03  0.12264999209E+03  0.00000000000E+00 0.  1.
         12    1    4    4    0    0  0.40566123072E+02  0.47384800423E+02 -0.68278634488E+02  0.92481898660E+02  0.00000000000E+00 0. -1.
         -5    1    5    5    0  502 -0.45879707759E+02 -0.62102061619E+02  0.15094385089E+03  0.16961058270E+03  0.47000000000E+01 0.  1.
         13    1    6    6    0    0 -0.19936296210E+02 -0.23690412996E+02  0.20234169395E+02  0.36988014080E+02  0.00000000000E+00 0. -1.
        -14    1    6    6    0    0 -0.37850816826E+01  0.59865487494E+02  0.26941827485E+02  0.65757626968E+02  0.00000000000E+00 0.  1.
</event>
<event>
12    1  0.8313893E-002  0.2072741E+03  0.7818608E-02  0.1143958E+00
         21   -1    0    0  503  502  0.00000000000E+00  0.00000000000E+00  0.17154883986E+03  0.17154883986E+03  0.00000000000E+00 0.  1.
         21   -1    0    0  501  503 -0.00000000000E+00 -0.00000000000E+00 -0.32040357496E+03  0.32040357496E+03  0.00000000000E+00 0. -1.
          6    2    1    2  501    0 -0.89547591687E+02  0.73420628950E+02 -0.19027153691E+03  0.28058096042E+03  0.17062548947E+03 0.  0.
         24    2    3    3    0    0 -0.11753522128E+03  0.76505475712E+02 -0.19329381082E+03  0.25187472713E+03  0.80067251804E+02 0.  0.
         -6    2    1    2    0  502  0.89547591687E+02 -0.73420628950E+02  0.41416801811E+02  0.21137145441E+03  0.17191038460E+03 0.  0.
        -24    2    5    5    0    0  0.29162653711E+02 -0.27995763081E+01  0.70956612744E+02  0.11375811393E+03  0.83950995186E+02 0.  0.
          5    1    3    3  501    0  0.27987629592E+02 -0.30848467621E+01  0.30222739088E+01  0.28706233283E+02  0.47000000000E+01 0. -1.
        -13    1    4    4    0    0  0.26746634898E+01  0.16381008497E+02 -0.18944834196E+00  0.16599010659E+02  0.00000000000E+00 0.  1.
         14    1    4    4    0    0 -0.12020988477E+03  0.60124467215E+02 -0.19310436248E+03  0.23527571647E+03  0.00000000000E+00 0. -1.
         -5    1    5    5    0  502  0.60384937976E+02 -0.70621052642E+02 -0.29539810933E+02  0.97613340485E+02  0.47000000000E+01 0.  1.
         13    1    6    6    0    0 -0.12884615498E+02 -0.28889259469E+02  0.61584122098E+01  0.32226210919E+02  0.00000000000E+00 0. -1.
        -14    1    6    6    0    0  0.42047269209E+02  0.26089683161E+02  0.64798200534E+02  0.81531903007E+02  0.00000000000E+00 0.  1.
</event>
<event>
12    1  0.8313893E-002  0.1751219E+03  0.7818608E-02  0.1173122E+00
         21   -1    0    0  503  502  0.00000000000E+00  0.00000000000E+00  0.53249588031E+03  0.53249588031E+03  0.00000000000E+00 0. -1.
         21   -1    0    0  501  503 -0.00000000000E+00 -0.00000000000E+00 -0.90124896539E+02  0.90124896539E+02  0.00000000000E+00 0. -1.
          6    2    1    2  501    0  0.58937278585E+01  0.25767635915E+02  0.33058583011E+02  0.17821491074E+03  0.17311550309E+03 0.  0.
         24    2    3    3    0    0 -0.37767898765E+02  0.38145029045E+02 -0.17106131740E+02  0.11040542685E+03  0.94948834201E+02 0.  0.
         -6    2    1    2    0  502 -0.58937278585E+01 -0.25767635915E+02  0.40931240076E+03  0.44440586611E+03  0.17105912816E+03 0.  0.
        -24    2    5    5    0    0 -0.19732795643E+02 -0.20153618171E+02  0.41814347756E+03  0.42643046876E+03  0.78761826483E+02 0.  0.
          5    1    3    3  501    0  0.43661626624E+02 -0.12377393129E+02  0.50164714751E+02  0.67809483896E+02  0.47000000000E+01 0. -1.
        -11    1    4    4    0    0  0.28448566700E-01  0.14203685506E+02  0.37330861411E+02  0.39941691313E+02  0.00000000000E+00 0.  1.
         12    1    4    4    0    0 -0.37796347332E+02  0.23941343539E+02 -0.54436993151E+02  0.70463735534E+02  0.00000000000E+00 0. -1.
         -5    1    5    5    0  502  0.13839067785E+02 -0.56140177440E+01 -0.88310767992E+01  0.17975397348E+02  0.47000000000E+01 0.  1.
         11    1    6    6    0    0 -0.25506464155E+02  0.26335804109E+02  0.17097469188E+03  0.17486137240E+03  0.00000000000E+00 0. -1.
        -12    1    6    6    0    0  0.57736685113E+01 -0.46489422280E+02  0.24716878568E+03  0.25156909636E+03  0.00000000000E+00 0.  1.
</event>
<event>
12    1  0.8313893E-002  0.2579523E+03  0.7818608E-02  0.1108919E+00
         21   -1    0    0  501  502  0.00000000000E+00  0.00000000000E+00  0.45332040344E+03  0.45332040344E+03  0.00000000000E+00 0. -1.
         21   -1    0    0  502  503 -0.00000000000E+00 -0.00000000000E+00 -0.29381206858E+03  0.29381206858E+03  0.00000000000E+00 0. -1.
         -6    2    1    2    0  503  0.76113771193E+02 -0.17600553667E+03 -0.18602597484E+03  0.31803307332E+03  0.17253439456E+03 0.  0.
        -24    2    3    3    0    0  0.10695454386E+03 -0.13656504675E+03 -0.18849664831E+03  0.26768528558E+03  0.77686158636E+02 0.  0.
          6    2    1    2  501    0 -0.76113771193E+02  0.17600553667E+03  0.34553430971E+03  0.42909939869E+03  0.16721566812E+03 0.  0.
         24    2    5    5    0    0 -0.21166451827E+02  0.12604982244E+03  0.31630529468E+03  0.34915437627E+03  0.74317983060E+02 0.  0.
          5    1    5    5  501    0 -0.54947319366E+02  0.49955714238E+02  0.29229015028E+02  0.79945022422E+02  0.47000000000E+01 0. -1.
        -11    1    6    6    0    0  0.26931425419E+02  0.54516191214E+02  0.11278627670E+03  0.12813298167E+03  0.00000000000E+00 0.  1.
         12    1    6    6    0    0 -0.48097877246E+02  0.71533631222E+02  0.20351901797E+03  0.22102139459E+03  0.00000000000E+00 0. -1.
         -5    1    3    3    0  503 -0.30840772664E+02 -0.39440489920E+02  0.24706734676E+01  0.50347787747E+02  0.47000000000E+01 0.  1.
         11    1    4    4    0    0  0.89976060387E+02 -0.11524554983E+03 -0.10541770112E+03  0.18025015925E+03  0.00000000000E+00 0. -1.
        -12    1    4    4    0    0  0.16978483470E+02 -0.21319496921E+02 -0.83078947194E+02  0.87435126332E+02  0.00000000000E+00 0.  1.
</event>
<event>
12    1  0.8313893E-002  0.3039049E+03  0.7818608E-02  0.1083349E+00
         21   -1    0    0  503  502  0.00000000000E+00  0.00000000000E+00  0.50988629353E+03  0.50988629353E+03  0.00000000000E+00 0. -1.
         21   -1    0    0  501  503 -0.00000000000E+00 -0.00000000000E+00 -0.29869814056E+03  0.29869814056E+03  0.00000000000E+00 0. -1.
          6    2    1    2  501    0  0.11082937883E+02 -0.25005861980E+03 -0.14823863563E+03  0.33813142730E+03  0.17235435644E+03 0.  0.
         24    2    3    3    0    0 -0.14962109174E+02 -0.19424986023E+03 -0.17228581666E+03  0.27184931029E+03  0.79137677314E+02 0.  0.
         -6    2    1    2    0  502 -0.11082937883E+02  0.25005861980E+03  0.35942678861E+03  0.47045300679E+03  0.17171566725E+03 0.  0.
        -24    2    5    5    0    0 -0.47416113527E+02  0.11787839744E+03  0.26290401148E+03  0.30273166843E+03  0.79902061387E+02 0.  0.
          5    1    3    3  501    0  0.26045047057E+02 -0.55808759571E+02  0.24047181024E+02  0.66282117016E+02  0.47000000000E+01 0. -1.
        -11    1    4    4    0    0 -0.48750271483E+01  0.12858759003E+01  0.54426487795E+01  0.74190155859E+01  0.00000000000E+00 0.  1.
         12    1    4    4    0    0 -0.10087082025E+02 -0.19553573613E+03 -0.17772846544E+03  0.26443029470E+03  0.00000000000E+00 0. -1.
         -5    1    5    5    0  502  0.36333175644E+02  0.13218022237E+03  0.96522777131E+02  0.16772133836E+03  0.47000000000E+01 0.  1.
         13    1    6    6    0    0  0.17000595171E+02  0.36345921602E+02  0.39307993476E+02  0.56170851911E+02  0.00000000000E+00 0. -1.
        -14    1    6    6    0    0 -0.64416708699E+02  0.81532475833E+02  0.22359601800E+03  0.24656081652E+03  0.00000000000E+00 0.  1.
</event>
<event>
12    1  0.8313893E-002  0.1817537E+03  0.7818608E-02  0.1166356E+00
         21   -1    0    0  501  502  0.00000000000E+00  0.00000000000E+00  0.12330707660E+03  0.12330707660E+03  0.00000000000E+00 0.  1.
         21   -1    0    0  502  503 -0.00000000000E+00 -0.00000000000E+00 -0.66956589675E+03  0.66956589675E+03  0.00000000000E+00 0.  1.
         -6    2    1    2    0  503  0.26668840443E+02 -0.52116094450E+02 -0.58104087298E+03  0.60880448104E+03  0.17206709656E+03 0.  0.
        -24    2    3    3    0    0  0.56571430910E+02 -0.14868869602E+01 -0.49372898420E+03  0.50343400373E+03  0.80467065578E+02 0.  0.
          6    2    1    2  501    0 -0.26668840443E+02  0.52116094450E+02  0.34782052816E+02  0.18406849231E+03  0.17100907669E+03 0.  0.
         24    2    5    5    0    0  0.48417817580E+02  0.52041104701E+02  0.24210127498E+02  0.10809568506E+03  0.77755933645E+02 0.  0.
          5    1    5    5  501    0 -0.75086658022E+02  0.74989748989E-01  0.10571925319E+02  0.75972807250E+02  0.47000000000E+01 0. -1.
        -13    1    6    6    0    0 -0.10090051687E+02  0.35517500268E+02 -0.10108811129E+02  0.38281719277E+02  0.00000000000E+00 0.  1.
         14    1    6    6    0    0  0.58507869267E+02  0.16523604433E+02  0.34318938626E+02  0.69813965781E+02  0.00000000000E+00 0. -1.
         -5    1    3    3    0  503 -0.29902590468E+02 -0.50629207490E+02 -0.87311888771E+02  0.10537047731E+03  0.47000000000E+01 0.  1.
         13    1    4    4    0    0 -0.11717722220E+02  0.23007066142E+02 -0.12715902601E+03  0.12975379764E+03  0.00000000000E+00 0. -1.
        -14    1    4    4    0    0  0.68289153131E+02 -0.24493953103E+02 -0.36656995819E+03  0.37368020609E+03  0.00000000000E+00 0.  1.
</event>
<event>
12    1  0.8313893E-002  0.2162945E+03  0.7818608E-02  0.1136839E+00
         21   -1    0    0  503  502  0.00000000000E+00  0.00000000000E+00  0.15276004459E+03  0.15276004459E+03  0.00000000000E+00 0.  1.
         21   -1    0    0  501  503 -0.00000000000E+00 -0.00000000000E+00 -0.34806698619E+03  0.34806698619E+03  0.00000000000E+00 0.  1.
          6    2    1    2  501    0 -0.32808863265E+02 -0.12681722313E+03 -0.18586252779E+03  0.28518101100E+03  0.17211711190E+03 0.  0.
         24    2    3    3    0    0 -0.55713493471E+02 -0.31095463145E+02 -0.36558213263E+02  0.10629237034E+03  0.76750529988E+02 0.  0.
         -6    2    1    2    0  502  0.32808863265E+02  0.12681722313E+03 -0.94444138097E+01  0.21564601979E+03  0.17104087028E+03 0.  0.
        -24    2    5    5    0    0  0.82031395631E+01 -0.52948673820E+01 -0.83584274074E+01  0.81175519430E+02  0.80151572204E+02 0.  0.
          5    1    3    3  501    0  0.22904630206E+02 -0.95721759989E+02 -0.14930431452E+03  0.17888864066E+03  0.47000000000E+01 0. -1.
        -11    1    4    4    0    0 -0.70750230470E+02 -0.32524599014E+02 -0.44015543623E+02  0.89447262300E+02  0.00000000000E+00 0.  1.
         12    1    4    4    0    0  0.15036736999E+02  0.14291358689E+01  0.74573303605E+01  0.16845108044E+02  0.00000000000E+00 0. -1.
         -5    1    5    5    0  502  0.24605723702E+02  0.13211209052E+03 -0.10859864023E+01  0.13447050036E+03  0.47000000000E+01 0.  1.
         13    1    6    6    0    0 -0.32064087851E+02  0.10952348816E+02  0.79315166242E+01  0.34798974557E+02  0.00000000000E+00 0. -1.
        -14    1    6    6    0    0  0.40267227414E+02 -0.16247216198E+02 -0.16289944032E+02  0.46376544873E+02  0.00000000000E+00 0.  1.
</event>
<event>
12    1  0.8313893E-002  0.1801341E+03  0.7818608E-02  0.1167711E+00
         21   -1    0    0  501  502  0.00000000000E+00  0.00000000000E+00  0.11805014507E+03  0.11805014507E+03  0.00000000000E+00 0.  1.
         21   -1    0    0  502  503 -0.00000000000E+00 -0.00000000000E+00 -0.44228121083E+03  0.44228121083E+03  0.00000000000E+00 0.  1.
         -6    2    1    2    0  503  0.25810218838E+02 -0.47379235580E+02 -0.33456423552E+03  0.37990115022E+03  0.17169943765E+03 0.  0.
        -24    2    3    3    0    0  0.78145535718E+02 -0.43430070041E+01 -0.15385064386E+03  0.18684521383E+03  0.71522911395E+02 0.  0.
          6    2    1    2  501    0 -0.25810218838E+02  0.47379235580E+02  0.10333169762E+02  0.18043020567E+03  0.17186426435E+03 0.  0.
         24    2    5    5    0    0 -0.44645041575E+02  0.70855661338E+02  0.53800272515E+02  0.12735128203E+03  0.79436611396E+02 0.  0.
          5    1    5    5  501    0  0.18834822737E+02 -0.23476425759E+02 -0.43467102753E+02  0.53078923649E+02  0.47000000000E+01 0. -1.
        -11    1    6    6    0    0 -0.36213936722E+02  0.21967544679E+02 -0.12852207498E+02  0.44262867843E+02  0.00000000000E+00 0.  1.
         12    1    6    6    0    0 -0.84311048528E+01  0.48888116659E+02  0.66652480013E+02  0.83088414183E+02  0.00000000000E+00 0. -1.
         -5    1    3    3    0  503 -0.52335316881E+02 -0.43036228576E+02 -0.18071359166E+03  0.19305593639E+03  0.47000000000E+01 0.  1.
         13    1    4    4    0    0  0.26692578373E+02 -0.36107270882E+02 -0.75947486919E+02  0.88228394069E+02  0.00000000000E+00 0. -1.
        -14    1    4    4    0    0  0.51452957345E+02  0.31764263878E+02 -0.77903156939E+02  0.98616819764E+02  0.00000000000E+00 0.  1.
</event>
<event>
12    1  0.8313893E-002  0.1807039E+03  0.7818608E-02  0.1168133E+00
         21   -1    0    0  501  502  0.00000000000E+00  0.00000000000E+00  0.57760721932E+02  0.57760721932E+02  0.00000000000E+00 0. -1.
         21   -1    0    0  502  503 -0.00000000000E+00 -0.00000000000E+00 -0.68571453722E+03  0.68571453722E+03  0.00000000000E+00 0.  1.
         -6    2    1    2    0  503  0.47178408457E+00  0.40790222258E+02 -0.48077617477E+03  0.51361426525E+03  0.17603925252E+03 0.  0.
        -24    2    3    3    0    0 -0.50730134748E+02 -0.25887887811E+01 -0.38584437513E+03  0.39726345230E+03  0.79762900620E+02 0.  0.
          6    2    1    2  501    0 -0.47178408457E+00 -0.40790222258E+02 -0.14717764052E+03  0.22986099390E+03  0.17178694315E+03 0.  0.
         24    2    5    5    0    0 -0.82696630441E+00 -0.95948763831E+02 -0.62770849807E+02  0.12891949014E+03  0.58933913831E+02 0.  0.
          5    1    5    5  501    0  0.35518221984E+00  0.55158541573E+02 -0.84406790713E+02  0.10094150376E+03  0.47000000000E+01 0. -1.
        -13    1    6    6    0    0  0.48681503534E+01 -0.10083598227E+02 -0.37641457778E+02  0.39271582407E+02  0.00000000000E+00 0.  1.
         14    1    6    6    0    0 -0.56951166578E+01 -0.85865165603E+02 -0.25129392029E+02  0.89647907737E+02  0.00000000000E+00 0. -1.
         -5    1    3    3    0  503  0.51201918833E+02  0.43379011039E+02 -0.94931799634E+02  0.11635081294E+03  0.47000000000E+01 0.  1.
         11    1    4    4    0    0 -0.14657633229E+01  0.21438337897E+02 -0.28255543224E+02  0.35498260757E+02  0.00000000000E+00 0. -1.
        -12    1    4    4    0    0 -0.49264371425E+02 -0.24027126678E+02 -0.35758883191E+03  0.36176519155E+03  0.00000000000E+00 0.  1.
</event>
<event>
12    1  0.8313893E-002  0.2062612E+03  0.7818608E-02  0.1144912E+00
         21   -1    0    0  503  502  0.00000000000E+00  0.00000000000E+00  0.42468576084E+02  0.42468576084E+02  0.00000000000E+00 0.  1.
         21   -1    0    0  501  503 -0.00000000000E+00 -0.00000000000E+00 -0.11410875098E+04  0.11410875098E+04  0.00000000000E+00 0.  1.
          6    2    1    2  501    0 -0.10346520028E+03 -0.38152479046E+02 -0.76420361773E+03  0.79154964734E+03  0.17430724460E+03 0.  0.
         24    2    3    3    0    0 -0.79867524538E+02 -0.29907125133E+02 -0.23910585437E+03  0.26583623944E+03  0.78892578826E+02 0.  0.
         -6    2    1    2    0  502  0.10346520028E+03  0.38152479046E+02 -0.33441531602E+03  0.39200643858E+03  0.17226370766E+03 0.  0.
        -24    2    5    5    0    0  0.34212489031E+02 -0.37612311942E+02 -0.11393661065E+03  0.14875925753E+03  0.81009783601E+02 0.  0.
          5    1    3    3  501    0 -0.23597675738E+02 -0.82453539127E+01 -0.52509776336E+03  0.52571340790E+03  0.47000000000E+01 0. -1.
        -11    1    4    4    0    0 -0.68459520992E+01 -0.32549712170E+01 -0.13845718050E+03  0.13866453306E+03  0.00000000000E+00 0.  1.
         12    1    4    4    0    0 -0.73021572438E+02 -0.26652153916E+02 -0.10064867387E+03  0.12717170637E+03  0.00000000000E+00 0. -1.
         -5    1    5    5    0  502  0.69252711245E+02  0.75764790988E+02 -0.22047870537E+03  0.24324718105E+03  0.47000000000E+01 0.  1.
         13    1    6    6    0    0 -0.22837724670E+02 -0.30247300781E+02 -0.40376541718E+02  0.55378028078E+02  0.00000000000E+00 0. -1.
        -14    1    6    6    0    0  0.57050213701E+02 -0.73650111604E+01 -0.73560068930E+02  0.93381229450E+02  0.00000000000E+00 0.  1.
</event>
<event>
12    1  0.8313893E-002  0.1840629E+03  0.7818608E-02  0.1164230E+00
         21   -1    0    0  501  502  0.00000000000E+00  0.00000000000E+00  0.23119636353E+03  0.23119636353E+03  0.00000000000E+00 0. -1.
         21   -1    0    0  502  503 -0.00000000000E+00 -0.00000000000E+00 -0.18515998231E+03  0.18515998231E+03  0.00000000000E+00 0. -1.
         -6    2    1    2    0  503  0.19595706909E+02 -0.59588430437E+02 -0.73367635808E+02  0.19695609637E+03  0.17168028758E+03 0.  0.
        -24    2    3    3    0    0 -0.18087335528E+02 -0.47784106897E+02  0.18941145019E+02  0.96445625480E+02  0.79577126872E+02 0.  0.
          6    2    1    2  501    0 -0.19595706909E+02  0.59588430437E+02  0.11940401703E+03  0.21940024946E+03  0.17304443767E+03 0.  0.
         24    2    5    5    0    0 -0.43301135276E+02  0.28554416788E+02  0.14115032629E+03  0.17445529086E+03  0.88435800804E+02 0.  0.
          5    1    5    5  501    0  0.23705428367E+02  0.31034013649E+02 -0.21746309259E+02  0.44944958600E+02  0.47000000000E+01 0. -1.
        -13    1    6    6    0    0 -0.36915355388E+02  0.30632410937E+01  0.69278676694E+01  0.37684509548E+02  0.00000000000E+00 0.  1.
         14    1    6    6    0    0 -0.63857798877E+01  0.25491175694E+02  0.13422245862E+03  0.13677078132E+03  0.00000000000E+00 0. -1.
         -5    1    3    3    0  503  0.37683042437E+02 -0.11804323540E+02 -0.92308780826E+02  0.10051047089E+03  0.47000000000E+01 0.  1.
         11    1    4    4    0    0 -0.45856844990E+02 -0.95638728562E+01  0.45756688262E+01  0.47066491708E+02  0.00000000000E+00 0. -1.
        -12    1    4    4    0    0  0.27769509462E+02 -0.38220234040E+02  0.14365476192E+02  0.49379133772E+02  0.00000000000E+00 0.  1.
</event>
<event>
12    1  0.8313893E-002  0.1936742E+03  0.7818608E-02  0.1155328E+00
         21   -1    0    0  503  502  0.00000000000E+00  0.00000000000E+00  0.47062972307E+03  0.47062972307E+03  0.00000000000E+00 0. -1.
         21   -1    0    0  501  503 -0.00000000000E+00 -0.00000000000E+00 -0.84108529120E+02  0.84108529120E+02  0.00000000000E+00 0. -1.
          6    2    1    2  501    0 -0.65535378532E+02  0.63145954333E+02  0.12821882415E+03  0.23227084286E+03  0.17096017136E+03 0.  0.
         24    2    3    3    0    0 -0.50852066065E+02  0.78559321516E+02  0.15265937256E+03  0.19952024043E+03  0.88011037333E+02 0.  0.
         -6    2    1    2    0  502  0.65535378532E+02 -0.63145954333E+02  0.25830236980E+03  0.32246740932E+03  0.17024340940E+03 0.  0.
        -24    2    5    5    0    0  0.74973492157E+02 -0.89430036242E+02  0.25862796651E+03  0.29414556327E+03  0.77552765388E+02 0.  0.
          5    1    3    3  501    0 -0.14683312467E+02 -0.15413367183E+02 -0.24440548412E+02  0.32750602431E+02  0.47000000000E+01 0. -1.
        -11    1    4    4    0    0 -0.74831392728E+02  0.63823990675E+02  0.10283751806E+03  0.14229825805E+03  0.00000000000E+00 0.  1.
         12    1    4    4    0    0  0.23979326663E+02  0.14735330841E+02  0.49821854498E+02  0.57221982383E+02  0.00000000000E+00 0. -1.
         -5    1    5    5    0  502 -0.94381136256E+01  0.26284081909E+02 -0.32559671512E+00  0.28321846053E+02  0.47000000000E+01 0.  1.
         13    1    6    6    0    0  0.77708552841E+02 -0.44114687349E+02  0.20659772162E+03  0.22509407678E+03  0.00000000000E+00 0. -1.
        -14    1    6    6    0    0 -0.27350606832E+01 -0.45315348893E+02  0.52030244898E+02  0.69051486489E+02  0.00000000000E+00 0.  1.
</event>
<event>
12    1  0.8313893E-002  0.2484394E+03  0.7818608E-02  0.1114883E+00
         21   -1    0    0  501  502  0.00000000000E+00  0.00000000000E+00  0.26796513172E+03  0.26796513172E+03  0.00000000000E+00 0. -1.
         21   -1    0    0  502  503 -0.00000000000E+00 -0.00000000000E+00 -0.30725719423E+03  0.30725719423E+03  0.00000000000E+00 0. -1.
         -6    2    1    2    0  503  0.15730411239E+03 -0.73365944329E+02 -0.16678354172E+03  0.29923047427E+03  0.17774977181E+03 0.  0.
        -24    2    3    3    0    0  0.10115568961E+03 -0.76326896018E+02 -0.36460892960E+02  0.15721816707E+03  0.85614757743E+02 0.  0.
          6    2    1    2  501    0 -0.15730411239E+03  0.73365944329E+02  0.12749147922E+03  0.27599185167E+03  0.17259860763E+03 0.  0.
         24    2    5    5    0    0 -0.97426370039E+02  0.63505030388E+02  0.15554137420E+03  0.20897343434E+03  0.77149145874E+02 0.  0.
          5    1    5    5  501    0 -0.59877742353E+02  0.98609139411E+01 -0.28049894985E+02  0.67018417333E+02  0.47000000000E+01 0. -1.
        -11    1    6    6    0    0 -0.13906958250E+02  0.42082775693E+02  0.20688646860E+02  0.48911998597E+02  0.00000000000E+00 0.  1.
         12    1    6    6    0    0 -0.83519411788E+02  0.21422254694E+02  0.13485272734E+03  0.16006143575E+03  0.00000000000E+00 0. -1.
         -5    1    3    3    0  503  0.56148422778E+02  0.29609516890E+01 -0.13032264876E+03  0.14201230720E+03  0.47000000000E+01 0.  1.
         11    1    4    4    0    0 -0.11295071619E+02  0.37160845289E+01 -0.12268005910E+02  0.17084844047E+02  0.00000000000E+00 0. -1.
        -12    1    4    4    0    0  0.11245076123E+03 -0.80042980547E+02 -0.24192887050E+02  0.14013332302E+03  0.00000000000E+00 0.  1.
</event>
<event>
12    1  0.8313893E-002  0.1919250E+03  0.7818608E-02  0.1156889E+00
         21   -1    0    0  501  502  0.00000000000E+00  0.00000000000E+00  0.46621869814E+02  0.46621869814E+02  0.00000000000E+00 0.  1.
         21   -1    0    0  502  503 -0.00000000000E+00 -0.00000000000E+00 -0.80771107247E+03  0.80771107247E+03  0.00000000000E+00 0.  1.
         -6    2    1    2    0  503 -0.52659549709E+02  0.66660808119E+02 -0.44783772627E+03  0.48696160644E+03  0.17133676068E+03 0.  0.
        -24    2    3    3    0    0 -0.27734819799E+02  0.46159495223E+02 -0.10459405542E+03  0.14217202775E+03  0.79831383665E+02 0.  0.
          6    2    1    2  501    0  0.52659549709E+02 -0.66660808119E+02 -0.31325147639E+03  0.36737133584E+03  0.17210031792E+03 0.  0.
         24    2    5    5    0    0  0.89985676986E+02 -0.24987887756E+02 -0.26862090988E+03  0.29565070049E+03  0.80810437921E+02 0.  0.
          5    1    5    5  501    0 -0.37326127278E+02 -0.41672920363E+02 -0.44630566501E+02  0.71720635352E+02  0.47000000000E+01 0. -1.
        -13    1    6    6    0    0  0.46240894743E+02 -0.32832085326E+02 -0.60850279239E+02  0.83180061655E+02  0.00000000000E+00 0.  1.
         14    1    6    6    0    0  0.43744782243E+02  0.78441975693E+01 -0.20777063064E+03  0.21247063884E+03  0.00000000000E+00 0. -1.
         -5    1    3    3    0  503 -0.24924729910E+02  0.20501312897E+02 -0.34324367085E+03  0.34478957869E+03  0.47000000000E+01 0.  1.
         13    1    4    4    0    0  0.22866235065E+01 -0.11649656798E+02 -0.64714078880E+02  0.65794035869E+02  0.00000000000E+00 0. -1.
        -14    1    4    4    0    0 -0.30021443306E+02  0.57809152021E+02 -0.39879976539E+02  0.76377991885E+02  0.00000000000E+00 0.  1.
</event>
<event>
12    1  0.8313893E-002  0.1908086E+03  0.7818608E-02  0.1162211E+00
         21   -1    0    0  501  502  0.00000000000E+00  0.00000000000E+00  0.69488188752E+03  0.69488188752E+03  0.00000000000E+00 0.  1.
         21   -1    0    0  502  503 -0.00000000000E+00 -0.00000000000E+00 -0.71726842783E+02  0.71726842783E+02  0.00000000000E+00 0. -1.
         -6    2    1    2    0  503 -0.13643822132E+02 -0.75120635872E+02  0.54559909066E+03  0.57800198428E+03  0.17486755641E+03 0.  0.
        -24    2    3    3    0    0  0.49936753968E+02 -0.86902204421E+02  0.36403952695E+03  0.38521386174E+03  0.76284137081E+02 0.  0.
          6    2    1    2  501    0  0.13643822132E+02  0.75120635872E+02  0.77555954075E+02  0.18860674602E+03  0.15403997798E+03 0.  0.
         24    2    5    5    0    0  0.54179267141E+02  0.19609717446E+02  0.77201831110E+02  0.11970972308E+03  0.71065892438E+02 0.  0.
          5    1    5    5  501    0 -0.40535445009E+02  0.55510918426E+02  0.35412296443E+00  0.68897022938E+02  0.47000000000E+01 0. -1.
        -11    1    6    6    0    0 -0.10740230275E+02 -0.97278134112E+01  0.32556359817E+02  0.35635648790E+02  0.00000000000E+00 0.  1.
         12    1    6    6    0    0  0.64919497416E+02  0.29337530857E+02  0.44645471293E+02  0.84074074295E+02  0.00000000000E+00 0. -1.
         -5    1    3    3    0  503 -0.63580576100E+02  0.11781568549E+02  0.18155956372E+03  0.19278812254E+03  0.47000000000E+01 0.  1.
         11    1    4    4    0    0 -0.44433672115E+01 -0.49874191689E+02  0.86164965016E+02  0.99657311347E+02  0.00000000000E+00 0. -1.
        -12    1    4    4    0    0  0.54380121179E+02 -0.37028012733E+02  0.27787456193E+03  0.28555655040E+03  0.00000000000E+00 0.  1.
</event>
<event>
12    1  0.8313893E-002  0.2178723E+03  0.7818608E-02  0.1136048E+00
         21   -1    0    0  503  502  0.00000000000E+00  0.00000000000E+00  0.45390540927E+02  0.45390540927E+02  0.00000000000E+00 0.  1.
         21   -1    0    0  501  503 -0.00000000000E+00 -0.00000000000E+00 -0.12318059449E+04  0.12318059449E+04  0.00000000000E+00 0.  1.
          6    2    1    2  501    0  0.12674538404E+03  0.11398850831E+01 -0.84730431414E+03  0.87412742770E+03  0.17351791664E+03 0.  0.
         24    2    3    3    0    0  0.14861375011E+03 -0.24603783274E+02 -0.57293011353E+03  0.59764188766E+03  0.78965296311E+02 0.  0.
         -6    2    1    2    0  502 -0.12674538404E+03 -0.11398850831E+01 -0.33911108979E+03  0.40306905808E+03  0.17720790797E+03 0.  0.
        -24    2    5    5    0    0 -0.33103462663E+02  0.25573884046E+02 -0.26827116279E+03  0.28255839400E+03  0.78230214418E+02 0.  0.
          5    1    3    3  501    0 -0.21868366074E+02  0.25743668357E+02 -0.27437420060E+03  0.27648554004E+03  0.47000000000E+01 0. -1.
        -11    1    4    4    0    0  0.51411146230E+02 -0.29683492150E+02 -0.34078093872E+03  0.34591308714E+03  0.00000000000E+00 0.  1.
         12    1    4    4    0    0  0.97202603882E+02  0.50797088761E+01 -0.23214917481E+03  0.25172880052E+03  0.00000000000E+00 0. -1.
         -5    1    5    5    0  502 -0.93641921374E+02 -0.26713769129E+02 -0.70839927000E+02  0.12051066408E+03  0.47000000000E+01 0.  1.
         13    1    6    6    0    0 -0.54016588582E+02  0.16301750464E+02 -0.23810619678E+03  0.24470002014E+03  0.00000000000E+00 0. -1.
        -14    1    6    6    0    0  0.20913125919E+02  0.92721335816E+01 -0.30164966010E+02  0.37858373859E+02  0.00000000000E+00 0.  1.
</event>
<event>
12    1  0.8313893E-002  0.2185134E+03  0.7818608E-02  0.1135072E+00
         21   -1    0    0  503  502  0.00000000000E+00  0.00000000000E+00  0.17853936585E+03  0.17853936585E+03  0.00000000000E+00 0. -1.
         21   -1    0    0  501  503 -0.00000000000E+00 -0.00000000000E+00 -0.26698473662E+03  0.26698473662E+03  0.00000000000E+00 0. -1.
          6    2    1    2  501    0 -0.50058797407E+02 -0.12513056163E+03 -0.41441470238E+02  0.22240838716E+03  0.17200161213E+03 0.  0.
         24    2    3    3    0    0  0.31855789458E+02 -0.98936244717E+02 -0.11938213065E+02  0.13136623229E+03  0.79444283713E+02 0.  0.
         -6    2    1    2    0  502  0.50058797407E+02  0.12513056163E+03 -0.47003900540E+02  0.22311571531E+03  0.17148677821E+03 0.  0.
        -24    2    5    5    0    0  0.66279133938E+02  0.14995376370E+03 -0.56925384003E+02  0.19149584003E+03  0.80938881654E+02 0.  0.
          5    1    3    3  501    0 -0.81914586865E+02 -0.26194316910E+02 -0.29503257173E+02  0.91042154870E+02  0.47000000000E+01 0. -1.
        -11    1    4    4    0    0  0.40489807165E+02 -0.51146699903E+02  0.25507106344E+02  0.70043000145E+02  0.00000000000E+00 0.  1.
         12    1    4    4    0    0 -0.86340177069E+01 -0.47789544814E+02 -0.37445319410E+02  0.61323232147E+02  0.00000000000E+00 0. -1.
         -5    1    5    5    0  502 -0.16220336531E+02 -0.24823202070E+02  0.99214834638E+01  0.31619875273E+02  0.47000000000E+01 0.  1.
         11    1    6    6    0    0  0.44092590609E+02  0.14134976367E+03 -0.70613700096E+02  0.16404330793E+03  0.00000000000E+00 0. -1.
        -12    1    6    6    0    0  0.22186543329E+02  0.86040000308E+01  0.13688316093E+02  0.27452532103E+02  0.00000000000E+00 0.  1.
</event>
<event>
12    1  0.8313893E-002  0.1890216E+03  0.7818608E-02  0.1159982E+00
         21   -1    0    0  501  502  0.00000000000E+00  0.00000000000E+00  0.28127815017E+03  0.28127815017E+03  0.00000000000E+00 0.  1.
         21   -1    0    0  502  503 -0.00000000000E+00 -0.00000000000E+00 -0.13845185434E+03  0.13845185434E+03  0.00000000000E+00 0.  1.
         -6    2    1    2    0  503  0.55946131208E+02 -0.46134093321E+02  0.13594761760E+03  0.23058331217E+03  0.17154761716E+03 0.  0.
        -24    2    3    3    0    0  0.10185179328E+03 -0.17002671677E+02  0.10312114405E+03  0.16689942956E+03  0.80985002315E+02 0.  0.
          6    2    1    2  501    0 -0.55946131208E+02  0.46134093321E+02  0.68786782303E+01  0.18914669235E+03  0.17455896095E+03 0.  0.
         24    2    5    5    0    0 -0.77907719501E+02  0.87673542440E+02  0.37316432357E+01  0.14181983926E+03  0.79640936998E+02 0.  0.
          5    1    5    5  501    0  0.21961588293E+02 -0.41539449119E+02  0.31470349946E+01  0.47326853082E+02  0.47000000000E+01 0. -1.
        -11    1    6    6    0    0 -0.43412138930E+01  0.35704380162E+02  0.31241537202E+02  0.47641185413E+02  0.00000000000E+00 0.  1.
         12    1    6    6    0    0 -0.73566505608E+02  0.51969162278E+02 -0.27509893966E+02  0.94178653851E+02  0.00000000000E+00 0. -1.
         -5    1    3    3    0  503 -0.45905662074E+02 -0.29131421644E+02  0.32826473555E+02  0.63683882604E+02  0.47000000000E+01 0.  1.
         11    1    4    4    0    0  0.16519273727E+02 -0.25582725518E+02 -0.28343826059E+01  0.30584243887E+02  0.00000000000E+00 0. -1.
        -12    1    4    4    0    0  0.85332519555E+02  0.85800538413E+01  0.10595552665E+03  0.13631518568E+03  0.00000000000E+00 0.  1.
</event>
<event>
12    1  0.8313893E-002  0.1790653E+03  0.7818608E-02  0.1169328E+00
         21   -1    0    0  503  502  0.00000000000E+00  0.00000000000E+00  0.23074104742E+03  0.23074104742E+03  0.00000000000E+00 0. -1.
         21   -1    0    0  501  503 -0.00000000000E+00 -0.00000000000E+00 -0.22848267035E+03  0.22848267035E+03  0.00000000000E+00 0. -1.
          6    2    1    2  501    0 -0.25737314044E+02  0.38954020228E+02 -0.14414988031E+03  0.22792354531E+03  0.17026488037E+03 0.  0.
         24    2    3    3    0    0 -0.52189870603E+02  0.15575035697E+02 -0.16175651489E+03  0.18819448482E+03  0.79281963134E+02 0.  0.
         -6    2    1    2    0  502  0.25737314044E+02 -0.38954020228E+02  0.14640825738E+03  0.23130017246E+03  0.17287153301E+03 0.  0.
        -24    2    5    5    0    0  0.29189048630E+02 -0.48330660715E+02  0.11253524887E+02  0.95695129877E+02  0.76439928930E+02 0.  0.
          5    1    3    3  501    0  0.26452556560E+02  0.23378984531E+02  0.17606634578E+02  0.39729060490E+02  0.47000000000E+01 0. -1.
        -11    1    4    4    0    0 -0.55357856468E+02  0.31045165345E+02 -0.67610601392E+02  0.92733424312E+02  0.00000000000E+00 0.  1.
         12    1    4    4    0    0  0.31679858645E+01 -0.15470129648E+02 -0.94145913496E+02  0.95461060510E+02  0.00000000000E+00 0. -1.
         -5    1    5    5    0  502 -0.34517345866E+01  0.93766404866E+01  0.13515473249E+03  0.13560504258E+03  0.47000000000E+01 0.  1.
         13    1    6    6    0    0 -0.81999937993E+01 -0.33372215349E+01  0.32324757479E+02  0.33515174056E+02  0.00000000000E+00 0. -1.
        -14    1    6    6    0    0  0.37389042430E+02 -0.44993439180E+02 -0.21071232592E+02  0.62179955822E+02  0.00000000000E+00 0.  1.
</event>
<event>
12    1  0.8313893E-002  0.1844104E+03  0.7818608E-02  0.1163742E+00
         21   -1    0    0  501  502  0.00000000000E+00  0.00000000000E+00  0.36554166798E+02  0.36554166798E+02  0.00000000000E+00 0.  1.
         21   -1    0    0  502  503 -0.00000000000E+00 -0.00000000000E+00 -0.10221261714E+04  0.10221261714E+04  0.00000000000E+00 0.  1.
         -6    2    1    2    0  503 -0.44799260849E+02 -0.50821470276E+02 -0.65472543121E+03  0.68020039727E+03  0.17151499804E+03 0.  0.
        -24    2    3    3    0    0 -0.74418372802E+02 -0.87308654624E+02 -0.47327988837E+03  0.49270858030E+03  0.74879883666E+02 0.  0.
          6    2    1    2  501    0  0.44799260849E+02  0.50821470276E+02 -0.33084657341E+03  0.37847994095E+03  0.17087368127E+03 0.  0.
         24    2    5    5    0    0  0.76880252445E+02  0.72491102455E+02 -0.29775110177E+03  0.32733149793E+03  0.85584214544E+02 0.  0.
          5    1    5    5  501    0 -0.32080991596E+02 -0.21669632178E+02 -0.33095471642E+02  0.51148443024E+02  0.47000000000E+01 0. -1.
        -11    1    6    6    0    0 -0.11876394542E+02  0.24711948511E+02 -0.27234579699E+02  0.38645199934E+02  0.00000000000E+00 0.  1.
         12    1    6    6    0    0  0.88756646987E+02  0.47779153943E+02 -0.27051652207E+03  0.28868629799E+03  0.00000000000E+00 0. -1.
         -5    1    3    3    0  503  0.29619111953E+02  0.36487184348E+02 -0.18144554284E+03  0.18749181697E+03  0.47000000000E+01 0.  1.
         11    1    4    4    0    0 -0.50619041173E+02 -0.66548454325E+01 -0.21949612493E+03  0.22535554832E+03  0.00000000000E+00 0. -1.
        -12    1    4    4    0    0 -0.23799331629E+02 -0.80653809192E+02 -0.25378376344E+03  0.26735303198E+03  0.00000000000E+00 0.  1.
</event>
<event>
12    1  0.8313893E-002  0.1857397E+03  0.7818608E-02  0.1162532E+00
         21   -1    0    0  501  502  0.00000000000E+00  0.00000000000E+00  0.15357972644E+04  0.15357972644E+04  0.00000000000E+00 0. -1.
         21   -1    0    0  502  503 -0.00000000000E+00 -0.00000000000E+00 -0.51465104797E+02  0.51465104797E+02  0.00000000000E+00 0. -1.
         -6    2    1    2    0  503  0.63265438635E+02 -0.29070029451E+02  0.14485015537E+03  0.23496385670E+03  0.17140263740E+03 0.  0.
        -24    2    3    3    0    0  0.33198136179E+01  0.51540006917E+02  0.88380858538E+02  0.11962814061E+03  0.61905754127E+02 0.  0.
          6    2    1    2  501    0 -0.63265438635E+02  0.29070029451E+02  0.13394820042E+04  0.13522985125E+04  0.17219652986E+03 0.  0.
         24    2    5    5    0    0  0.25109448584E+02  0.21969945239E+02  0.88214032399E+03  0.88641866278E+03  0.80332631014E+02 0.  0.
          5    1    5    5  501    0 -0.88374887220E+02  0.71000842123E+01  0.45734168021E+03  0.46587984968E+03  0.47000000000E+01 0. -1.
        -11    1    6    6    0    0  0.16218172724E+02  0.24981251458E+02  0.10295015357E+03  0.10717194675E+03  0.00000000000E+00 0.  1.
         12    1    6    6    0    0  0.88912758606E+01 -0.30113062191E+01  0.77919017042E+03  0.77924671603E+03  0.00000000000E+00 0. -1.
         -5    1    3    3    0  503  0.59945625018E+02 -0.80610036368E+02  0.56469296832E+02  0.11533571609E+03  0.47000000000E+01 0.  1.
         11    1    4    4    0    0 -0.16139336590E+02  0.52842599847E+01 -0.11195914777E+01  0.17019255983E+02  0.00000000000E+00 0. -1.
        -12    1    4    4    0    0  0.19459150207E+02  0.46255746932E+02  0.89500450016E+02  0.10260888463E+03  0.00000000000E+00 0.  1.
</event>
<event>
12    1  0.8313893E-002  0.2595345E+03  0.7818608E-02  0.1108013E+00
         21   -1    0    0  501  502  0.00000000000E+00  0.00000000000E+00  0.15955589528E+03  0.15955589528E+03  0.00000000000E+00 0. -1.
         21   -1    0    0  502  503 -0.00000000000E+00 -0.00000000000E+00 -0.49584822221E+03  0.49584822221E+03  0.00000000000E+00 0. -1.
         -6    2    1    2    0  503 -0.17226836254E+03  0.80641325081E+02 -0.30081976321E+03  0.39730429715E+03  0.17657509042E+03 0.  0.
        -24    2    3    3    0    0 -0.15675597286E+03  0.36712335498E+02 -0.29628718764E+03  0.35026150173E+03  0.94745930951E+02 0.  0.
          6    2    1    2  501    0  0.17226836254E+03 -0.80641325081E+02 -0.35472563730E+02  0.25809982034E+03  0.17081511186E+03 0.  0.
         24    2    5    5    0    0  0.13241126329E+03 -0.14723357182E+02 -0.74365260128E+02  0.17167934426E+03  0.78702512280E+02 0.  0.
          5    1    5    5  501    0  0.39857099243E+02 -0.65917967899E+02  0.38892696398E+02  0.86420476075E+02  0.47000000000E+01 0. -1.
        -13    1    6    6    0    0  0.11518455947E+03 -0.38939402839E+02 -0.73232927521E+02  0.14193949946E+03  0.00000000000E+00 0.  1.
         14    1    6    6    0    0  0.17226703828E+02  0.24216045657E+02 -0.11323326071E+01  0.29739844807E+02  0.00000000000E+00 0. -1.
         -5    1    3    3    0  503 -0.15512389675E+02  0.43928989584E+02 -0.45325755646E+01  0.47042795415E+02  0.47000000000E+01 0.  1.
         11    1    4    4    0    0 -0.41072948444E+02  0.34016851920E+02 -0.33119949780E+02  0.62777897240E+02  0.00000000000E+00 0. -1.
        -12    1    4    4    0    0 -0.11568302442E+03  0.26954835775E+01 -0.26316723786E+03  0.28748360449E+03  0.00000000000E+00 0.  1.
</event>
<event>
12    1  0.8313893E-002  0.1914244E+03  0.7818608E-02  0.1157289E+00
         21   -1    0    0  503  502  0.00000000000E+00  0.00000000000E+00  0.24705194749E+03  0.24705194749E+03  0.00000000000E+00 0.  1.
         21   -1    0    0  501  503 -0.00000000000E+00 -0.00000000000E+00 -0.50751467109E+03  0.50751467109E+03  0.00000000000E+00 0.  1.
          6    2    1    2  501    0 -0.12190069889E+02 -0.83439471532E+02 -0.44784009396E+03  0.48703596638E+03  0.17185034063E+03 0.  0.
         24    2    3    3    0    0 -0.38773534242E+02 -0.20644111700E+02 -0.38019578199E+03  0.39087058417E+03  0.79381450097E+02 0.  0.
         -6    2    1    2    0  502  0.12190069889E+02  0.83439471532E+02  0.18737737036E+03  0.26753065220E+03  0.17132316752E+03 0.  0.
        -24    2    5    5    0    0  0.37876199358E+02  0.35626458401E+02  0.27935602394E+02  0.99038430290E+02  0.79525856029E+02 0.  0.
          5    1    3    3  501    0  0.26583464354E+02 -0.62795359832E+02 -0.67644311969E+02  0.96165382208E+02  0.47000000000E+01 0. -1.
        -11    1    4    4    0    0 -0.56283404901E+02  0.11620886225E+01 -0.17640640865E+03  0.18517125352E+03  0.00000000000E+00 0.  1.
         12    1    4    4    0    0  0.17509870659E+02 -0.21806200323E+02 -0.20378937334E+03  0.20569933065E+03  0.00000000000E+00 0. -1.
         -5    1    5    5    0  502 -0.25686129469E+02  0.47813013131E+02  0.15944176796E+03  0.16849222191E+03  0.47000000000E+01 0.  1.
         11    1    6    6    0    0 -0.16165814341E+02  0.36431707134E+02  0.19373928729E+02  0.44316497520E+02  0.00000000000E+00 0. -1.
        -12    1    6    6    0    0  0.54042013699E+02 -0.80524873310E+00  0.85616736648E+01  0.54721932770E+02  0.00000000000E+00 0.  1.
</event>
<event>
12    1  0.8313893E-002  0.2069510E+03  0.7818608E-02  0.1146367E+00
         21   -1    0    0  503  502  0.00000000000E+00  0.00000000000E+00  0.36872916975E+03  0.36872916975E+03  0.00000000000E+00 0. -1.
         21   -1    0    0  501  503 -0.00000000000E+00 -0.00000000000E+00 -0.11396326003E+03  0.11396326003E+03  0.00000000000E+00 0.  1.
          6    2    1    2  501    0 -0.76963138481E+02  0.48270632176E+02  0.16968463731E+03  0.25893465727E+03  0.17320768454E+03 0.  0.
         24    2    3    3    0    0  0.13436850809E+02 -0.25490336928E+01  0.11838912603E+03  0.14314123786E+03  0.79286709359E+02 0.  0.
         -6    2    1    2    0  502  0.76963138481E+02 -0.48270632176E+02  0.85081272416E+02  0.22375777251E+03  0.18594445199E+03 0.  0.
        -24    2    5    5    0    0  0.85312542540E+01 -0.64357911297E+02  0.10470868912E+03  0.15062058077E+03  0.86648293286E+02 0.  0.
          5    1    3    3  501    0 -0.90399989289E+02  0.50819665868E+02  0.51295511281E+02  0.11579341942E+03  0.47000000000E+01 0. -1.
        -13    1    4    4    0    0 -0.41377592944E+01  0.30364834574E+02  0.16869031165E+02  0.34981544321E+02  0.00000000000E+00 0.  1.
         14    1    4    4    0    0  0.17574610103E+02 -0.32913868267E+02  0.10152009486E+03  0.10815969354E+03  0.00000000000E+00 0. -1.
         -5    1    5    5    0  502  0.68431884227E+02  0.16087279122E+02 -0.19627416703E+02  0.73137191735E+02  0.47000000000E+01 0.  1.
         13    1    6    6    0    0 -0.49097369666E+01  0.16404519303E+01  0.77989675737E+02  0.78161282750E+02  0.00000000000E+00 0. -1.
        -14    1    6    6    0    0  0.13440991221E+02 -0.65998363228E+02  0.26719013383E+02  0.72459298022E+02  0.00000000000E+00 0.  1.
</event>
<event>
12    1  0.8313893E-002  0.2896116E+03  0.7818608E-02  0.1090602E+00
         21   -1    0    0  503  502  0.00000000000E+00  0.00000000000E+00  0.16581635761E+04  0.16581635761E+04  0.00000000000E+00 0.  1.
         21   -1    0    0  501  503 -0.00000000000E+00 -0.00000000000E+00 -0.63176297241E+02  0.63176297241E+02  0.00000000000E+00 0. -1.
          6    2    1    2  501    0 -0.17047409553E+03  0.15818474574E+03  0.41179279256E+03  0.50321669163E+03  0.17195901747E+03 0.  0.
         24    2    3    3    0    0 -0.18041763995E+02  0.66821794756E+02  0.19946160375E+03  0.22628812998E+03  0.81429287718E+02 0.  0.
         -6    2    1    2    0  502  0.17047409553E+03 -0.15818474574E+03  0.11831944863E+04  0.12181231817E+04  0.17260087600E+03 0.  0.
        -24    2    5    5    0    0  0.14518821894E+03 -0.10987385364E+03  0.59550592492E+03  0.62789165678E+03  0.80428498741E+02 0.  0.
          5    1    3    3  501    0 -0.15243233154E+03  0.91362950988E+02  0.21233118882E+03  0.27692856165E+03  0.47000000000E+01 0. -1.
        -11    1    4    4    0    0 -0.36653813308E+02  0.62636775249E+02  0.19292337074E+03  0.20612203817E+03  0.00000000000E+00 0.  1.
         12    1    4    4    0    0  0.18612049313E+02  0.41850195070E+01  0.65382330083E+01  0.20166091807E+02  0.00000000000E+00 0. -1.
         -5    1    5    5    0  502  0.25285876590E+02 -0.48310892108E+02  0.58768856138E+03  0.59023152494E+03  0.47000000000E+01 0.  1.
         13    1    6    6    0    0  0.34375317949E+02  0.72293870109E+01  0.71816922690E+02  0.79947463407E+02  0.00000000000E+00 0. -1.
        -14    1    6    6    0    0  0.11081290099E+03 -0.11710324065E+03  0.52368900223E+03  0.54794419337E+03  0.00000000000E+00 0.  1.
</event>
<event>
12    1  0.8313893E-002  0.3693612E+03  0.7818608E-02  0.1055032E+00
         21   -1    0    0  503  502  0.00000000000E+00  0.00000000000E+00  0.11892956602E+03  0.11892956602E+03  0.00000000000E+00 0.  1.
         21   -1    0    0  501  503 -0.00000000000E+00 -0.00000000000E+00 -0.12109933306E+04  0.12109933306E+04  0.00000000000E+00 0.  1.
          6    2    1    2  501    0 -0.39391554165E+02  0.32356289606E+03 -0.39039540770E+03  0.53743489364E+03  0.17373269208E+03 0.  0.
         24    2    3    3    0    0  0.80613968559E+01  0.74665806970E+02 -0.70509691696E+02  0.12932889659E+03  0.78194488434E+02 0.  0.
         -6    2    1    2    0  502  0.39391554165E+02 -0.32356289606E+03 -0.70166835685E+03  0.79248800296E+03  0.17162199622E+03 0.  0.
        -24    2    5    5    0    0 -0.10319803320E+02 -0.82520710230E+02 -0.29773548101E+03  0.31945902648E+03  0.80569764708E+02 0.  0.
          5    1    3    3  501    0 -0.47452951021E+02  0.24889708909E+03 -0.31988571601E+03  0.40810599704E+03  0.47000000000E+01 0. -1.
        -11    1    4    4    0    0 -0.27701454469E+02  0.57844719201E+02 -0.61363835772E+02  0.88763181893E+02  0.00000000000E+00 0.  1.
         12    1    4    4    0    0  0.35762851325E+02  0.16821087769E+02 -0.91458559242E+01  0.40565714701E+02  0.00000000000E+00 0. -1.
         -5    1    5    5    0  502  0.49711357485E+02 -0.24104218583E+03 -0.40393287583E+03  0.47302897648E+03  0.47000000000E+01 0.  1.
         13    1    6    6    0    0 -0.37924167790E+02 -0.55259377837E+02 -0.11913267939E+03  0.13669102619E+03  0.00000000000E+00 0. -1.
        -14    1    6    6    0    0  0.27604364470E+02 -0.27261332393E+02 -0.17860280162E+03  0.18276800029E+03  0.00000000000E+00 0.  1.
</event>
<event>
12    1  0.8313893E-002  0.1842124E+03  0.7818608E-02  0.1164174E+00
         21   -1    0    0  501  502  0.00000000000E+00  0.00000000000E+00  0.15487779421E+03  0.15487779421E+03  0.00000000000E+00 0. -1.
         21   -1    0    0  502  503 -0.00000000000E+00 -0.00000000000E+00 -0.36571696370E+03  0.36571696370E+03  0.00000000000E+00 0. -1.
         -6    2    1    2    0  503 -0.35893760175E+02  0.49675632544E+02 -0.27103910079E+03  0.32679529088E+03  0.17197946823E+03 0.  0.
        -24    2    3    3    0    0  0.13768705901E+02  0.86716451702E+02 -0.19693565390E+03  0.23009061849E+03  0.80303926926E+02 0.  0.
          6    2    1    2  501    0  0.35893760175E+02 -0.49675632544E+02  0.60199931308E+02  0.19379946704E+03  0.17371865532E+03 0.  0.
         24    2    5    5    0    0  0.12544869282E+02 -0.71845298816E+02 -0.18129337856E+02  0.10898066478E+03  0.78923961493E+02 0.  0.
          5    1    5    5  501    0  0.23348890893E+02  0.22169666272E+02  0.78329269163E+02  0.84818802256E+02  0.47000000000E+01 0. -1.
        -13    1    6    6    0    0  0.35525881101E+02 -0.13095919836E+02 -0.25228895016E+02  0.45498225109E+02  0.00000000000E+00 0.  1.
         14    1    6    6    0    0 -0.22981011819E+02 -0.58749378980E+02  0.70995571599E+01  0.63482439672E+02  0.00000000000E+00 0. -1.
         -5    1    3    3    0  503 -0.49662466077E+02 -0.37040819158E+02 -0.74103446891E+02  0.96704672389E+02  0.47000000000E+01 0.  1.
         11    1    4    4    0    0 -0.12623755202E+02  0.53131645771E+02 -0.17237446778E+03  0.18081838436E+03  0.00000000000E+00 0. -1.
        -12    1    4    4    0    0  0.26392461103E+02  0.33584805932E+02 -0.24561186117E+02  0.49272234129E+02  0.00000000000E+00 0.  1.
</event>
<event>
12    1  0.8313893E-002  0.1862219E+03  0.7818608E-02  0.1161942E+00
         21   -1    0    0  501  502  0.00000000000E+00  0.00000000000E+00  0.10826337947E+04  0.10826337947E+04  0.00000000000E+00 0.  1.
         21   -1    0    0  502  503 -0.00000000000E+00 -0.00000000000E+00 -0.36971990029E+02  0.36971990029E+02  0.00000000000E+00 0.  1.
         -6    2    1    2    0  503  0.67646268022E+02  0.23085412260E+02  0.31791163689E+03  0.36843780345E+03  0.17195828654E+03 0.  0.
        -24    2    3    3    0    0 -0.10450873579E+02  0.32005985675E+02  0.82085684805E+02  0.11981216151E+03  0.80518882994E+02 0.  0.
          6    2    1    2  501    0 -0.67646268022E+02 -0.23085412260E+02  0.72775016776E+03  0.75116798125E+03  0.17182571270E+03 0.  0.
         24    2    5    5    0    0 -0.34977072396E+02 -0.63591888872E+02  0.26110090740E+03  0.28160257241E+03  0.76544111572E+02 0.  0.
          5    1    5    5  501    0 -0.32669195626E+02  0.40506476612E+02  0.46664926036E+03  0.46956540884E+03  0.47000000000E+01 0. -1.
        -11    1    6    6    0    0 -0.48149126049E+01 -0.15525714296E+02  0.20202939215E+01  0.16380255655E+02  0.00000000000E+00 0.  1.
         12    1    6    6    0    0 -0.30162159791E+02 -0.48066174576E+02  0.25908061348E+03  0.26522231675E+03  0.00000000000E+00 0. -1.
         -5    1    3    3    0  503  0.78097141600E+02 -0.89205734151E+01  0.23582595208E+03  0.24862564194E+03  0.47000000000E+01 0.  1.
         13    1    4    4    0    0  0.22230361464E+02  0.45565494238E+02  0.57865979843E+02  0.76934224239E+02  0.00000000000E+00 0. -1.
        -14    1    4    4    0    0 -0.32681235043E+02 -0.13559508562E+02  0.24219704962E+02  0.42877937273E+02  0.00000000000E+00 0.  1.
</event>
<event>
12    1  0.8313893E-002  0.1923160E+03  0.7818608E-02  0.1156843E+00
         21   -1    0    0  503  502  0.00000000000E+00  0.00000000000E+00  0.23567623871E+03  0.23567623871E+03  0.00000000000E+00 0. -1.
         21   -1    0    0  501  503 -0.00000000000E+00 -0.00000000000E+00 -0.19178061247E+03  0.19178061247E+03  0.00000000000E+00 0. -1.
          6    2    1    2  501    0  0.22708244639E+02  0.78597220874E+02  0.11528434623E+03  0.22422290940E+03  0.17404667510E+03 0.  0.
         24    2    3    3    0    0  0.65867020392E+02  0.98059182662E+02  0.72624506511E+02  0.16032142424E+03  0.80464727963E+02 0.  0.
         -6    2    1    2    0  502 -0.22708244639E+02 -0.78597220874E+02 -0.71388719989E+02  0.20323394178E+03  0.17179784121E+03 0.  0.
        -24    2    5    5    0    0  0.86586404139E+01  0.64575355728E+01 -0.74929869742E+02  0.11238889340E+03  0.83066877643E+02 0.  0.
          5    1    3    3  501    0 -0.43158775753E+02 -0.19461961788E+02  0.42659839715E+02  0.63901485160E+02  0.47000000000E+01 0. -1.
        -13    1    4    4    0    0  0.28054959399E+02  0.73439885155E+01  0.52536683405E+02  0.60009316089E+02  0.00000000000E+00 0.  1.
         14    1    4    4    0    0  0.37812060992E+02  0.90715194146E+02  0.20087823106E+02  0.10031210816E+03  0.00000000000E+00 0. -1.
         -5    1    5    5    0  502 -0.31366885053E+02 -0.85054756447E+02  0.35411497532E+01  0.90845048372E+02  0.47000000000E+01 0.  1.
         13    1    6    6    0    0 -0.78561506277E+01 -0.32852293209E+02 -0.10961414528E+02  0.35512601711E+02  0.00000000000E+00 0. -1.
        -14    1    6    6    0    0  0.16514791042E+02  0.39309828782E+02 -0.63968455214E+02  0.76876291693E+02  0.00000000000E+00 0.  1.
</event>
<event>
12    1  0.8313893E-002  0.2016949E+03  0.7818608E-02  0.1148370E+00
         21   -1    0    0  501  502  0.00000000000E+00  0.00000000000E+00  0.38459461812E+04  0.38459461812E+04  0.00000000000E+00 0. -1.
         21   -1    0    0  502  503 -0.00000000000E+00 -0.00000000000E+00 -0.11340443200E+02  0.11340443200E+02  0.00000000000E+00 0. -1.
         -6    2    1    2    0  503 -0.55432362732E+02  0.87042267224E+02  0.14138336637E+04  0.14281479188E+04  0.17329670039E+03 0.  0.
        -24    2    3    3    0    0 -0.10674123730E+00  0.11417782569E+03  0.90947048390E+03  0.92001253328E+03  0.79056391444E+02 0.  0.
          6    2    1    2  501    0  0.55432362732E+02 -0.87042267224E+02  0.24207720743E+04  0.24291387055E+04  0.17299801153E+03 0.  0.
         24    2    5    5    0    0  0.10386333488E+03 -0.73064349436E+02  0.19081926215E+04  0.19140651898E+04  0.79501436347E+02 0.  0.
          5    1    5    5  501    0 -0.48430972152E+02 -0.13977917788E+02  0.51257945277E+03  0.51507351577E+03  0.47000000000E+01 0. -1.
        -11    1    6    6    0    0 -0.88672227062E+01 -0.20094040922E+02  0.16953655006E+03  0.17095332674E+03  0.00000000000E+00 0.  1.
         12    1    6    6    0    0  0.11273055759E+03 -0.52970308514E+02  0.17386560715E+04  0.17431118630E+04  0.00000000000E+00 0. -1.
         -5    1    3    3    0  503 -0.55325621495E+02 -0.27135558470E+02  0.50436317981E+03  0.50813538557E+03  0.47000000000E+01 0.  1.
         11    1    4    4    0    0 -0.33867491406E+02  0.23956166297E+02  0.22438222622E+03  0.22818476794E+03  0.00000000000E+00 0. -1.
        -12    1    4    4    0    0  0.33760750169E+02  0.90221659397E+02  0.68508825768E+03  0.69182776533E+03  0.00000000000E+00 0.  1.
</event>
<event>
12    1  0.8313893E-002  0.2751177E+03  0.7818608E-02  0.1098487E+00
         21   -1    0    0  503  502  0.00000000000E+00  0.00000000000E+00  0.17887527933E+04  0.17887527933E+04  0.00000000000E+00 0. -1.
         21   -1    0    0  501  503 -0.00000000000E+00 -0.00000000000E+00 -0.44676442017E+03  0.44676442017E+03  0.00000000000E+00 0. -1.
          6    2    1    2  501    0  0.19940949445E+03 -0.77477833128E+02 -0.39257759183E+03  0.47938181800E+03  0.17298208208E+03 0.  0.
         24    2    3    3    0    0  0.11584871158E+03 -0.48325050640E+02 -0.11414939083E+03  0.18718900105E+03  0.79078468598E+02 0.  0.
         -6    2    1    2    0  502 -0.19940949445E+03  0.77477833128E+02  0.17345659650E+04  0.17561353955E+04  0.17182979741E+03 0.  0.
        -24    2    5    5    0    0 -0.20556718178E+03  0.28396396510E+02  0.12976361464E+04  0.13163892632E+04  0.77180969983E+02 0.  0.
          5    1    3    3  501    0  0.83560782868E+02 -0.29152782488E+02 -0.27842820101E+03  0.29219281695E+03  0.47000000000E+01 0. -1.
        -11    1    4    4    0    0  0.38238082335E+02  0.16746908823E+02 -0.57768436843E+02  0.71272731049E+02  0.00000000000E+00 0.  1.
         12    1    4    4    0    0  0.77610629243E+02 -0.65071959463E+02 -0.56380953984E+02  0.11591627001E+03  0.00000000000E+00 0. -1.
         -5    1    5    5    0  502  0.61576873368E+01  0.49081436618E+02  0.43692981854E+03  0.43974613229E+03  0.47000000000E+01 0.  1.
         13    1    6    6    0    0 -0.14168262919E+03  0.53197794334E+02  0.81801109313E+03  0.83189309483E+03  0.00000000000E+00 0. -1.
        -14    1    6    6    0    0 -0.63884552590E+02 -0.24801397824E+02  0.47962505332E+03  0.48449616837E+03  0.00000000000E+00 0.  1.
</event>
<event>
12    1  0.8313893E-002  0.2323532E+03  0.7818608E-02  0.1125104E+00
         21   -1    0    0  503  502  0.00000000000E+00  0.00000000000E+00  0.53422820157E+03  0.53422820157E+03  0.00000000000E+00 0.  1.
         21   -1    0    0  501  503 -0.00000000000E+00 -0.00000000000E+00 -0.12530174655E+03  0.12530174655E+03  0.00000000000E+00 0.  1.
          6    2    1    2  501    0 -0.74381323476E+01  0.15479539822E+03  0.58370836454E+02  0.23896218449E+03  0.17227544789E+03 0.  0.
         24    2    3    3    0    0 -0.15382261529E+02  0.15895018236E+03 -0.11423692886E+01  0.17859428675E+03  0.79955236303E+02 0.  0.
         -6    2    1    2    0  502  0.74381323476E+01 -0.15479539822E+03  0.35055561857E+03  0.42056776363E+03  0.17312152081E+03 0.  0.
        -24    2    5    5    0    0 -0.25144038916E+02 -0.17265534883E+03  0.26594833703E+03  0.32804177912E+03  0.80254586810E+02 0.  0.
          5    1    3    3  501    0  0.79441291811E+01 -0.41547841317E+01  0.59513205742E+02  0.60367897738E+02  0.47000000000E+01 0. -1.
        -11    1    4    4    0    0 -0.46570973658E+02  0.76234547815E+02 -0.93083211889E+01  0.89817630293E+02  0.00000000000E+00 0.  1.
         12    1    4    4    0    0  0.31188712129E+02  0.82715634541E+02  0.81659519003E+01  0.88776656460E+02  0.00000000000E+00 0. -1.
         -5    1    5    5    0  502  0.32582171264E+02  0.17859950608E+02  0.84607281543E+02  0.92525984513E+02  0.47000000000E+01 0.  1.
         13    1    6    6    0    0 -0.52288838534E+02 -0.88085742211E+02  0.12750627656E+03  0.16355754699E+03  0.00000000000E+00 0. -1.
        -14    1    6    6    0    0  0.27144799618E+02 -0.84569606621E+02  0.13844206047E+03  0.16448423212E+03  0.00000000000E+00 0.  1.
</event>
<event>
12    1  0.8313893E-002  0.1726504E+03  0.7818608E-02  0.1176594E+00
         21   -1    0    0  503  502  0.00000000000E+00  0.00000000000E+00  0.83626127689E+02  0.83626127689E+02  0.00000000000E+00 0.  1.
         21   -1    0    0  501  503 -0.00000000000E+00 -0.00000000000E+00 -0.49005883592E+03  0.49005883592E+03  0.00000000000E+00 0.  1.
          6    2    1    2  501    0 -0.15540260721E+02 -0.14974978668E+02 -0.36177850490E+03  0.40086385550E+03  0.17129621814E+03 0.  0.
         24    2    3    3    0    0 -0.35931366478E+01  0.10001655464E+01 -0.37006840737E+03  0.37875613085E+03  0.80570897768E+02 0.  0.
         -6    2    1    2    0  502  0.15540260721E+02  0.14974978668E+02 -0.44654203332E+02  0.17282110811E+03  0.16555176787E+03 0.  0.
        -24    2    5    5    0    0  0.55814392913E+02  0.42812526198E+02 -0.82631461578E+00  0.10694312540E+03  0.80548062792E+02 0.  0.
          5    1    3    3  501    0 -0.11947124074E+02 -0.15975144215E+02  0.82899024626E+01  0.22107724649E+02  0.47000000000E+01 0. -1.
        -11    1    4    4    0    0  0.27853668985E+02 -0.18999023077E+02 -0.26770280021E+03  0.26981767732E+03  0.00000000000E+00 0.  1.
         12    1    4    4    0    0 -0.31446805633E+02  0.19999188623E+02 -0.10236560716E+03  0.10893845354E+03  0.00000000000E+00 0. -1.
         -5    1    5    5    0  502 -0.40274132191E+02 -0.27837547529E+02 -0.43827888716E+02  0.65877982707E+02  0.47000000000E+01 0.  1.
         11    1    6    6    0    0  0.48290537304E+02  0.90464437951E+00  0.27713345143E+02  0.55685041740E+02  0.00000000000E+00 0. -1.
        -12    1    6    6    0    0  0.75238556089E+01  0.41907881818E+02 -0.28539659759E+02  0.51258083664E+02  0.00000000000E+00 0.  1.
</event>
<event>
12    1  0.8313893E-002  0.1800277E+03  0.7818608E-02  0.1168192E+00
         21   -1    0    0  501  502  0.00000000000E+00  0.00000000000E+00  0.45643992957E+02  0.45643992957E+02  0.00000000000E+00 0.  1.
         21   -1    0    0  502  503 -0.00000000000E+00 -0.00000000000E+00 -0.76036905404E+03  0.76036905404E+03  0.00000000000E+00 0.  1.
         -6    2    1    2    0  503  0.81100839168E+00  0.55550508241E+02 -0.46615837369E+03  0.49910041212E+03  0.16944342807E+03 0.  0.
        -24    2    3    3    0    0 -0.59416865982E+02  0.16359332377E+02 -0.33523928349E+03  0.34968406999E+03  0.78074194767E+02 0.  0.
          6    2    1    2  501    0 -0.81100839168E+00 -0.55550508241E+02 -0.24856668739E+03  0.30691263488E+03  0.17124091411E+03 0.  0.
         24    2    5    5    0    0  0.25847424823E+02 -0.45327903987E+02 -0.25892344585E+03  0.27617949080E+03  0.80691090446E+02 0.  0.
          5    1    5    5  501    0 -0.26658433214E+02 -0.10222604254E+02  0.10356758458E+02  0.30733144078E+02  0.47000000000E+01 0. -1.
        -13    1    6    6    0    0  0.43533354882E+02 -0.59040990952E+02 -0.18779239989E+03  0.20161095470E+03  0.00000000000E+00 0.  1.
         14    1    6    6    0    0 -0.17685930059E+02  0.13713086965E+02 -0.71131045959E+02  0.74568536095E+02  0.00000000000E+00 0. -1.
         -5    1    3    3    0  503  0.60227874373E+02  0.39191175864E+02 -0.13091909019E+03  0.14941634213E+03  0.47000000000E+01 0.  1.
         13    1    4    4    0    0 -0.38794681612E+02 -0.15714412241E+02 -0.68814773600E+02  0.80544665491E+02  0.00000000000E+00 0. -1.
        -14    1    4    4    0    0 -0.20622184370E+02  0.32073744619E+02 -0.26642450989E+03  0.26913940450E+03  0.00000000000E+00 0.  1.
</event>
<event>
12    1  0.8313893E-002  0.2453792E+03  0.7818608E-02  0.1116425E+00
         21   -1    0    0  503  502  0.00000000000E+00  0.00000000000E+00  0.81184143674E+03  0.81184143674E+03  0.00000000000E+00 0.  1.
         21   -1    0    0  501  503 -0.00000000000E+00 -0.00000000000E+00 -0.15078164952E+03  0.15078164952E+03  0.00000000000E+00 0. -1.
          6    2    1    2  501    0 -0.67414151009E+01  0.17459658741E+03 -0.12912536810E+02  0.24571868265E+03  0.17228326206E+03 0.  0.
         24    2    3    3    0    0 -0.50982394321E+01  0.19628546616E+03  0.96166526658E+01  0.21405226722E+03  0.84687170351E+02 0.  0.
         -6    2    1    2    0  502  0.67414151009E+01 -0.17459658741E+03  0.67397232403E+03  0.71690440361E+03  0.17083271157E+03 0.  0.
        -24    2    5    5    0    0  0.45359280293E+02 -0.14992933521E+03  0.33943310758E+03  0.37920869711E+03  0.63624928922E+02 0.  0.
          5    1    3    3  501    0 -0.16431756688E+01 -0.21688878752E+02 -0.22529189476E+02  0.31666415431E+02  0.47000000000E+01 0. -1.
        -11    1    4    4    0    0 -0.21600672367E+02  0.17370131384E+03 -0.16459895703E+02  0.17581144344E+03  0.00000000000E+00 0.  1.
         12    1    4    4    0    0  0.16502432935E+02  0.22584152321E+02  0.26076548369E+02  0.38240823784E+02  0.00000000000E+00 0. -1.
         -5    1    5    5    0  502 -0.38617865192E+02 -0.24667252201E+02  0.33453921645E+03  0.33769570650E+03  0.47000000000E+01 0.  1.
         13    1    6    6    0    0  0.18903208197E+02 -0.13401353561E+03  0.30009059088E+03  0.32919799778E+03  0.00000000000E+00 0. -1.
        -14    1    6    6    0    0  0.26456072096E+02 -0.15915799599E+02  0.39342516695E+02  0.50010699330E+02  0.00000000000E+00 0.  1.
</event>
<event>
12    1  0.8313893E-002  0.2263791E+03  0.7818608E-02  0.1129511E+00
         21   -1    0    0  501  502  0.00000000000E+00  0.00000000000E+00  0.29849363583E+03  0.29849363583E+03  0.00000000000E+00 0. -1.
         21   -1    0    0  502  503 -0.00000000000E+00 -0.00000000000E+00 -0.18236250366E+03  0.18236250366E+03  0.00000000000E+00 0. -1.
         -6    2    1    2    0  503  0.11436257730E+03  0.90835771542E+02 -0.36015312149E+01  0.22476358317E+03  0.17080913563E+03 0.  0.
        -24    2    3    3    0    0  0.14270119228E+03  0.10147598733E+03  0.59926466699E+01  0.19266327881E+03  0.80138760305E+02 0.  0.
          6    2    1    2  501    0 -0.11436257730E+03 -0.90835771542E+02  0.11973266339E+03  0.25609255633E+03  0.17296690506E+03 0.  0.
         24    2    5    5    0    0 -0.39063495956E+02 -0.11063328763E+03  0.75800523611E+02  0.16657151858E+03  0.90745084573E+02 0.  0.
          5    1    5    5  501    0 -0.75299081346E+02  0.19797516085E+02  0.43932139776E+02  0.89521037750E+02  0.47000000000E+01 0. -1.
        -11    1    6    6    0    0  0.26533238143E+02 -0.12263516242E+02  0.22452687651E+02  0.36858238424E+02  0.00000000000E+00 0.  1.
         12    1    6    6    0    0 -0.65596734098E+02 -0.98369771385E+02  0.53347835960E+02  0.12971328015E+03  0.00000000000E+00 0. -1.
         -5    1    3    3    0  503 -0.28338614976E+02 -0.10640215793E+02 -0.95941778848E+01  0.32100304362E+02  0.47000000000E+01 0.  1.
         11    1    4    4    0    0  0.12837022600E+03  0.72511803512E+02  0.32373771212E+02  0.15094680399E+03  0.00000000000E+00 0. -1.
        -12    1    4    4    0    0  0.14330966274E+02  0.28964183822E+02 -0.26381124542E+02  0.41716474814E+02  0.00000000000E+00 0.  1.
</event>
<event>
12    1  0.8313893E-002  0.2417381E+03  0.7818608E-02  0.1118919E+00
         21   -1    0    0  501  502  0.00000000000E+00  0.00000000000E+00  0.50796069160E+03  0.50796069160E+03  0.00000000000E+00 0. -1.
         21   -1    0    0  502  503 -0.00000000000E+00 -0.00000000000E+00 -0.12285045141E+03  0.12285045141E+03  0.00000000000E+00 0. -1.
         -6    2    1    2    0  503 -0.95418196302E+02  0.13890031671E+03  0.10969672210E+03  0.26546316867E+03  0.17331876099E+03 0.  0.
        -24    2    3    3    0    0 -0.38617071947E+02  0.14997110943E+03  0.49011530994E+02  0.18147678525E+03  0.80926395607E+02 0.  0.
          6    2    1    2  501    0  0.95418196302E+02 -0.13890031671E+03  0.27541351809E+03  0.36534797434E+03  0.17096375710E+03 0.  0.
         24    2    5    5    0    0  0.22702413699E+02 -0.33029028323E+02  0.57689978344E+02  0.11252007932E+03  0.87899478659E+02 0.  0.
          5    1    5    5  501    0  0.72715782604E+02 -0.10587128839E+03  0.21772353974E+03  0.25282789502E+03  0.47000000000E+01 0. -1.
        -13    1    6    6    0    0  0.38760053329E+02 -0.10820345655E+01  0.65317731933E+02  0.75959980501E+02  0.00000000000E+00 0.  1.
         14    1    6    6    0    0 -0.16057639631E+02 -0.31946993758E+02 -0.76277535883E+01  0.36560098817E+02  0.00000000000E+00 0. -1.
         -5    1    3    3    0  503 -0.56801124355E+02 -0.11070792723E+02  0.60685191104E+02  0.83986383413E+02  0.47000000000E+01 0.  1.
         11    1    4    4    0    0 -0.27208418979E+02  0.13116080801E+03  0.69939854523E+02  0.15111266946E+03  0.00000000000E+00 0. -1.
        -12    1    4    4    0    0 -0.11408652968E+02  0.18810301420E+02 -0.20928323529E+02  0.30364115792E+02  0.00000000000E+00 0.  1.
</event>
<event>
12    1  0.8313893E-002  0.1934794E+03  0.7818608E-02  0.1155430E+00
         21   -1    0    0  503  502  0.00000000000E+00  0.00000000000E+00  0.52596782837E+02  0.52596782837E+02  0.00000000000E+00 0.  1.
         21   -1    0    0  501  503 -0.00000000000E+00 -0.00000000000E+00 -0.71766343595E+03  0.71766343595E+03  0.00000000000E+00 0.  1.
          6    2    1    2  501    0  0.45410007739E+02  0.78706609800E+02 -0.29393430604E+03  0.35172288475E+03  0.17045472174E+03 0.  0.
         24    2    3    3    0    0  0.12286251156E+02  0.30394928306E+02 -0.27792826663E+03  0.29081734218E+03  0.79093624800E+02 0.  0.
         -6    2    1    2    0  502 -0.45410007739E+02 -0.78706609800E+02 -0.37113234707E+03  0.41853733403E+03  0.17081417303E+03 0.  0.
        -24    2    5    5    0    0  0.29422768924E+02 -0.18186890216E+02 -0.24081780784E+03  0.25646775003E+03  0.81154346333E+02 0.  0.
          5    1    3    3  501    0  0.33123756583E+02  0.48311681495E+02 -0.16006039409E+02  0.60905542577E+02  0.47000000000E+01 0. -1.
        -11    1    4    4    0    0  0.22417812736E+02  0.51080708978E+02 -0.24037447564E+03  0.24676240738E+03  0.00000000000E+00 0.  1.
         12    1    4    4    0    0 -0.10131561580E+02 -0.20685780672E+02 -0.37553790995E+02  0.44054934799E+02  0.00000000000E+00 0. -1.
         -5    1    5    5    0  502 -0.74832776663E+02 -0.60519719585E+02 -0.13031453923E+03  0.16206958400E+03  0.47000000000E+01 0.  1.
         13    1    6    6    0    0 -0.20087480590E+02 -0.18549731153E+02 -0.15498665768E+03  0.15737999702E+03  0.00000000000E+00 0. -1.
        -14    1    6    6    0    0  0.49510249514E+02  0.36284093762E+00 -0.85831150160E+02  0.99087753019E+02  0.00000000000E+00 0.  1.
</event>
<event>
12    1  0.8313893E-002  0.2041945E+03  0.7818608E-02  0.1146532E+00
         21   -1    0    0  503  502  0.00000000000E+00  0.00000000000E+00  0.14214102260E+03  0.14214102260E+03  0.00000000000E+00 0.  1.
         21   -1    0    0  501  503 -0.00000000000E+00 -0.00000000000E+00 -0.48813162098E+03  0.48813162098E+03  0.00000000000E+00 0.  1.
          6    2    1    2  501    0  0.74569669808E+02  0.75461614164E+02 -0.37342969737E+03  0.42561149034E+03  0.17447151906E+03 0.  0.
         24    2    3    3    0    0  0.16325241730E+02  0.74943699202E+02 -0.34252172519E+03  0.35950495222E+03  0.77714907658E+02 0.  0.
         -6    2    1    2    0  502 -0.74569669808E+02 -0.75461614164E+02  0.27439098985E+02  0.20466115325E+03  0.17285309551E+03 0.  0.
        -24    2    5    5    0    0  0.26097369703E+02 -0.35684764290E+02 -0.73454332934E+01  0.90871415946E+02  0.79051778841E+02 0.  0.
          5    1    3    3  501    0  0.58244428078E+02  0.51791496192E+00 -0.30907972176E+02  0.66106538119E+02  0.47000000000E+01 0. -1.
        -13    1    4    4    0    0  0.47560591158E+02  0.38872899634E+02 -0.18735588273E+03  0.19716830108E+03  0.00000000000E+00 0.  1.
         14    1    4    4    0    0 -0.31235349428E+02  0.36070799568E+02 -0.15516584246E+03  0.16233665114E+03  0.00000000000E+00 0. -1.
         -5    1    5    5    0  502 -0.10066703951E+03 -0.39776849874E+02  0.34784532278E+02  0.11378973730E+03  0.47000000000E+01 0.  1.
         13    1    6    6    0    0  0.51769292059E+02 -0.93530949186E+01 -0.11538982066E+02  0.53858036465E+02  0.00000000000E+00 0. -1.
        -14    1    6    6    0    0 -0.25671922355E+02 -0.26331669371E+02  0.41935487727E+01  0.37013379481E+02  0.00000000000E+00 0.  1.
</event>
<event>
12    1  0.8313893E-002  0.1896983E+03  0.7818608E-02  0.1158865E+00
         21   -1    0    0  501  502  0.00000000000E+00  0.00000000000E+00  0.30242398749E+03  0.30242398749E+03  0.00000000000E+00 0.  1.
         21   -1    0    0  502  503 -0.00000000000E+00 -0.00000000000E+00 -0.17170016824E+03  0.17170016824E+03  0.00000000000E+00 0.  1.
         -6    2    1    2    0  503  0.76636919285E+02  0.22786354209E+02  0.19723190104E+03  0.27365279936E+03  0.17202615055E+03 0.  0.
        -24    2    3    3    0    0  0.57058891800E+02 -0.30910449963E+02  0.48156237386E+02  0.11392713006E+03  0.80306878372E+02 0.  0.
          6    2    1    2  501    0 -0.76636919285E+02 -0.22786354209E+02 -0.66508081790E+02  0.20047135637E+03  0.17138554328E+03 0.  0.
         24    2    5    5    0    0 -0.45658197507E+02  0.51507854405E+02 -0.54104801805E+02  0.11889168984E+03  0.80437393477E+02 0.  0.
          5    1    5    5  501    0 -0.30978721778E+02 -0.74294208614E+02 -0.12403279986E+02  0.81579666529E+02  0.47000000000E+01 0. -1.
        -13    1    6    6    0    0 -0.38565087377E+02  0.64938745101E+02 -0.15083212264E+02  0.77018243761E+02  0.00000000000E+00 0.  1.
         14    1    6    6    0    0 -0.70931101299E+01 -0.13430890696E+02 -0.39021589540E+02  0.41873446078E+02  0.00000000000E+00 0. -1.
         -5    1    3    3    0  503  0.19578027485E+02  0.53696804172E+02  0.14907566365E+03  0.15972566930E+03  0.47000000000E+01 0.  1.
         13    1    4    4    0    0  0.12807270527E+02  0.98267038924E+01 -0.18227023134E+02  0.24347785527E+02  0.00000000000E+00 0. -1.
        -14    1    4    4    0    0  0.44251621274E+02 -0.40737153855E+02  0.66383260520E+02  0.89579344532E+02  0.00000000000E+00 0.  1.
</event>
<event>
12    1  0.8313893E-002  0.2356317E+03  0.7818608E-02  0.1122790E+00
         21   -1    0    0  501  502  0.00000000000E+00  0.00000000000E+00  0.16023202045E+03  0.16023202045E+03  0.00000000000E+00 0.  1.
         21   -1    0    0  502  503 -0.00000000000E+00 -0.00000000000E+00 -0.47411395379E+03  0.47411395379E+03  0.00000000000E+00 0.  1.
         -6    2    1    2    0  503  0.16153452491E+03  0.21617559736E+02 -0.32184956406E+03  0.39888527443E+03  0.17018107605E+03 0.  0.
        -24    2    3    3    0    0  0.35991371467E+02  0.43847647131E+02 -0.20604930178E+03  0.22658596826E+03  0.75278757101E+02 0.  0.
          6    2    1    2  501    0 -0.16153452491E+03 -0.21617559736E+02  0.79676307240E+01  0.23546069981E+03  0.16975728670E+03 0.  0.
         24    2    5    5    0    0 -0.99472247859E+02 -0.70125797825E+02  0.40755894935E+02  0.15000933548E+03  0.77649225010E+02 0.  0.
          5    1    5    5  501    0 -0.62062277054E+02  0.48508238089E+02 -0.32788264211E+02  0.85451364328E+02  0.47000000000E+01 0. -1.
        -13    1    6    6    0    0 -0.71516333208E+02 -0.80752843756E+01  0.39156835412E+02  0.81933228258E+02  0.00000000000E+00 0.  1.
         14    1    6    6    0    0 -0.27955914651E+02 -0.62050513449E+02  0.15990595228E+01  0.68076107223E+02  0.00000000000E+00 0. -1.
         -5    1    3    3    0  503  0.12554315345E+03 -0.22230087395E+02 -0.11580026228E+03  0.17229930617E+03  0.47000000000E+01 0.  1.
         13    1    4    4    0    0  0.41534030945E+02  0.60063936125E+02 -0.13485184423E+03  0.15335505222E+03  0.00000000000E+00 0. -1.
        -14    1    4    4    0    0 -0.55426594778E+01 -0.16216288995E+02 -0.71197457546E+02  0.73230916038E+02  0.00000000000E+00 0.  1.
</event>
<event>
12    1  0.8313893E-002  0.1805057E+03  0.7818608E-02  0.1167843E+00
         21   -1    0    0  501  502  0.00000000000E+00  0.00000000000E+00  0.33886294378E+03  0.33886294378E+03  0.00000000000E+00 0.  1.
         21   -1    0    0  502  503 -0.00000000000E+00 -0.00000000000E+00 -0.19656665401E+03  0.19656665401E+03  0.00000000000E+00 0. -1.
         -6    2    1    2    0  503 -0.35365411522E+02 -0.35768616368E+02 -0.12150324446E+03  0.21578526627E+03  0.17108517317E+03 0.  0.
        -24    2    3    3    0    0 -0.51984006236E+02  0.37172135051E+02 -0.73625110851E+02  0.12684182028E+03  0.81142380387E+02 0.  0.
          6    2    1    2  501    0  0.35365411522E+02  0.35768616368E+02  0.26379953423E+03  0.31964433151E+03  0.17335569838E+03 0.  0.
         24    2    5    5    0    0  0.24114726592E+02  0.45921400510E+02  0.28071268287E+03  0.29645378314E+03  0.79968369690E+02 0.  0.
          5    1    5    5  501    0  0.11250684929E+02 -0.10152784143E+02 -0.16913148637E+02  0.23190548377E+02  0.47000000000E+01 0. -1.
        -13    1    6    6    0    0  0.11789374845E+02  0.44468472622E+02  0.61061244024E+02  0.76452010688E+02  0.00000000000E+00 0.  1.
         14    1    6    6    0    0  0.12325351748E+02  0.14529278890E+01  0.21965143884E+03  0.22000177245E+03  0.00000000000E+00 0. -1.
         -5    1    3    3    0  503  0.16618594715E+02 -0.72940751419E+02 -0.47878133606E+02  0.88943445995E+02  0.47000000000E+01 0.  1.
         13    1    4    4    0    0 -0.29121732765E+02 -0.22662934198E+02 -0.40282373719E+02  0.54629237027E+02  0.00000000000E+00 0. -1.
        -14    1    4    4    0    0 -0.22862273472E+02  0.59835069249E+02 -0.33342737132E+02  0.72212583251E+02  0.00000000000E+00 0.  1.
</event>
<event>
12    1  0.8313893E-002  0.2733431E+03  0.7818608E-02  0.1099393E+00
         21   -1    0    0  501  502  0.00000000000E+00  0.00000000000E+00  0.25471190851E+03  0.25471190851E+03  0.00000000000E+00 0.  1.
         21   -1    0    0  502  503 -0.00000000000E+00 -0.00000000000E+00 -0.34291440615E+03  0.34291440615E+03  0.00000000000E+00 0. -1.
         -6    2    1    2    0  503 -0.17534932127E+03 -0.12247618966E+03  0.69608809363E+02  0.28206706906E+03  0.17020177321E+03 0.  0.
        -24    2    3    3    0    0 -0.19646380417E+03 -0.83487239780E+02  0.51766543757E+02  0.23404211676E+03  0.80794751127E+02 0.  0.
          6    2    1    2  501    0  0.17534932127E+03  0.12247618966E+03 -0.15781130700E+03  0.31555924561E+03  0.17007476994E+03 0.  0.
         24    2    5    5    0    0  0.13529990296E+03  0.11712027916E+03 -0.52278443421E+02  0.20245788850E+03  0.78948954645E+02 0.  0.
          5    1    5    5  501    0  0.40049418311E+02  0.53559104961E+01 -0.10553286358E+03  0.11310135710E+03  0.47000000000E+01 0. -1.
        -11    1    6    6    0    0  0.11194949299E+03  0.59034009102E+02 -0.58727101858E+02  0.13952267093E+03  0.00000000000E+00 0.  1.
         12    1    6    6    0    0  0.23350409968E+02  0.58086270060E+02  0.64486584377E+01  0.62935217572E+02  0.00000000000E+00 0. -1.
         -5    1    3    3    0  503  0.21114482905E+02 -0.38988949877E+02  0.17842265606E+02  0.48024952294E+02  0.47000000000E+01 0.  1.
         11    1    4    4    0    0 -0.15376213308E+03 -0.86959387706E+02  0.14471067264E+02  0.17724034661E+03  0.00000000000E+00 0. -1.
        -12    1    4    4    0    0 -0.42701671095E+02  0.34721479251E+01  0.37295476493E+02  0.56801770151E+02  0.00000000000E+00 0.  1.
</event>
<event>
12    1  0.8313893E-002  0.1985083E+03  0.7818608E-02  0.1152592E+00
         21   -1    0    0  503  502  0.00000000000E+00  0.00000000000E+00  0.88256057228E+03  0.88256057228E+03  0.00000000000E+00 0. -1.
         21   -1    0    0  501  503 -0.00000000000E+00 -0.00000000000E+00 -0.49023056704E+02  0.49023056704E+02  0.00000000000E+00 0. -1.
          6    2    1    2  501    0 -0.29249255416E+02  0.80941833113E+02  0.26065934310E+03  0.32764132371E+03  0.17888109058E+03 0.  0.
         24    2    3    3    0    0 -0.76434947147E+02  0.41150203322E+02  0.24005785296E+03  0.26240042625E+03  0.60750066234E+02 0.  0.
         -6    2    1    2    0  502  0.29249255416E+02 -0.80941833113E+02  0.57287817247E+03  0.60394230527E+03  0.17073314942E+03 0.  0.
        -24    2    5    5    0    0  0.59194294871E+02 -0.20851798798E+02  0.19139205452E+03  0.21656488492E+03  0.79565499974E+02 0.  0.
          5    1    3    3  501    0  0.47185691731E+02  0.39791629791E+02  0.20601490135E+02  0.65240897460E+02  0.47000000000E+01 0. -1.
        -13    1    4    4    0    0 -0.56240913071E+02  0.54752667745E+02  0.20670432359E+03  0.22110534213E+03  0.00000000000E+00 0.  1.
         14    1    4    4    0    0 -0.20194034076E+02 -0.13602464423E+02  0.33353529378E+02  0.41295084122E+02  0.00000000000E+00 0. -1.
         -5    1    5    5    0  502 -0.29945039455E+02 -0.60090034314E+02  0.38148611795E+03  0.38737742036E+03  0.47000000000E+01 0.  1.
         11    1    6    6    0    0  0.89662820237E+01 -0.44284952684E+02  0.98995659187E+02  0.10881953770E+03  0.00000000000E+00 0. -1.
        -12    1    6    6    0    0  0.50228012847E+02  0.23433153886E+02  0.92396395334E+02  0.10774534721E+03  0.00000000000E+00 0.  1.
</event>
<event>
12    1  0.8313893E-002  0.2976732E+03  0.7818608E-02  0.1086805E+00
         21   -1    0    0  501  502  0.00000000000E+00  0.00000000000E+00  0.47447275812E+03  0.47447275812E+03  0.00000000000E+00 0. -1.
         21   -1    0    0  502  503 -0.00000000000E+00 -0.00000000000E+00 -0.24879301327E+03  0.24879301327E+03  0.00000000000E+00 0.  1.
         -6    2    1    2    0  503 -0.16386037562E+03 -0.17469793006E+03 -0.70115701785E+02  0.30581951434E+03  0.17674777015E+03 0.  0.
        -24    2    3    3    0    0 -0.10299035422E+03 -0.21217026786E+02 -0.31759312316E+02  0.13624696413E+03  0.80606488734E+02 0.  0.
          6    2    1    2  501    0  0.16386037562E+03  0.17469793006E+03  0.29579544664E+03  0.41744625704E+03  0.17145507226E+03 0.  0.
         24    2    5    5    0    0  0.80215954539E+02  0.71172241698E+02  0.59708381540E+02  0.14638694687E+03  0.79774432217E+02 0.  0.
          5    1    5    5  501    0  0.83644421079E+02  0.10352568836E+03  0.23608706510E+03  0.27105931018E+03  0.47000000000E+01 0. -1.
        -13    1    6    6    0    0  0.88367020310E+02  0.74132985277E+02  0.68406766988E+02  0.13410412206E+03  0.00000000000E+00 0.  1.
         14    1    6    6    0    0 -0.81510657711E+01 -0.29607435785E+01 -0.86983854478E+01  0.12282824803E+02  0.00000000000E+00 0. -1.
         -5    1    3    3    0  503 -0.60870021394E+02 -0.15348090328E+03 -0.38356389469E+02  0.16957255022E+03  0.47000000000E+01 0.  1.
         11    1    4    4    0    0 -0.13072487946E+02 -0.96014782504E+01  0.24619527551E+02  0.29482188903E+02  0.00000000000E+00 0. -1.
        -12    1    4    4    0    0 -0.89917866278E+02 -0.11615548536E+02 -0.56378839866E+02  0.10676477522E+03  0.00000000000E+00 0.  1.
</event>
<event>
12    1  0.8313893E-002  0.1943995E+03  0.7818608E-02  0.1156693E+00
         21   -1    0    0  503  502  0.00000000000E+00  0.00000000000E+00  0.31243774100E+03  0.31243774100E+03  0.00000000000E+00 0.  1.
         21   -1    0    0  501  503 -0.00000000000E+00 -0.00000000000E+00 -0.12182193294E+03  0.12182193294E+03  0.00000000000E+00 0. -1.
          6    2    1    2  501    0  0.58493085068E+02 -0.36116557204E+02  0.46594138079E+02  0.19990538541E+03  0.18183867220E+03 0.  0.
         24    2    3    3    0    0 -0.66224448525E+00 -0.82382405487E+02  0.50350986382E+02  0.12456558423E+03  0.78702373815E+02 0.  0.
         -6    2    1    2    0  502 -0.58493085068E+02  0.36116557204E+02  0.14402166998E+03  0.23435428853E+03  0.17162122370E+03 0.  0.
        -24    2    5    5    0    0 -0.28855010661E+02  0.50821239876E+02  0.35929850918E+02  0.12121466464E+03  0.99933131010E+02 0.  0.
          5    1    3    3  501    0  0.59155329554E+02  0.46265848284E+02 -0.37568483034E+01  0.75339801176E+02  0.47000000000E+01 0. -1.
        -13    1    4    4    0    0  0.19216964874E+02 -0.21450535864E+02  0.53107339493E+02  0.60413630381E+02  0.00000000000E+00 0.  1.
         14    1    4    4    0    0 -0.19879209359E+02 -0.60931869624E+02 -0.27563531115E+01  0.64151953852E+02  0.00000000000E+00 0. -1.
         -5    1    5    5    0  502 -0.29638074407E+02 -0.14704682672E+02  0.10809181906E+03  0.11313962389E+03  0.47000000000E+01 0.  1.
         11    1    6    6    0    0  0.33772978444E+02 -0.20065493926E+01  0.10781745108E+02  0.35508961419E+02  0.00000000000E+00 0. -1.
        -12    1    6    6    0    0 -0.62627989106E+02  0.52827789268E+02  0.25148105810E+02  0.85705703219E+02  0.00000000000E+00 0.  1.
</event>
<event>
12    1  0.8313893E-002  0.1810569E+03  0.7818608E-02  0.1166907E+00
         21   -1    0    0  501  502  0.00000000000E+00  0.00000000000E+00  0.19365578035E+03  0.19365578035E+03  0.00000000000E+00 0. -1.
         21   -1    0    0  502  503 -0.00000000000E+00 -0.00000000000E+00 -0.16910788353E+03  0.16910788353E+03  0.00000000000E+00 0. -1.
         -6    2    1    2    0  503 -0.25798171750E+02  0.48590144959E+02  0.20049193643E+02  0.18216358271E+03  0.17249652996E+03 0.  0.
        -24    2    3    3    0    0  0.46399681036E+01  0.69183166506E+01  0.73094701602E+02  0.10800876124E+03  0.79080115667E+02 0.  0.
          6    2    1    2  501    0  0.25798171750E+02 -0.48590144959E+02  0.44987031834E+01  0.18060008117E+03  0.17195814356E+03 0.  0.
         24    2    5    5    0    0 -0.43372621503E+02 -0.53551714268E+01  0.38037331774E+02  0.92277993426E+02  0.71822888449E+02 0.  0.
          5    1    5    5  501    0  0.69170793254E+02 -0.43234973532E+02 -0.33538628590E+02  0.88322087744E+02  0.47000000000E+01 0. -1.
        -11    1    6    6    0    0 -0.17070250821E+02 -0.37593181694E+02  0.11244817024E+02  0.42791198661E+02  0.00000000000E+00 0.  1.
         12    1    6    6    0    0 -0.26302370683E+02  0.32238010267E+02  0.26792514750E+02  0.49486794765E+02  0.00000000000E+00 0. -1.
         -5    1    3    3    0  503 -0.30438139854E+02  0.41671828309E+02 -0.53045507960E+02  0.74154821469E+02  0.47000000000E+01 0.  1.
         13    1    4    4    0    0 -0.98078704450E+01  0.13929655287E+02  0.85835212706E+02  0.87509504394E+02  0.00000000000E+00 0. -1.
        -14    1    4    4    0    0  0.14447838549E+02 -0.70113386365E+01 -0.12740511104E+02  0.20499256850E+02  0.00000000000E+00 0.  1.
</event>
<event>
12    1  0.8313893E-002  0.1940052E+03  0.7818608E-02  0.1155456E+00
         21   -1    0    0  501  502  0.00000000000E+00  0.00000000000E+00  0.46495180544E+02  0.46495180544E+02  0.00000000000E+00 0. -1.
         21   -1    0    0  502  503 -0.00000000000E+00 -0.00000000000E+00 -0.83767289892E+03  0.83767289892E+03  0.00000000000E+00 0. -1.
         -6    2    1    2    0  503 -0.24598294790E+02  0.81861884754E+02 -0.48811132431E+03  0.52432468026E+03  0.17133960758E+03 0.  0.
        -24    2    3    3    0    0 -0.59919000142E+02  0.11784931018E+02 -0.34966529811E+03  0.36511499512E+03  0.85521738647E+02 0.  0.
          6    2    1    2  501    0  0.24598294790E+02 -0.81861884754E+02 -0.30306639406E+03  0.35984339920E+03  0.17415966369E+03 0.  0.
         24    2    5    5    0    0  0.61774856118E+02 -0.56486992523E+02 -0.10333183111E+03  0.15504601762E+03  0.79717545653E+02 0.  0.
          5    1    5    5  501    0 -0.37176561328E+02 -0.25374892231E+02 -0.19973456295E+03  0.20479738158E+03  0.47000000000E+01 0. -1.
        -11    1    6    6    0    0  0.39418192584E+02  0.36974934235E+00 -0.56368064135E+01  0.39820901644E+02  0.00000000000E+00 0.  1.
         12    1    6    6    0    0  0.22356663534E+02 -0.56856741866E+02 -0.97695024700E+02  0.11522511597E+03  0.00000000000E+00 0. -1.
         -5    1    3    3    0  503  0.35320705352E+02  0.70076953736E+02 -0.13844602620E+03  0.15920968514E+03  0.47000000000E+01 0.  1.
         13    1    4    4    0    0  0.91585829468E+01  0.30461835062E+02 -0.14023041088E+03  0.14379280641E+03  0.00000000000E+00 0. -1.
        -14    1    4    4    0    0 -0.69077583089E+02 -0.18676904044E+02 -0.20943488723E+03  0.22132218872E+03  0.00000000000E+00 0.  1.
</event>
<event>
12    1  0.8313893E-002  0.2291366E+03  0.7818608E-02  0.1127514E+00
         21   -1    0    0  503  502  0.00000000000E+00  0.00000000000E+00  0.26073401011E+03  0.26073401011E+03  0.00000000000E+00 0. -1.
         21   -1    0    0  501  503 -0.00000000000E+00 -0.00000000000E+00 -0.28243537865E+03  0.28243537865E+03  0.00000000000E+00 0. -1.
          6    2    1    2  501    0  0.34483494437E+02  0.14472979981E+03 -0.15754680262E+03  0.27807296252E+03  0.17426345322E+03 0.  0.
         24    2    3    3    0    0  0.52868770092E+02  0.20829127669E+02 -0.10586545950E+03  0.14249108267E+03  0.76598000727E+02 0.  0.
         -6    2    1    2    0  502 -0.34483494437E+02 -0.14472979981E+03  0.13584543407E+03  0.26509642624E+03  0.17229714711E+03 0.  0.
        -24    2    5    5    0    0 -0.30195787763E+02 -0.12017997677E+03  0.23057584531E+02  0.14949250224E+03  0.80382483197E+02 0.  0.
          5    1    3    3  501    0 -0.18385275655E+02  0.12390067214E+03 -0.51681343122E+02  0.13558187985E+03  0.47000000000E+01 0. -1.
        -11    1    4    4    0    0  0.41712084403E+02  0.33579501687E+02 -0.11226361128E+03  0.12438086403E+03  0.00000000000E+00 0.  1.
         12    1    4    4    0    0  0.11156685690E+02 -0.12750374018E+02  0.63981517790E+01  0.18110218645E+02  0.00000000000E+00 0. -1.
         -5    1    5    5    0  502 -0.42877066741E+01 -0.24549823036E+02  0.11278784954E+03  0.11560392400E+03  0.47000000000E+01 0.  1.
         11    1    6    6    0    0 -0.58943595312E+01 -0.11189394063E+03  0.39723985833E+02  0.11888226308E+03  0.00000000000E+00 0. -1.
        -12    1    6    6    0    0 -0.24301428232E+02 -0.82860361433E+01 -0.16666401302E+02  0.30610239160E+02  0.00000000000E+00 0.  1.
</event>
<event>
12    1  0.8313893E-002  0.2869008E+03  0.7818608E-02  0.1092188E+00
         21   -1    0    0  503  502  0.00000000000E+00  0.00000000000E+00  0.60036797738E+03  0.60036797738E+03  0.00000000000E+00 0.  1.
         21   -1    0    0  501  503 -0.00000000000E+00 -0.00000000000E+00 -0.22376603416E+03  0.22376603416E+03  0.00000000000E+00 0. -1.
          6    2    1    2  501    0  0.17760047181E+03  0.14647881820E+03 -0.69568168057E+02  0.29368155476E+03  0.16855608512E+03 0.  0.
         24    2    3    3    0    0  0.72145990251E+02  0.38848459066E+02 -0.68745135491E+02  0.14292443462E+03  0.94801126986E+02 0.  0.
         -6    2    1    2    0  502 -0.17760047181E+03 -0.14647881820E+03  0.44617011128E+03  0.53045245678E+03  0.17121351856E+03 0.  0.
        -24    2    5    5    0    0 -0.40100733939E+02 -0.95929468682E+02  0.14378738379E+03  0.19441850234E+03  0.79455714030E+02 0.  0.
          5    1    3    3  501    0  0.10545448156E+03  0.10763035914E+03 -0.82303256594E+00  0.15075712013E+03  0.47000000000E+01 0. -1.
        -13    1    4    4    0    0  0.18279126128E+02  0.15091868984E+02  0.23573996495E+02  0.33430887995E+02  0.00000000000E+00 0.  1.
         14    1    4    4    0    0  0.53866864124E+02  0.23756590082E+02 -0.92319131985E+02  0.10949354663E+03  0.00000000000E+00 0. -1.
         -5    1    5    5    0  502 -0.13749973787E+03 -0.50549349521E+02  0.30238272749E+03  0.33603395444E+03  0.47000000000E+01 0.  1.
         13    1    6    6    0    0  0.14741219391E+02 -0.29798547758E+01  0.47367993324E+02  0.49698187846E+02  0.00000000000E+00 0. -1.
        -14    1    6    6    0    0 -0.54841953330E+02 -0.92949613906E+02  0.96419390465E+02  0.14472031450E+03  0.00000000000E+00 0.  1.
</event>
<event>
12    1  0.8313893E-002  0.1722429E+03  0.7818608E-02  0.1175647E+00
         21   -1    0    0  503  502  0.00000000000E+00  0.00000000000E+00  0.87607036307E+03  0.87607036307E+03  0.00000000000E+00 0. -1.
         21   -1    0    0  501  503 -0.00000000000E+00 -0.00000000000E+00 -0.42248955322E+02  0.42248955322E+02  0.00000000000E+00 0. -1.
          6    2    1    2  501    0 -0.10806134681E+02  0.75320942066E+01  0.21170897153E+03  0.27292546362E+03  0.17173850785E+03 0.  0.
         24    2    3    3    0    0 -0.48191878362E+02 -0.47860862667E+02  0.12920819744E+03  0.16664968450E+03  0.80400495923E+02 0.  0.
         -6    2    1    2    0  502  0.10806134681E+02 -0.75320942066E+01  0.62211243623E+03  0.64539385478E+03  0.17127708395E+03 0.  0.
        -24    2    5    5    0    0  0.63315902868E+02 -0.36298423360E+02  0.34544929025E+03  0.36228722506E+03  0.81180922718E+02 0.  0.
          5    1    3    3  501    0  0.37385743681E+02  0.55392956873E+02  0.82500774088E+02  0.10627577912E+03  0.47000000000E+01 0. -1.
        -13    1    4    4    0    0 -0.33284805672E+02  0.17843863936E+02  0.50075352257E+02  0.62720193498E+02  0.00000000000E+00 0.  1.
         14    1    4    4    0    0 -0.14907072690E+02 -0.65704726603E+02  0.79132845180E+02  0.10392949100E+03  0.00000000000E+00 0. -1.
         -5    1    5    5    0  502 -0.52509768187E+02  0.28766329153E+02  0.27666314597E+03  0.28310662971E+03  0.47000000000E+01 0.  1.
         11    1    6    6    0    0  0.18964964463E+02  0.89457562433E+01  0.22692805315E+03  0.22789479533E+03  0.00000000000E+00 0. -1.
        -12    1    6    6    0    0  0.44350938405E+02 -0.45244179603E+02  0.11852123710E+03  0.13439242973E+03  0.00000000000E+00 0.  1.
</event>
<event>
12    1  0.8313893E-002  0.1749008E+03  0.7818608E-02  0.1173269E+00
         21   -1    0    0  503  502  0.00000000000E+00  0.00000000000E+00  0.92004435025E+03  0.92004435025E+03  0.00000000000E+00 0.  1.
         21   -1    0    0  501  503 -0.00000000000E+00 -0.00000000000E+00 -0.43392505211E+02  0.43392505211E+02  0.00000000000E+00 0.  1.
          6    2    1    2  501    0 -0.10617594051E+02 -0.11891250147E+02  0.20333454787E+03  0.26820741941E+03  0.17417274854E+03 0.  0.
         24    2    3    3    0    0 -0.58188488989E+02 -0.20464681649E+02  0.64302314261E+02  0.12093710415E+03  0.81769750494E+02 0.  0.
         -6    2    1    2    0  502  0.10617594051E+02  0.11891250147E+02  0.67331729717E+03  0.69522943605E+03  0.17243448308E+03 0.  0.
        -24    2    5    5    0    0 -0.89319931512E+01  0.50853368936E+02  0.21088902748E+03  0.23072730724E+03  0.78070882939E+02 0.  0.
          5    1    3    3  501    0  0.47570894939E+02  0.85734315025E+01  0.13903223361E+03  0.14727031526E+03  0.47000000000E+01 0. -1.
        -11    1    4    4    0    0 -0.46716171347E+00 -0.36635036711E+01 -0.18359070509E+02  0.18726851556E+02  0.00000000000E+00 0.  1.
         12    1    4    4    0    0 -0.57721327276E+02 -0.16801177978E+02  0.82661384771E+02  0.10221025260E+03  0.00000000000E+00 0. -1.
         -5    1    5    5    0  502  0.19549587202E+02 -0.38962118789E+02  0.46242826969E+03  0.46450212881E+03  0.47000000000E+01 0.  1.
         13    1    6    6    0    0  0.56581588765E+01  0.41985725915E+02  0.37736324236E+02  0.56734875599E+02  0.00000000000E+00 0. -1.
        -14    1    6    6    0    0 -0.14590152028E+02  0.88676430210E+01  0.17315270324E+03  0.17399243164E+03  0.00000000000E+00 0.  1.
</event>
<event>
12    1  0.8313893E-002  0.2019632E+03  0.7818608E-02  0.1148139E+00
         21   -1    0    0  501  502  0.00000000000E+00  0.00000000000E+00  0.95773708918E+02  0.95773708918E+02  0.00000000000E+00 0.  1.
         21   -1    0    0  502  503 -0.00000000000E+00 -0.00000000000E+00 -0.61367002512E+03  0.61367002512E+03  0.00000000000E+00 0. -1.
         -6    2    1    2    0  503 -0.13262925447E+02 -0.10577019350E+03 -0.45551170274E+03  0.49827705871E+03  0.17153972390E+03 0.  0.
        -24    2    3    3    0    0 -0.76514152577E+01 -0.18992228766E+02 -0.35825391778E+03  0.36772794555E+03  0.80366183339E+02 0.  0.
          6    2    1    2  501    0  0.13262925447E+02  0.10577019350E+03 -0.62384613463E+02  0.21116667533E+03  0.17127838669E+03 0.  0.
         24    2    5    5    0    0  0.51136576216E+02  0.78691282071E+02  0.11472218472E+02  0.12373325786E+03  0.79818794800E+02 0.  0.
          5    1    5    5  501    0 -0.37873650769E+02  0.27078911434E+02 -0.73856831935E+02  0.87433417470E+02  0.47000000000E+01 0. -1.
        -11    1    6    6    0    0  0.12930224241E+02  0.36759653449E+02  0.43651669066E+02  0.58514366039E+02  0.00000000000E+00 0.  1.
         12    1    6    6    0    0  0.38206351975E+02  0.41931628622E+02 -0.32179450594E+02  0.65218891823E+02  0.00000000000E+00 0. -1.
         -5    1    3    3    0  503 -0.56115101892E+01 -0.86777964739E+02 -0.97257784961E+02  0.13054911316E+03  0.47000000000E+01 0.  1.
         13    1    4    4    0    0  0.29636739026E+02 -0.13844861548E+02 -0.26727830432E+03  0.26927255421E+03  0.00000000000E+00 0. -1.
        -14    1    4    4    0    0 -0.37288154284E+02 -0.51473672183E+01 -0.90975613463E+02  0.98455391341E+02  0.00000000000E+00 0.  1.
</event>
<event>
12    1  0.8313893E-002  0.1744167E+03  0.7818608E-02  0.1173508E+00
         21   -1    0    0  503  502  0.00000000000E+00  0.00000000000E+00  0.61430356445E+02  0.61430356445E+02  0.00000000000E+00 0. -1.
         21   -1    0    0  501  503 -0.00000000000E+00 -0.00000000000E+00 -0.61298670663E+03  0.61298670663E+03  0.00000000000E+00 0. -1.
          6    2    1    2  501    0  0.20168345440E+02 -0.16119400302E+02 -0.42538762628E+03  0.45975627151E+03  0.17249521551E+03 0.  0.
         24    2    3    3    0    0  0.56997935502E+02 -0.60886869178E+02 -0.28106406264E+03  0.30415445276E+03  0.80974985885E+02 0.  0.
         -6    2    1    2    0  502 -0.20168345440E+02  0.16119400302E+02 -0.12616872390E+03  0.21466079156E+03  0.17173849691E+03 0.  0.
        -24    2    5    5    0    0 -0.11718884533E+02 -0.79935264129E+01 -0.15537734416E+03  0.17557038197E+03  0.80508454390E+02 0.  0.
          5    1    3    3  501    0 -0.36829590062E+02  0.44767468877E+02 -0.14432356365E+03  0.15560181875E+03  0.47000000000E+01 0. -1.
        -13    1    4    4    0    0  0.42982313432E+02  0.98656275695E+01 -0.10407418307E+03  0.11303205500E+03  0.00000000000E+00 0.  1.
         14    1    4    4    0    0  0.14015622070E+02 -0.70752496748E+02 -0.17698987956E+03  0.19112239776E+03  0.00000000000E+00 0. -1.
         -5    1    5    5    0  502 -0.84494609069E+01  0.24112926714E+02  0.29208620263E+02  0.39090409591E+02  0.47000000000E+01 0.  1.
         11    1    6    6    0    0 -0.23670091010E+02 -0.39811732150E+02 -0.10543197136E+03  0.11515705715E+03  0.00000000000E+00 0. -1.
        -12    1    6    6    0    0  0.11951206478E+02  0.31818205737E+02 -0.49945372799E+02  0.60413324827E+02  0.00000000000E+00 0.  1.
</event>
<event>
12    1  0.8313893E-002  0.1806544E+03  0.7818608E-02  0.1167442E+00
         21   -1    0    0  503  502  0.00000000000E+00  0.00000000000E+00  0.79593009852E+02  0.79593009852E+02  0.00000000000E+00 0. -1.
         21   -1    0    0  501  503 -0.00000000000E+00 -0.00000000000E+00 -0.41186054219E+03  0.41186054219E+03  0.00000000000E+00 0. -1.
          6    2    1    2  501    0  0.36975414201E+02 -0.33267673217E+02 -0.14033548061E+03  0.22787446393E+03  0.17250740522E+03 0.  0.
         24    2    3    3    0    0 -0.36903875210E+02 -0.28173372184E+02 -0.12298610969E+03  0.15166952984E+03  0.75646732916E+02 0.  0.
         -6    2    1    2    0  502 -0.36975414201E+02  0.33267673217E+02 -0.19193205173E+03  0.26357908812E+03  0.17367240390E+03 0.  0.
        -24    2    5    5    0    0 -0.32097676447E+02  0.41991676191E+02 -0.21664408348E+03  0.23651111688E+03  0.78799034233E+02 0.  0.
          5    1    3    3  501    0  0.73879289412E+02 -0.50943010336E+01 -0.17349370923E+02  0.76204934082E+02  0.47000000000E+01 0. -1.
        -13    1    4    4    0    0 -0.36707615209E+02 -0.72361340600E+01 -0.12847633880E+02  0.39558467447E+02  0.00000000000E+00 0.  1.
         14    1    4    4    0    0 -0.19626000183E+00 -0.20937238124E+02 -0.11013847581E+03  0.11211106240E+03  0.00000000000E+00 0. -1.
         -5    1    5    5    0  502 -0.48777377543E+01 -0.87240029735E+01  0.24712031756E+02  0.27067971239E+02  0.47000000000E+01 0.  1.
         13    1    6    6    0    0 -0.57506717936E+02  0.27153904834E+02 -0.12480697093E+03  0.14007546947E+03  0.00000000000E+00 0. -1.
        -14    1    6    6    0    0  0.25409041489E+02  0.14837771357E+02 -0.91837112554E+02  0.96435647406E+02  0.00000000000E+00 0.  1.
</event>
<event>
12    1  0.8313893E-002  0.1804276E+03  0.7818608E-02  0.1167395E+00
         21   -1    0    0  503  502  0.00000000000E+00  0.00000000000E+00  0.98201156032E+02  0.98201156032E+02  0.00000000000E+00 0.  1.
         21   -1    0    0  501  503 -0.00000000000E+00 -0.00000000000E+00 -0.70214462378E+03  0.70214462378E+03  0.00000000000E+00 0.  1.
          6    2    1    2  501    0  0.53481371912E+02  0.52810257469E+01 -0.59274154543E+03  0.61959394209E+03  0.17223811138E+03 0.  0.
         24    2    3    3    0    0  0.65263195797E+02 -0.52694183735E+02 -0.45685177801E+03  0.47131024379E+03  0.79898918080E+02 0.  0.
         -6    2    1    2    0  502 -0.53481371912E+02 -0.52810257469E+01 -0.11201922317E+02  0.18075183773E+03  0.17221381305E+03 0.  0.
        -24    2    5    5    0    0  0.33555043762E+02  0.16062469615E+02 -0.25431916790E+02  0.89892247203E+02  0.77781037687E+02 0.  0.
          5    1    3    3  501    0 -0.11781823884E+02  0.57975209482E+02 -0.13588976742E+03  0.14828369829E+03  0.47000000000E+01 0. -1.
        -11    1    4    4    0    0  0.33995457243E+02  0.12411773225E+02 -0.24083704957E+03  0.24354101847E+03  0.00000000000E+00 0.  1.
         12    1    4    4    0    0  0.31267738553E+02 -0.65105956961E+02 -0.21601472844E+03  0.22776922533E+03  0.00000000000E+00 0. -1.
         -5    1    5    5    0  502 -0.87036415674E+02 -0.21343495362E+02  0.14229994473E+02  0.90859590525E+02  0.47000000000E+01 0.  1.
         11    1    6    6    0    0  0.15988650469E+02 -0.25436808411E+02 -0.32519788871E+02  0.44274200548E+02  0.00000000000E+00 0. -1.
        -12    1    6    6    0    0  0.17566393293E+02  0.41499278026E+02  0.70878720808E+01  0.45618046655E+02  0.00000000000E+00 0.  1.
</event>
<event>
12    1  0.8313893E-002  0.1840552E+03  0.7818608E-02  0.1164239E+00
         21   -1    0    0  503  502  0.00000000000E+00  0.00000000000E+00  0.82786983522E+02  0.82786983522E+02  0.00000000000E+00 0.  1.
         21   -1    0    0  501  503 -0.00000000000E+00 -0.00000000000E+00 -0.49293243198E+03  0.49293243198E+03  0.00000000000E+00 0.  1.
          6    2    1    2  501    0 -0.15327535096E+02 -0.62898677896E+02 -0.32512652088E+03  0.37297684430E+03  0.17091897142E+03 0.  0.
         24    2    3    3    0    0 -0.38496454942E+02 -0.50331483250E+01 -0.28020650401E+03  0.29600206742E+03  0.87144875943E+02 0.  0.
         -6    2    1    2    0  502  0.15327535096E+02  0.62898677896E+02 -0.85018927585E+02  0.20274257121E+03  0.17229380465E+03 0.  0.
        -24    2    5    5    0    0 -0.49128216527E+02  0.68360363176E+02 -0.41815794881E+02  0.12481327891E+03  0.82116216290E+02 0.  0.
          5    1    3    3  501    0  0.23168919846E+02 -0.57865529571E+02 -0.44920016866E+02  0.76974776873E+02  0.47000000000E+01 0. -1.
        -13    1    4    4    0    0 -0.35409309189E+02 -0.38063456060E+02 -0.99365532283E+02  0.11214345665E+03  0.00000000000E+00 0.  1.
         14    1    4    4    0    0 -0.30871457526E+01  0.33030307735E+02 -0.18084097173E+03  0.18385861077E+03  0.00000000000E+00 0. -1.
         -5    1    5    5    0  502  0.64455751623E+02 -0.54616852798E+01 -0.43203132704E+02  0.77929292303E+02  0.47000000000E+01 0.  1.
         11    1    6    6    0    0 -0.32252130174E+02  0.30123879003E+00 -0.44123547828E+02  0.54655083190E+02  0.00000000000E+00 0. -1.
        -12    1    6    6    0    0 -0.16876086353E+02  0.68059124386E+02  0.23077529477E+01  0.70158195719E+02  0.00000000000E+00 0.  1.
</event>
<event>
12    1  0.8313893E-002  0.2339708E+03  0.7818608E-02  0.1124097E+00
         21   -1    0    0  503  502  0.00000000000E+00  0.00000000000E+00  0.17321363756E+03  0.17321363756E+03  0.00000000000E+00 0. -1.
         21   -1    0    0  501  503 -0.00000000000E+00 -0.00000000000E+00 -0.77049924423E+03  0.77049924423E+03  0.00000000000E+00 0. -1.
          6    2    1    2  501    0 -0.12146265973E+03  0.99419991555E+02 -0.66138273250E+03  0.70112110386E+03  0.17177360388E+03 0.  0.
         24    2    3    3    0    0  0.56659522283E+01  0.59190351456E+02 -0.32712585995E+03  0.34121854097E+03  0.76701784436E+02 0.  0.
         -6    2    1    2    0  502  0.12146265973E+03 -0.99419991555E+02  0.64097125840E+02  0.24259177794E+03  0.17350739682E+03 0.  0.
        -24    2    5    5    0    0  0.19799674135E+02 -0.10479359635E+03  0.32197393639E+02  0.13580263437E+03  0.77665683624E+02 0.  0.
          5    1    3    3  501    0 -0.12712861196E+03  0.40229640099E+02 -0.33425687256E+03  0.35990256289E+03  0.47000000000E+01 0. -1.
        -13    1    4    4    0    0  0.93826703988E+01  0.27476252737E+02 -0.27809609827E+02  0.40203897411E+02  0.00000000000E+00 0.  1.
         14    1    4    4    0    0 -0.37167181704E+01  0.31714098719E+02 -0.29931625012E+03  0.30101464356E+03  0.00000000000E+00 0. -1.
         -5    1    5    5    0  502  0.10166298560E+03  0.53736047952E+01  0.31899732201E+02  0.10678914357E+03  0.47000000000E+01 0.  1.
         11    1    6    6    0    0  0.98186256931E+01 -0.78838378009E+02  0.57606097626E+02  0.98134386131E+02  0.00000000000E+00 0. -1.
        -12    1    6    6    0    0  0.99810484415E+01 -0.25955218341E+02 -0.25408703987E+02  0.37668248239E+02  0.00000000000E+00 0.  1.
</event>
<event>
12    1  0.8313893E-002  0.2570033E+03  0.7818608E-02  0.1109044E+00
         21   -1    0    0  501  502  0.00000000000E+00  0.00000000000E+00  0.19635344907E+03  0.19635344907E+03  0.00000000000E+00 0.  1.
         21   -1    0    0  502  503 -0.00000000000E+00 -0.00000000000E+00 -0.73336592971E+03  0.73336592971E+03  0.00000000000E+00 0.  1.
         -6    2    1    2    0  503 -0.14586732144E+03  0.12398318434E+03  0.73692932941E+02  0.26735999505E+03  0.17146898589E+03 0.  0.
        -24    2    3    3    0    0 -0.43998105878E+01  0.38922536636E+02  0.33419016884E+01  0.87861449055E+02  0.78575719734E+02 0.  0.
          6    2    1    2  501    0  0.14586732144E+03 -0.12398318434E+03 -0.61070541358E+03  0.66235938373E+03  0.17061578349E+03 0.  0.
         24    2    5    5    0    0  0.11063632805E+02 -0.31064285857E+02 -0.28065364671E+03  0.29390013907E+03  0.80767744210E+02 0.  0.
          5    1    5    5  501    0  0.13480368864E+03 -0.92918898483E+02 -0.33005176687E+03  0.36845924467E+03  0.47000000000E+01 0. -1.
        -11    1    6    6    0    0  0.13389493057E+02 -0.55019834065E+02 -0.13695184977E+03  0.14819672675E+03  0.00000000000E+00 0.  1.
         12    1    6    6    0    0 -0.23258602520E+01  0.23955548208E+02 -0.14370179694E+03  0.14570341231E+03  0.00000000000E+00 0. -1.
         -5    1    3    3    0  503 -0.14146751085E+03  0.85060647704E+02  0.70351031252E+02  0.17949854599E+03  0.47000000000E+01 0.  1.
         11    1    4    4    0    0 -0.23611138445E+02  0.20020119814E+02 -0.31265157061E+02  0.43997739738E+02  0.00000000000E+00 0. -1.
        -12    1    4    4    0    0  0.19211327857E+02  0.18902416822E+02  0.34607058749E+02  0.43863709317E+02  0.00000000000E+00 0.  1.
</event>
<event>
12    1  0.8313893E-002  0.2352595E+03  0.7818608E-02  0.1122998E+00
         21   -1    0    0  503  502  0.00000000000E+00  0.00000000000E+00  0.15817482408E+03  0.15817482408E+03  0.00000000000E+00 0. -1.
         21   -1    0    0  501  503 -0.00000000000E+00 -0.00000000000E+00 -0.37692447909E+03  0.37692447909E+03  0.00000000000E+00 0. -1.
          6    2    1    2  501    0  0.14351943000E+03  0.71300016375E+02 -0.18106146786E+03  0.29684015269E+03  0.17218972671E+03 0.  0.
         24    2    3    3    0    0  0.10402018905E+02 -0.54757700535E+01 -0.43321926810E+02  0.90420585583E+02  0.78491444754E+02 0.  0.
         -6    2    1    2    0  502 -0.14351943000E+03 -0.71300016375E+02 -0.37688187159E+02  0.23825915048E+03  0.17223676789E+03 0.  0.
        -24    2    5    5    0    0 -0.11394933893E+03 -0.59105151969E+02  0.38535352570E+02  0.15546287633E+03  0.78777291701E+02 0.  0.
          5    1    3    3  501    0  0.13311741109E+03  0.76775786428E+02 -0.13773954105E+03  0.20641956711E+03  0.47000000000E+01 0. -1.
        -13    1    4    4    0    0  0.22284331033E+02  0.27557256734E+02 -0.42457369883E+02  0.55304810511E+02  0.00000000000E+00 0.  1.
         14    1    4    4    0    0 -0.11882312127E+02 -0.33033026788E+02 -0.86455692783E+00  0.35115775072E+02  0.00000000000E+00 0. -1.
         -5    1    5    5    0  502 -0.29570091064E+02 -0.12194864406E+02 -0.76223539729E+02  0.82796274145E+02  0.47000000000E+01 0.  1.
         11    1    6    6    0    0 -0.11760303547E+03 -0.66701184874E+02  0.22105510965E+02  0.13699699132E+03  0.00000000000E+00 0. -1.
        -12    1    6    6    0    0  0.36536965365E+01  0.75960329043E+01  0.16429841605E+02  0.18465885016E+02  0.00000000000E+00 0.  1.
</event>
<event>
12    1  0.8313893E-002  0.1937462E+03  0.7818608E-02  0.1155196E+00
         21   -1    0    0  503  502  0.00000000000E+00  0.00000000000E+00  0.65716331596E+02  0.65716331596E+02  0.00000000000E+00 0.  1.
         21   -1    0    0  501  503 -0.00000000000E+00 -0.00000000000E+00 -0.59521688896E+03  0.59521688896E+03  0.00000000000E+00 0.  1.
          6    2    1    2  501    0 -0.81357461088E+02 -0.36447383803E+02 -0.33262125965E+03  0.38493439304E+03  0.17201783719E+03 0.  0.
         24    2    3    3    0    0 -0.11443827311E+03 -0.60169547147E+02 -0.25086593413E+03  0.29348438260E+03  0.80516291339E+02 0.  0.
         -6    2    1    2    0  502  0.81357461088E+02  0.36447383803E+02 -0.19687929771E+03  0.27599882752E+03  0.17165793504E+03 0.  0.
        -24    2    5    5    0    0  0.55312593287E+01 -0.18019905569E+02 -0.15058300135E+03  0.17168326999E+03  0.80278222908E+02 0.  0.
          5    1    3    3  501    0  0.33080812018E+02  0.23722163345E+02 -0.81755325525E+02  0.91450010439E+02  0.47000000000E+01 0. -1.
        -13    1    4    4    0    0 -0.86515871065E+02 -0.68060211836E+02 -0.23701961944E+03  0.26133405515E+03  0.00000000000E+00 0.  1.
         14    1    4    4    0    0 -0.27922402041E+02  0.78906646884E+01 -0.13846314688E+02  0.32150327454E+02  0.00000000000E+00 0. -1.
         -5    1    5    5    0  502  0.75826201760E+02  0.54467289372E+02 -0.46296296366E+02  0.10431555753E+03  0.47000000000E+01 0.  1.
         13    1    6    6    0    0 -0.20254323105E+01 -0.98139236892E+01  0.79295806856E+01  0.12778643280E+02  0.00000000000E+00 0. -1.
        -14    1    6    6    0    0  0.75566916391E+01 -0.82059818798E+01 -0.15851258203E+03  0.15890462671E+03  0.00000000000E+00 0.  1.
</event>
<event>
12    1  0.8313893E-002  0.1958248E+03  0.7818608E-02  0.1153423E+00
         21   -1    0    0  503  502  0.00000000000E+00  0.00000000000E+00  0.41340576483E+03  0.41340576483E+03  0.00000000000E+00 0.  1.
         21   -1    0    0  501  503 -0.00000000000E+00 -0.00000000000E+00 -0.25655566136E+03  0.25655566136E+03  0.00000000000E+00 0. -1.
          6    2    1    2  501    0  0.86473230906E+01  0.92594629894E+02 -0.18939642381E+03  0.27243042832E+03  0.17233337239E+03 0.  0.
         24    2    3    3    0    0  0.13925603442E+02 -0.10963116912E+02 -0.46936694696E+02  0.96166615847E+02  0.82041771866E+02 0.  0.
         -6    2    1    2    0  502 -0.86473230906E+01 -0.92594629894E+02  0.34624652727E+03  0.39753099788E+03  0.17174310741E+03 0.  0.
        -24    2    5    5    0    0 -0.47005915430E+02  0.26394820644E+00  0.14857559632E+03  0.17574284653E+03  0.81247858627E+02 0.  0.
          5    1    3    3  501    0 -0.52782803518E+01  0.10355774681E+03 -0.14245972911E+03  0.17626381247E+03  0.47000000000E+01 0. -1.
        -13    1    4    4    0    0  0.78330124043E+01  0.69828216948E+01  0.22159443062E+02  0.24518499117E+02  0.00000000000E+00 0.  1.
         14    1    4    4    0    0  0.60925910380E+01 -0.17945938607E+02 -0.69096137757E+02  0.71648116730E+02  0.00000000000E+00 0. -1.
         -5    1    5    5    0  502  0.38358592340E+02 -0.92858578100E+02  0.19767093095E+03  0.22178815134E+03  0.47000000000E+01 0.  1.
         11    1    6    6    0    0 -0.43425862166E+02 -0.29325193310E+02  0.48777794659E+02  0.71589424633E+02  0.00000000000E+00 0. -1.
        -12    1    6    6    0    0 -0.35800532643E+01  0.29589141516E+02  0.99797801660E+02  0.10415342190E+03  0.00000000000E+00 0.  1.
</event>
<event>
12    1  0.8313893E-002  0.2474591E+03  0.7818608E-02  0.1115110E+00
         21   -1    0    0  503  502  0.00000000000E+00  0.00000000000E+00  0.17526619855E+03  0.17526619855E+03  0.00000000000E+00 0.  1.
         21   -1    0    0  501  503 -0.00000000000E+00 -0.00000000000E+00 -0.49098757539E+03  0.49098757539E+03  0.00000000000E+00 0.  1.
          6    2    1    2  501    0 -0.15433295686E+03  0.88444845255E+02  0.22349960305E+02  0.24729288750E+03  0.17033232007E+03 0.  0.
         24    2    3    3    0    0 -0.15171072288E+03  0.20489548048E+02 -0.85403434976E+01  0.17245239446E+03  0.78936213945E+02 0.  0.
         -6    2    1    2    0  502  0.15433295686E+03 -0.88444845255E+02 -0.33807133715E+03  0.41896088644E+03  0.17203151787E+03 0.  0.
        -24    2    5    5    0    0  0.16025761832E+03 -0.71519965085E+02 -0.19260803674E+03  0.27232114098E+03  0.79141255811E+02 0.  0.
          5    1    3    3  501    0 -0.26222339749E+01  0.67955297207E+02  0.30890303803E+02  0.74840493041E+02  0.47000000000E+01 0. -1.
        -11    1    4    4    0    0 -0.73716457331E+01  0.14573606920E+02  0.19353579792E+02  0.25323748345E+02  0.00000000000E+00 0.  1.
         12    1    4    4    0    0 -0.14433907715E+03  0.59159411281E+01 -0.27893923290E+02  0.14712864612E+03  0.00000000000E+00 0. -1.
         -5    1    5    5    0  502 -0.59246614687E+01 -0.16924880170E+02 -0.14546330040E+03  0.14663974545E+03  0.47000000000E+01 0.  1.
         13    1    6    6    0    0  0.13555076251E+03 -0.31090787079E+02 -0.11092291179E+03  0.17788911889E+03  0.00000000000E+00 0. -1.
        -14    1    6    6    0    0  0.24706855813E+02 -0.40429178006E+02 -0.81685124954E+02  0.94432022096E+02  0.00000000000E+00 0.  1.
</event>
<event>
12    1  0.8313893E-002  0.1822247E+03  0.7818608E-02  0.1165685E+00
         21   -1    0    0  501  502  0.00000000000E+00  0.00000000000E+00  0.20073725571E+03  0.20073725571E+03  0.00000000000E+00 0. -1.
         21   -1    0    0  502  503 -0.00000000000E+00 -0.00000000000E+00 -0.16685895640E+03  0.16685895640E+03  0.00000000000E+00 0.  1.
         -6    2    1    2    0  503  0.17137442901E+02  0.54456224603E+02  0.34402521970E+02  0.18544377015E+03  0.17305110813E+03 0.  0.
        -24    2    3    3    0    0  0.72984344424E+02  0.20485350921E+02 -0.72194852698E+01  0.10780757914E+03  0.76315064170E+02 0.  0.
          6    2    1    2  501    0 -0.17137442901E+02 -0.54456224603E+02 -0.52422266031E+00  0.18215244195E+03  0.17297417424E+03 0.  0.
         24    2    5    5    0    0 -0.59111117629E+02 -0.55873632920E+02 -0.43336301631E+02  0.12199629079E+03  0.79931676103E+02 0.  0.
          5    1    5    5  501    0  0.41973674729E+02  0.14174083171E+01  0.42812078971E+02  0.60156151160E+02  0.47000000000E+01 0. -1.
        -11    1    6    6    0    0  0.64239507362E+01 -0.43557746493E+02 -0.31827777020E+02  0.54328186171E+02  0.00000000000E+00 0.  1.
         12    1    6    6    0    0 -0.65535068366E+02 -0.12315886427E+02 -0.11508524611E+02  0.67668104620E+02  0.00000000000E+00 0. -1.
         -5    1    3    3    0  503 -0.55846901523E+02  0.33970873683E+02  0.41622007240E+02  0.77636191014E+02  0.47000000000E+01 0.  1.
         11    1    4    4    0    0  0.32736475475E+02  0.23775267912E+02  0.31947169373E+02  0.51551545289E+02  0.00000000000E+00 0. -1.
        -12    1    4    4    0    0  0.40247868949E+02 -0.32899169917E+01 -0.39166654643E+02  0.56256033851E+02  0.00000000000E+00 0.  1.
</event>
<event>
12    1  0.8313893E-002  0.1888520E+03  0.7818608E-02  0.1159632E+00
         21   -1    0    0  503  502  0.00000000000E+00  0.00000000000E+00  0.28384011711E+02  0.28384011711E+02  0.00000000000E+00 0. -1.
         21   -1    0    0  501  503 -0.00000000000E+00 -0.00000000000E+00 -0.12708197456E+04  0.12708197456E+04  0.00000000000E+00 0.  1.
          6    2    1    2  501    0 -0.48205825368E+02 -0.61413846509E+02 -0.69976866680E+03  0.72480428226E+03  0.17195812980E+03 0.  0.
         24    2    3    3    0    0  0.43455816425E+02 -0.20932891964E+02 -0.36792774931E+03  0.37813289784E+03  0.72712211957E+02 0.  0.
         -6    2    1    2    0  502  0.48205825368E+02  0.61413846509E+02 -0.54266706710E+03  0.57439947506E+03  0.17132352172E+03 0.  0.
        -24    2    5    5    0    0  0.38379939653E+02  0.82071492934E+02 -0.22704367113E+03  0.25791329137E+03  0.82229480987E+02 0.  0.
          5    1    3    3  501    0 -0.91661641793E+02 -0.40480954545E+02 -0.33184091749E+03  0.34667138442E+03  0.47000000000E+01 0. -1.
        -11    1    4    4    0    0  0.35297598311E+02  0.23220256108E+02 -0.18766534452E+03  0.19236263222E+03  0.00000000000E+00 0.  1.
         12    1    4    4    0    0  0.81582181135E+01 -0.44153148072E+02 -0.18026240480E+03  0.18577026563E+03  0.00000000000E+00 0. -1.
         -5    1    5    5    0  502  0.98258857148E+01 -0.20657646425E+02 -0.31562339597E+03  0.31648618369E+03  0.47000000000E+01 0.  1.
         11    1    6    6    0    0  0.40344723277E+02  0.98154246879E+02 -0.19502526885E+03  0.22202884580E+03  0.00000000000E+00 0. -1.
        -12    1    6    6    0    0 -0.19647836238E+01 -0.16082753945E+02 -0.32018402285E+02  0.35884445572E+02  0.00000000000E+00 0.  1.
</event>
<event>
12    1  0.8313893E-002  0.2284941E+03  0.7818608E-02  0.1127965E+00
         21   -1    0    0  503  502  0.00000000000E+00  0.00000000000E+00  0.11175365206E+04  0.11175365206E+04  0.00000000000E+00 0. -1.
         21   -1    0    0  501  503 -0.00000000000E+00 -0.00000000000E+00 -0.89724377191E+02  0.89724377191E+02  0.00000000000E+00 0.  1.
          6    2    1    2  501    0 -0.38447991941E+02 -0.14434057455E+03  0.95403800378E+02  0.24761146487E+03  0.17290778716E+03 0.  0.
         24    2    3    3    0    0  0.11767214142E+02 -0.88161726605E+02 -0.57033578752E+01  0.12142756206E+03  0.82469189211E+02 0.  0.
         -6    2    1    2    0  502  0.38447991941E+02  0.14434057455E+03  0.93240834301E+03  0.95964943290E+03  0.17096568782E+03 0.  0.
        -24    2    5    5    0    0 -0.22955291990E+02  0.95009643348E+02  0.36094336190E+03  0.38276277273E+03  0.81691198602E+02 0.  0.
          5    1    3    3  501    0 -0.50215206083E+02 -0.56178847945E+02  0.10110715825E+03  0.12618390281E+03  0.47000000000E+01 0. -1.
        -13    1    4    4    0    0  0.93233469422E+01 -0.92837973273E+02  0.19801217636E+02  0.95382924570E+02  0.00000000000E+00 0.  1.
         14    1    4    4    0    0  0.24438671997E+01  0.46762466675E+01 -0.25504575511E+02  0.26044637486E+02  0.00000000000E+00 0. -1.
         -5    1    5    5    0  502  0.61403283930E+02  0.49330931202E+02  0.57146498111E+03  0.57688666017E+03  0.47000000000E+01 0.  1.
         13    1    6    6    0    0 -0.11423727335E+02 -0.12912429351E+02  0.31615657550E+02  0.36010861977E+02  0.00000000000E+00 0. -1.
        -14    1    6    6    0    0 -0.11531564655E+02  0.10792207270E+03  0.32932770435E+03  0.34675191076E+03  0.00000000000E+00 0.  1.
</event>
<event>
12    1  0.8313893E-002  0.2035561E+03  0.7818608E-02  0.1147333E+00
         21   -1    0    0  501  502  0.00000000000E+00  0.00000000000E+00  0.24262947996E+03  0.24262947996E+03  0.00000000000E+00 0.  1.
         21   -1    0    0  502  503 -0.00000000000E+00 -0.00000000000E+00 -0.18889547451E+03  0.18889547451E+03  0.00000000000E+00 0.  1.
         -6    2    1    2    0  503  0.26473591010E+02 -0.10362564087E+03 -0.44153529889E+02  0.20565542770E+03  0.17001616475E+03 0.  0.
        -24    2    3    3    0    0  0.34773365859E+02 -0.17944357633E+02  0.28225813584E+02  0.93089767217E+02  0.79610434392E+02 0.  0.
          6    2    1    2  501    0 -0.26473591010E+02  0.10362564087E+03  0.97887535336E+02  0.22586952676E+03  0.17319338636E+03 0.  0.
         24    2    5    5    0    0 -0.63830040918E+02  0.68661849200E+02  0.11762132049E+03  0.17082878409E+03  0.80987497691E+02 0.  0.
          5    1    5    5  501    0  0.37356449908E+02  0.34963791666E+02 -0.19733785149E+02  0.55040742670E+02  0.47000000000E+01 0. -1.
        -13    1    6    6    0    0 -0.79667903200E+02  0.53598789013E+02  0.71259651814E+02  0.11957316990E+03  0.00000000000E+00 0.  1.
         14    1    6    6    0    0  0.15837862282E+02  0.15063060187E+02  0.46361668671E+02  0.51255614188E+02  0.00000000000E+00 0. -1.
         -5    1    3    3    0  503 -0.82997748490E+01 -0.85681283233E+02 -0.72379343473E+02  0.11256566049E+03  0.47000000000E+01 0.  1.
         13    1    4    4    0    0 -0.19819691315E+02  0.64158143321E+01 -0.89699730023E+01  0.22681341517E+02  0.00000000000E+00 0. -1.
        -14    1    4    4    0    0  0.54593057174E+02 -0.24360171965E+02  0.37195786586E+02  0.70408425700E+02  0.00000000000E+00 0.  1.
</event>
<event>
12    1  0.8313893E-002  0.3162437E+03  0.7818608E-02  0.1077407E+00
         21   -1    0    0  503  502  0.00000000000E+00  0.00000000000E+00  0.21055322220E+03  0.21055322220E+03  0.00000000000E+00 0.  1.
         21   -1    0    0  501  503 -0.00000000000E+00 -0.00000000000E+00 -0.65637978128E+03  0.65637978128E+03  0.00000000000E+00 0.  1.
          6    2    1    2  501    0  0.16834253890E+03  0.20431277954E+03 -0.45094394405E+03  0.55078174990E+03  0.17299471975E+03 0.  0.
         24    2    3    3    0    0  0.12338012076E+03  0.44180674146E+02 -0.22141615488E+03  0.26728747090E+03  0.72407819282E+02 0.  0.
         -6    2    1    2    0  502 -0.16834253890E+03 -0.20431277954E+03  0.51173849721E+01  0.31615125359E+03  0.17274983423E+03 0.  0.
        -24    2    5    5    0    0 -0.13828563708E+03 -0.13485387025E+03 -0.58163035584E+02  0.21738658858E+03  0.81027812780E+02 0.  0.
          5    1    3    3  501    0  0.44962418145E+02  0.16013210539E+03 -0.22952778917E+03  0.28349427900E+03  0.47000000000E+01 0. -1.
        -11    1    4    4    0    0  0.91275838965E+01  0.10140898948E+02 -0.85135510857E+02  0.86221840784E+02  0.00000000000E+00 0.  1.
         12    1    4    4    0    0  0.11425253686E+03  0.34039775199E+02 -0.13628064402E+03  0.18106563012E+03  0.00000000000E+00 0. -1.
         -5    1    5    5    0  502 -0.30056901823E+02 -0.69458909294E+02  0.63280420557E+02  0.98764665004E+02  0.47000000000E+01 0.  1.
         13    1    6    6    0    0 -0.61945345874E+02 -0.11444221504E+02 -0.64004364977E+01  0.63317941127E+02  0.00000000000E+00 0. -1.
        -14    1    6    6    0    0 -0.76340291206E+02 -0.12340964874E+03 -0.51762599087E+02  0.15406864746E+03  0.00000000000E+00 0.  1.
</event>
<event>
12    1  0.8313893E-002  0.2331029E+03  0.7818608E-02  0.1124779E+00
         21   -1    0    0  501  502  0.00000000000E+00  0.00000000000E+00  0.11903784660E+03  0.11903784660E+03  0.00000000000E+00 0. -1.
         21   -1    0    0  502  503 -0.00000000000E+00 -0.00000000000E+00 -0.53651514063E+03  0.53651514063E+03  0.00000000000E+00 0.  1.
         -6    2    1    2    0  503  0.64325414310E+02 -0.13907647660E+03 -0.33736405566E+03  0.40906749326E+03  0.17332536666E+03 0.  0.
        -24    2    3    3    0    0  0.87327695918E+02 -0.15500689967E+03 -0.24769256361E+03  0.31501458356E+03  0.78926018311E+02 0.  0.
          6    2    1    2  501    0 -0.64325414310E+02  0.13907647660E+03 -0.80113238372E+02  0.24648549397E+03  0.17566144285E+03 0.  0.
         24    2    5    5    0    0 -0.36486357467E+02  0.23834312246E+02 -0.89827806134E+02  0.12743830854E+03  0.79196963377E+02 0.  0.
          5    1    5    5  501    0 -0.27839056843E+02  0.11524216435E+03  0.97145677627E+01  0.11904718543E+03  0.47000000000E+01 0. -1.
        -13    1    6    6    0    0 -0.32702379345E+02  0.20577290614E+02 -0.11858658711E+01  0.38655876419E+02  0.00000000000E+00 0.  1.
         14    1    6    6    0    0 -0.37839781217E+01  0.32570216316E+01 -0.88641940263E+02  0.88782432125E+02  0.00000000000E+00 0. -1.
         -5    1    3    3    0  503 -0.23002281608E+02  0.15930423069E+02 -0.89671492049E+02  0.94052909708E+02  0.47000000000E+01 0.  1.
         11    1    4    4    0    0  0.75118347641E+02 -0.53341935399E+02 -0.12255694743E+03  0.15332427592E+03  0.00000000000E+00 0. -1.
        -12    1    4    4    0    0  0.12209348276E+02 -0.10166496427E+03 -0.12513561618E+03  0.16169030763E+03  0.00000000000E+00 0.  1.
</event>
<event>
12    1  0.8313893E-002  0.1832792E+03  0.7818608E-02  0.1164795E+00
         21   -1    0    0  503  502  0.00000000000E+00  0.00000000000E+00  0.23787119865E+02  0.23787119865E+02  0.00000000000E+00 0.  1.
         21   -1    0    0  501  503 -0.00000000000E+00 -0.00000000000E+00 -0.14386873995E+04  0.14386873995E+04  0.00000000000E+00 0.  1.
          6    2    1    2  501    0  0.30202012804E+02  0.56096917518E+02 -0.81325420616E+03  0.83353155765E+03  0.17127004418E+03 0.  0.
         24    2    3    3    0    0  0.24455410259E+02  0.44736823598E+02 -0.21862448397E+03  0.23874699860E+03  0.81265083970E+02 0.  0.
         -6    2    1    2    0  502 -0.30202012804E+02 -0.56096917518E+02 -0.60164607346E+03  0.62894296170E+03  0.17184942720E+03 0.  0.
        -24    2    5    5    0    0 -0.79061307438E+02 -0.25634433279E+02 -0.44284469302E+03  0.45996023463E+03  0.92434738063E+02 0.  0.
          5    1    3    3  501    0  0.57466025451E+01  0.11360093920E+02 -0.59462972219E+03  0.59478455905E+03  0.47000000000E+01 0. -1.
        -13    1    4    4    0    0 -0.29190464457E+01  0.62972125617E+02 -0.14278311405E+03  0.15608019444E+03  0.00000000000E+00 0.  1.
         14    1    4    4    0    0  0.27374456704E+02 -0.18235302019E+02 -0.75841369917E+02  0.82666804163E+02  0.00000000000E+00 0. -1.
         -5    1    5    5    0  502  0.48859294634E+02 -0.30462484239E+02 -0.15880138045E+03  0.16898272707E+03  0.47000000000E+01 0.  1.
         11    1    6    6    0    0  0.28689778789E+01  0.19314362931E+02 -0.17886489488E+03  0.17992755840E+03  0.00000000000E+00 0. -1.
        -12    1    6    6    0    0 -0.81930285317E+02 -0.44948796210E+02 -0.26397979813E+03  0.28003267623E+03  0.00000000000E+00 0.  1.
</event>
<event>
12    1  0.8313893E-002  0.2077457E+03  0.7818608E-02  0.1143459E+00
         21   -1    0    0  503  502  0.00000000000E+00  0.00000000000E+00  0.95080325966E+02  0.95080325966E+02  0.00000000000E+00 0.  1.
         21   -1    0    0  501  503 -0.00000000000E+00 -0.00000000000E+00 -0.45484998274E+03  0.45484998274E+03  0.00000000000E+00 0.  1.
          6    2    1    2  501    0  0.10564291183E+03 -0.52784149886E+02 -0.19820784394E+03  0.28713174108E+03  0.17091429442E+03 0.  0.
         24    2    3    3    0    0  0.20765940684E+02 -0.11441896603E+01 -0.22537913801E+02  0.85258513340E+02  0.79552014908E+02 0.  0.
         -6    2    1    2    0  502 -0.10564291183E+03  0.52784149886E+02 -0.16156181284E+03  0.26279856763E+03  0.17033577570E+03 0.  0.
        -24    2    5    5    0    0 -0.67507438067E+02 -0.21433386218E+02 -0.37906742735E+02  0.11354970369E+03  0.80249422585E+02 0.  0.
          5    1    3    3  501    0  0.84876971144E+02 -0.51639960225E+02 -0.17566993014E+03  0.20187322774E+03  0.47000000000E+01 0. -1.
        -13    1    4    4    0    0  0.49964585878E+02 -0.11377939672E+02 -0.15367569603E+02  0.53498406973E+02  0.00000000000E+00 0.  1.
         14    1    4    4    0    0 -0.29198645194E+02  0.10233750012E+02 -0.71703441981E+01  0.31760106366E+02  0.00000000000E+00 0. -1.
         -5    1    5    5    0  502 -0.38135473761E+02  0.74217536103E+02 -0.12365507010E+03  0.14924886394E+03  0.47000000000E+01 0.  1.
         13    1    6    6    0    0  0.16592058468E+02  0.15142290812E+01 -0.17207642747E+02  0.23951873890E+02  0.00000000000E+00 0. -1.
        -14    1    6    6    0    0 -0.84099496535E+02 -0.22947615299E+02 -0.20699099988E+02  0.89597829805E+02  0.00000000000E+00 0.  1.
</event>
<event>
12    1  0.8313893E-002  0.3194140E+03  0.7818608E-02  0.1076386E+00
         21   -1    0    0  503  502  0.00000000000E+00  0.00000000000E+00  0.31360239176E+03  0.31360239176E+03  0.00000000000E+00 0. -1.
         21   -1    0    0  501  503 -0.00000000000E+00 -0.00000000000E+00 -0.45870018083E+03  0.45870018083E+03  0.00000000000E+00 0.  1.
          6    2    1    2  501    0 -0.26749766125E+03 -0.29468985809E+02 -0.28424992077E+03  0.42757840402E+03  0.17205189399E+03 0.  0.
         24    2    3    3    0    0 -0.25483864258E+03 -0.11973185450E+02 -0.18295425098E+03  0.32389978278E+03  0.79703954796E+02 0.  0.
         -6    2    1    2    0  502  0.26749766125E+03  0.29468985809E+02  0.13915213170E+03  0.34472416857E+03  0.16446281264E+03 0.  0.
        -24    2    5    5    0    0  0.27053003197E+03 -0.25566734511E+01  0.13321716769E+03  0.31167644669E+03  0.78755056210E+02 0.  0.
          5    1    3    3  501    0 -0.12659018667E+02 -0.17495800359E+02 -0.10129566979E+03  0.10367862124E+03  0.47000000000E+01 0. -1.
        -13    1    4    4    0    0 -0.25370631064E+03 -0.59075943177E+01 -0.18808399571E+03  0.31587557862E+03  0.00000000000E+00 0.  1.
         14    1    4    4    0    0 -0.11323319385E+01 -0.60655911322E+01  0.51297447239E+01  0.80242041558E+01  0.00000000000E+00 0. -1.
         -5    1    5    5    0  502 -0.30323707235E+01  0.32025659260E+02  0.59349640097E+01  0.33047721874E+02  0.47000000000E+01 0.  1.
         11    1    6    6    0    0  0.89965775452E+02 -0.36365469696E+02  0.58877289611E+02  0.11350252584E+03  0.00000000000E+00 0. -1.
        -12    1    6    6    0    0  0.18056425652E+03  0.33808796245E+02  0.74339878079E+02  0.19817392086E+03  0.00000000000E+00 0.  1.
</event>
<event>
12    1  0.8313893E-002  0.1839466E+03  0.7818608E-02  0.1165175E+00
         21   -1    0    0  501  502  0.00000000000E+00  0.00000000000E+00  0.12952763026E+03  0.12952763026E+03  0.00000000000E+00 0.  1.
         21   -1    0    0  502  503 -0.00000000000E+00 -0.00000000000E+00 -0.31583524114E+03  0.31583524114E+03  0.00000000000E+00 0.  1.
         -6    2    1    2    0  503  0.18216806118E+02  0.62094946783E+02 -0.19029283535E+03  0.26137312517E+03  0.16708355076E+03 0.  0.
        -24    2    3    3    0    0  0.11517015375E+02  0.10286263133E+03 -0.10745758091E+03  0.16868730814E+03  0.78707773854E+02 0.  0.
          6    2    1    2  501    0 -0.18216806118E+02 -0.62094946783E+02  0.39852244801E+01  0.18398974623E+03  0.17218800848E+03 0.  0.
         24    2    5    5    0    0  0.12855980650E+02 -0.30864288972E+02  0.65087551249E+02  0.10851487358E+03  0.80132439679E+02 0.  0.
          5    1    5    5  501    0 -0.31072786768E+02 -0.31230657812E+02 -0.61102326769E+02  0.75474872650E+02  0.47000000000E+01 0. -1.
        -13    1    6    6    0    0 -0.31207380811E+02 -0.18103793548E+02  0.46889925049E+02  0.59163443350E+02  0.00000000000E+00 0.  1.
         14    1    6    6    0    0  0.44063361462E+02 -0.12760495424E+02  0.18197626200E+02  0.49351430233E+02  0.00000000000E+00 0. -1.
         -5    1    3    3    0  503  0.66997907433E+01 -0.40767684550E+02 -0.82835254443E+02  0.92685817028E+02  0.47000000000E+01 0.  1.
         13    1    4    4    0    0 -0.13886886158E+02  0.32324864398E+02  0.28678630900E+01  0.35298259224E+02  0.00000000000E+00 0. -1.
        -14    1    4    4    0    0  0.25403901532E+02  0.70537766935E+02 -0.11032544400E+03  0.13338904892E+03  0.00000000000E+00 0.  1.
</event>
<event>
12    1  0.8313893E-002  0.2046536E+03  0.7818608E-02  0.1145922E+00
         21   -1    0    0  501  502  0.00000000000E+00  0.00000000000E+00  0.73559298428E+03  0.73559298428E+03  0.00000000000E+00 0.  1.
         21   -1    0    0  502  503 -0.00000000000E+00 -0.00000000000E+00 -0.29858172301E+03  0.29858172301E+03  0.00000000000E+00 0.  1.
         -6    2    1    2    0  503 -0.10971127690E+03  0.13091716392E+02 -0.24676455760E+03  0.32042931779E+03  0.17197163573E+03 0.  0.
        -24    2    3    3    0    0 -0.67450455350E+02 -0.51183418499E+02 -0.95109605879E+02  0.15031587216E+03  0.79873137140E+02 0.  0.
          6    2    1    2  501    0  0.10971127690E+03 -0.13091716392E+02  0.68377581887E+03  0.71374538950E+03  0.17226477658E+03 0.  0.
         24    2    5    5    0    0  0.13910071784E+03 -0.16364389282E+02  0.64396715710E+03  0.66393304988E+03  0.80601441446E+02 0.  0.
          5    1    5    5  501    0 -0.29389440940E+02  0.32726728904E+01  0.39808661773E+02  0.49812339624E+02  0.47000000000E+01 0. -1.
        -13    1    6    6    0    0  0.11511744001E+03 -0.11734324730E+02  0.34333339936E+03  0.36230862877E+03  0.00000000000E+00 0.  1.
         14    1    6    6    0    0  0.23983277826E+02 -0.46300645523E+01  0.30063375774E+03  0.30162442111E+03  0.00000000000E+00 0. -1.
         -5    1    3    3    0  503 -0.42260821547E+02  0.64275134890E+02 -0.15165495172E+03  0.17011344563E+03  0.47000000000E+01 0.  1.
         13    1    4    4    0    0 -0.11583973556E+02 -0.22030533895E+02  0.10755898445E+02  0.27114981439E+02  0.00000000000E+00 0. -1.
        -14    1    4    4    0    0 -0.55866481794E+02 -0.29152884603E+02 -0.10586550432E+03  0.12320089072E+03  0.00000000000E+00 0.  1.
</event>
<event>
12    1  0.8313893E-002  0.3221494E+03  0.7818608E-02  0.1074865E+00
         21   -1    0    0  501  502  0.00000000000E+00  0.00000000000E+00  0.64867591954E+03  0.64867591954E+03  0.00000000000E+00 0.  1.
         21   -1    0    0  502  503 -0.00000000000E+00 -0.00000000000E+00 -0.49889292716E+03  0.49889292716E+03  0.00000000000E+00 0. -1.
         -6    2    1    2    0  503 -0.27342885052E+03  0.40944240143E+00 -0.39856434263E+03  0.51247805534E+03  0.17034294247E+03 0.  0.
        -24    2    3    3    0    0 -0.10631572239E+03 -0.58176526278E+02 -0.17371656658E+03  0.22623039035E+03  0.79468251364E+02 0.  0.
          6    2    1    2  501    0  0.27342885052E+03 -0.40944240143E+00  0.54834733501E+03  0.63509079137E+03  0.16700901031E+03 0.  0.
         24    2    5    5    0    0  0.25577539764E+03  0.36762905566E+02  0.41719184743E+03  0.49755068895E+03  0.82067565102E+02 0.  0.
          5    1    5    5  501    0  0.17653452881E+02 -0.37172347968E+02  0.13115548758E+03  0.13754010242E+03  0.47000000000E+01 0. -1.
        -11    1    6    6    0    0  0.92541222186E+02 -0.43727018777E+01  0.87814849389E+02  0.12764970074E+03  0.00000000000E+00 0.  1.
         12    1    6    6    0    0  0.16323417546E+03  0.41135607444E+02  0.32937699805E+03  0.36990098821E+03  0.00000000000E+00 0. -1.
         -5    1    3    3    0  503 -0.16711312813E+03  0.58585968679E+02 -0.22484777604E+03  0.28624766499E+03  0.47000000000E+01 0.  1.
         11    1    4    4    0    0 -0.90645678780E+02 -0.26007246199E+02 -0.72727930242E+02  0.11908974672E+03  0.00000000000E+00 0. -1.
        -12    1    4    4    0    0 -0.15670043614E+02 -0.32169280078E+02 -0.10098863634E+03  0.10714064363E+03  0.00000000000E+00 0.  1.
</event>
<event>
12    1  0.8313893E-002  0.2058878E+03  0.7818608E-02  0.1144871E+00
         21   -1    0    0  501  502  0.00000000000E+00  0.00000000000E+00  0.10616307018E+04  0.10616307018E+04  0.00000000000E+00 0.  1.
         21   -1    0    0  502  503 -0.00000000000E+00 -0.00000000000E+00 -0.75999732404E+02  0.75999732404E+02  0.00000000000E+00 0.  1.
         -6    2    1    2    0  503  0.10172194930E+03 -0.47116640969E+02  0.10089187121E+03  0.22925108367E+03  0.17265444351E+03 0.  0.
        -24    2    3    3    0    0  0.46561001540E+02 -0.50088275371E+02  0.12944392376E+03  0.16689027487E+03  0.80124105330E+02 0.  0.
          6    2    1    2  501    0 -0.10172194930E+03  0.47116640969E+02  0.88473909820E+03  0.90837935054E+03  0.17269174786E+03 0.  0.
         24    2    5    5    0    0 -0.90723067533E+02 -0.26161818695E+02  0.42254544588E+03  0.44025995306E+03  0.79806370026E+02 0.  0.
          5    1    5    5  501    0 -0.10998881771E+02  0.73278459664E+02  0.46219365232E+03  0.46811939748E+03  0.47000000000E+01 0. -1.
        -11    1    6    6    0    0 -0.67593963955E+02 -0.15915414748E+02  0.40118559188E+03  0.40715122930E+03  0.00000000000E+00 0.  1.
         12    1    6    6    0    0 -0.23129103578E+02 -0.10246403947E+02  0.21359853999E+02  0.33108723760E+02  0.00000000000E+00 0. -1.
         -5    1    3    3    0  503  0.55160947764E+02  0.29716344025E+01 -0.28552052553E+02  0.62360808800E+02  0.47000000000E+01 0.  1.
         11    1    4    4    0    0 -0.10756152491E+02  0.79200225851E+01 -0.62389306767E+00  0.13372016180E+02  0.00000000000E+00 0. -1.
        -12    1    4    4    0    0  0.57317154031E+02 -0.58008297957E+02  0.13006781683E+03  0.15351825869E+03  0.00000000000E+00 0.  1.
</event>
<event>
12    1  0.8313893E-002  0.1864335E+03  0.7818608E-02  0.1161734E+00
         21   -1    0    0  501  502  0.00000000000E+00  0.00000000000E+00  0.32385089827E+03  0.32385089827E+03  0.00000000000E+00 0. -1.
         21   -1    0    0  502  503 -0.00000000000E+00 -0.00000000000E+00 -0.11101957853E+03  0.11101957853E+03  0.00000000000E+00 0. -1.
         -6    2    1    2    0  503 -0.35761141420E+02  0.61843435862E+02  0.14631109725E+03  0.23699029274E+03  0.17220334457E+03 0.  0.
        -24    2    3    3    0    0  0.38417144564E+02  0.66916391796E+02  0.79505634365E+02  0.13692425023E+03  0.80457590799E+02 0.  0.
          6    2    1    2  501    0  0.35761141420E+02 -0.61843435862E+02  0.66520222491E+02  0.19788018405E+03  0.17212831680E+03 0.  0.
         24    2    5    5    0    0  0.71920454778E+02 -0.60975399643E+02  0.94044905879E+02  0.15218611852E+03  0.73658802401E+02 0.  0.
          5    1    5    5  501    0 -0.36159313358E+02 -0.86803621932E+00 -0.27524683388E+02  0.45694065534E+02  0.47000000000E+01 0. -1.
        -11    1    6    6    0    0  0.58155316570E+02 -0.71551213122E+02  0.50098508736E+02  0.10493558749E+03  0.00000000000E+00 0.  1.
         12    1    6    6    0    0  0.13765138208E+02  0.10575813479E+02  0.43946397143E+02  0.47250531029E+02  0.00000000000E+00 0. -1.
         -5    1    3    3    0  503 -0.74178285984E+02 -0.50729559340E+01  0.66805462886E+02  0.10006604252E+03  0.47000000000E+01 0.  1.
         13    1    4    4    0    0 -0.11926787940E+01  0.59740740649E+02  0.16209823433E+02  0.61912332792E+02  0.00000000000E+00 0. -1.
        -14    1    4    4    0    0  0.39609823358E+02  0.71756511470E+01  0.63295810932E+02  0.75011917435E+02  0.00000000000E+00 0.  1.
</event>
<event>
12    1  0.8313893E-002  0.2362835E+03  0.7818608E-02  0.1122514E+00
         21   -1    0    0  503  502  0.00000000000E+00  0.00000000000E+00  0.99262991705E+02  0.99262991705E+02  0.00000000000E+00 0. -1.
         21   -1    0    0  501  503 -0.00000000000E+00 -0.00000000000E+00 -0.59661461407E+03  0.59661461407E+03  0.00000000000E+00 0.  1.
          6    2    1    2  501    0  0.65975411221E+01 -0.15875173004E+03 -0.33496938807E+03  0.40917590297E+03  0.17313228839E+03 0.  0.
         24    2    3    3    0    0 -0.52029812136E+02 -0.99754541018E+02 -0.15410665972E+03  0.21004968327E+03  0.87829021792E+02 0.  0.
         -6    2    1    2    0  502 -0.65975411221E+01  0.15875173004E+03 -0.16238223429E+03  0.28670170280E+03  0.17488349561E+03 0.  0.
        -24    2    5    5    0    0 -0.44638107139E+02  0.87315440750E+02 -0.31084397061E+02  0.13239214331E+03  0.83336025023E+02 0.  0.
          5    1    3    3  501    0  0.58627353258E+02 -0.58997189024E+02 -0.18086272835E+03  0.19912621970E+03  0.47000000000E+01 0. -1.
        -11    1    4    4    0    0 -0.60200826790E+02 -0.56914537329E+02 -0.14264313984E+03  0.16495596215E+03  0.00000000000E+00 0.  1.
         12    1    4    4    0    0  0.81710146545E+01 -0.42840003689E+02 -0.11463519876E+02  0.45093721121E+02  0.00000000000E+00 0. -1.
         -5    1    5    5    0  502  0.38040566017E+02  0.71436289292E+02 -0.13129783723E+03  0.15430955950E+03  0.47000000000E+01 0.  1.
         11    1    6    6    0    0  0.10154654657E+02  0.30033632646E+02  0.20557848582E+02  0.37785727986E+02  0.00000000000E+00 0. -1.
        -12    1    6    6    0    0 -0.54792761796E+02  0.57281808104E+02 -0.51642245643E+02  0.94606415322E+02  0.00000000000E+00 0.  1.
</event>
<event>
12    1  0.8313893E-002  0.2593067E+03  0.7818608E-02  0.1107870E+00
         21   -1    0    0  501  502  0.00000000000E+00  0.00000000000E+00  0.60266967382E+03  0.60266967382E+03  0.00000000000E+00 0. -1.
         21   -1    0    0  502  503 -0.00000000000E+00 -0.00000000000E+00 -0.14299600962E+03  0.14299600962E+03  0.00000000000E+00 0.  1.
         -6    2    1    2    0  503  0.17661214914E+03 -0.73959436688E+02  0.53335886904E+02  0.26473510087E+03  0.17486596953E+03 0.  0.
        -24    2    3    3    0    0  0.21325760709E+02 -0.44498959575E+02 -0.12691341768E+02  0.93377384176E+02  0.78251646926E+02 0.  0.
          6    2    1    2  501    0 -0.17661214914E+03  0.73959436688E+02  0.40633777730E+03  0.48093058257E+03  0.17181963359E+03 0.  0.
         24    2    5    5    0    0 -0.18260631706E+03  0.10494685984E+03  0.36810770566E+03  0.43113320492E+03  0.77547707894E+02 0.  0.
          5    1    5    5  501    0  0.59941679145E+01 -0.30987423156E+02  0.38230071643E+02  0.49797377649E+02  0.47000000000E+01 0. -1.
        -11    1    6    6    0    0 -0.17121784105E+02  0.41284486756E+02  0.50926615240E+02  0.67757541850E+02  0.00000000000E+00 0.  1.
         12    1    6    6    0    0 -0.16548453295E+03  0.63662373088E+02  0.31718109042E+03  0.36337566307E+03  0.00000000000E+00 0. -1.
         -5    1    3    3    0  503  0.15528638843E+03 -0.29460477113E+02  0.66027228672E+02  0.17135771669E+03  0.47000000000E+01 0.  1.
         13    1    4    4    0    0 -0.28424392871E+02 -0.24884338651E+02  0.22718490296E+01  0.37846237834E+02  0.00000000000E+00 0. -1.
        -14    1    4    4    0    0  0.49750153580E+02 -0.19614620924E+02 -0.14963190798E+02  0.55531146342E+02  0.00000000000E+00 0.  1.
</event>
<event>
12    1  0.8313893E-002  0.2158568E+03  0.7818608E-02  0.1137394E+00
         21   -1    0    0  503  502  0.00000000000E+00  0.00000000000E+00  0.15066090568E+04  0.15066090568E+04  0.00000000000E+00 0. -1.
         21   -1    0    0  501  503 -0.00000000000E+00 -0.00000000000E+00 -0.35773555804E+02  0.35773555804E+02  0.00000000000E+00 0.  1.
          6    2    1    2  501    0 -0.30021184094E+02  0.12099955723E+03  0.44036323722E+03  0.48954490532E+03  0.17375922791E+03 0.  0.
         24    2    3    3    0    0 -0.75383119578E+02  0.79157075221E+02  0.38068712886E+03  0.40356917386E+03  0.77439852352E+02 0.  0.
         -6    2    1    2    0  502  0.30021184094E+02 -0.12099955723E+03  0.10304722638E+04  0.10528377073E+04  0.17621574028E+03 0.  0.
        -24    2    5    5    0    0 -0.31973719105E+02 -0.81296927971E+02  0.82725564473E+03  0.83664623879E+03  0.89406475917E+02 0.  0.
          5    1    3    3  501    0  0.45361935483E+02  0.41842482010E+02  0.59676108357E+02  0.85975731461E+02  0.47000000000E+01 0. -1.
        -11    1    4    4    0    0 -0.15747478440E+02 -0.40614993643E+01  0.10201101483E+02  0.19197430186E+02  0.00000000000E+00 0.  1.
         12    1    4    4    0    0 -0.59635641138E+02  0.83218574585E+02  0.37048602738E+03  0.38437174367E+03  0.00000000000E+00 0. -1.
         -5    1    5    5    0  502  0.61994903199E+02 -0.39702629260E+02  0.20321661908E+03  0.21619146852E+03  0.47000000000E+01 0.  1.
         13    1    6    6    0    0 -0.45945508139E+02 -0.78506777919E+01  0.42062149778E+03  0.42319625147E+03  0.00000000000E+00 0. -1.
        -14    1    6    6    0    0  0.13971789034E+02 -0.73446250179E+02  0.40663414695E+03  0.41344998732E+03  0.00000000000E+00 0.  1.
</event>
<event>
12    1  0.8313893E-002  0.2146415E+03  0.7818608E-02  0.1138786E+00
         21   -1    0    0  503  502  0.00000000000E+00  0.00000000000E+00  0.63930377880E+02  0.63930377880E+02  0.00000000000E+00 0. -1.
         21   -1    0    0  501  503 -0.00000000000E+00 -0.00000000000E+00 -0.71564821367E+03  0.71564821367E+03  0.00000000000E+00 0. -1.
          6    2    1    2  501    0  0.11179570882E+03 -0.55561994502E+02 -0.36746461749E+03  0.42338924700E+03  0.16924181995E+03 0.  0.
         24    2    3    3    0    0  0.38577085760E+02  0.30885015169E+02 -0.13209499515E+03  0.16213266551E+03  0.79973981872E+02 0.  0.
         -6    2    1    2    0  502 -0.11179570882E+03  0.55561994502E+02 -0.28425321829E+03  0.35618934455E+03  0.17460109197E+03 0.  0.
        -24    2    5    5    0    0 -0.14386476620E+03  0.55870856434E+02 -0.19896533077E+03  0.26494991450E+03  0.82417418044E+02 0.  0.
          5    1    3    3  501    0  0.73218623060E+02 -0.86447009671E+02 -0.23536962235E+03  0.26125658148E+03  0.47000000000E+01 0. -1.
        -13    1    4    4    0    0  0.32471598513E+02 -0.44076463211E+00 -0.72515910410E+01  0.33274382881E+02  0.00000000000E+00 0.  1.
         14    1    4    4    0    0  0.61054872464E+01  0.31325779802E+02 -0.12484340410E+03  0.12885828263E+03  0.00000000000E+00 0. -1.
         -5    1    5    5    0  502  0.32069057375E+02 -0.30886193223E+00 -0.85287887528E+02  0.91239430049E+02  0.47000000000E+01 0.  1.
         11    1    6    6    0    0 -0.89123641333E+02 -0.21142144592E+01 -0.70105016040E+02  0.11341166881E+03  0.00000000000E+00 0. -1.
        -12    1    6    6    0    0 -0.54741124862E+02  0.57985070893E+02 -0.12886031473E+03  0.15153824570E+03  0.00000000000E+00 0.  1.
</event>
<event>
12    1  0.8313893E-002  0.1884193E+03  0.7818608E-02  0.1159934E+00
         21   -1    0    0  501  502  0.00000000000E+00  0.00000000000E+00  0.26548824432E+03  0.26548824432E+03  0.00000000000E+00 0.  1.
         21   -1    0    0  502  503 -0.00000000000E+00 -0.00000000000E+00 -0.14269828927E+03  0.14269828927E+03  0.00000000000E+00 0.  1.
         -6    2    1    2    0  503 -0.76385521572E+02  0.28788309388E+01  0.98372705156E+01  0.18850465621E+03  0.17202964265E+03 0.  0.
        -24    2    3    3    0    0 -0.64446522374E+02  0.18722192585E+02 -0.57261587845E+02  0.11837692558E+03  0.78932454201E+02 0.  0.
          6    2    1    2  501    0  0.76385521572E+02 -0.28788309388E+01  0.11295268454E+03  0.21968187737E+03  0.17221725445E+03 0.  0.
         24    2    5    5    0    0  0.41191203218E+02  0.43539933999E+02  0.12497090656E+03  0.16001723589E+03  0.79970914831E+02 0.  0.
          5    1    5    5  501    0  0.35194318354E+02 -0.46418764937E+02 -0.12018222028E+02  0.59664641484E+02  0.47000000000E+01 0. -1.
        -13    1    6    6    0    0 -0.19287579760E+02  0.50643320668E+01  0.60168562409E+02  0.63387018345E+02  0.00000000000E+00 0.  1.
         14    1    6    6    0    0  0.60478782979E+02  0.38475601932E+02  0.64802344155E+02  0.96630217544E+02  0.00000000000E+00 0. -1.
         -5    1    3    3    0  503 -0.11938999198E+02 -0.15843361646E+02  0.67098858360E+02  0.70127730630E+02  0.47000000000E+01 0.  1.
         13    1    4    4    0    0 -0.56728424013E+02 -0.14682403692E+02 -0.60145473266E+02  0.83971215447E+02  0.00000000000E+00 0. -1.
        -14    1    4    4    0    0 -0.77180983613E+01  0.33404596277E+02  0.28838854208E+01  0.34405710135E+02  0.00000000000E+00 0.  1.
</event>
<event>
12    1  0.8313893E-002  0.1834078E+03  0.7818608E-02  0.1165400E+00
         21   -1    0    0  503  502  0.00000000000E+00  0.00000000000E+00  0.73834259567E+02  0.73834259567E+02  0.00000000000E+00 0.  1.
         21   -1    0    0  501  503 -0.00000000000E+00 -0.00000000000E+00 -0.67285567580E+03  0.67285567580E+03  0.00000000000E+00 0. -1.
          6    2    1    2  501    0  0.15150650092E+02 -0.62683688982E+02 -0.51397254431E+03  0.54452238022E+03  0.16786321573E+03 0.  0.
         24    2    3    3    0    0 -0.50132083478E+01 -0.44780328797E+02 -0.14548125334E+03  0.17501590800E+03  0.86228550226E+02 0.  0.
         -6    2    1    2    0  502 -0.15150650092E+02  0.62683688982E+02 -0.85048871928E+02  0.20216755515E+03  0.17169630945E+03 0.  0.
        -24    2    5    5    0    0 -0.63462712066E+02  0.75090149725E+02 -0.84176845987E+02  0.15205941180E+03  0.79814014493E+02 0.  0.
          5    1    3    3  501    0  0.20163858439E+02 -0.17903360185E+02 -0.36849129097E+03  0.36950647222E+03  0.47000000000E+01 0. -1.
        -11    1    4    4    0    0  0.10793057247E+02 -0.63896894882E+02 -0.13135678277E+03  0.14647152502E+03  0.00000000000E+00 0.  1.
         12    1    4    4    0    0 -0.15806265594E+02  0.19116566085E+02 -0.14124470564E+02  0.28544382979E+02  0.00000000000E+00 0. -1.
         -5    1    5    5    0  502  0.48312061974E+02 -0.12406460744E+02 -0.87202594012E+00  0.50108143347E+02  0.47000000000E+01 0.  1.
         13    1    6    6    0    0  0.27723524887E+00  0.22322745519E+02 -0.62720620400E+02  0.66575205972E+02  0.00000000000E+00 0. -1.
        -14    1    6    6    0    0 -0.63739947315E+02  0.52767404206E+02 -0.21456225587E+02  0.85484205832E+02  0.00000000000E+00 0.  1.
</event>
<event>
12    1  0.8313893E-002  0.1870851E+03  0.7818608E-02  0.1164612E+00
         21   -1    0    0  503  502  0.00000000000E+00  0.00000000000E+00  0.16392108988E+04  0.16392108988E+04  0.00000000000E+00 0.  1.
         21   -1    0    0  501  503 -0.00000000000E+00 -0.00000000000E+00 -0.25419534316E+02  0.25419534316E+02  0.00000000000E+00 0.  1.
          6    2    1    2  501    0 -0.24647273585E+01  0.15303695186E+02  0.43850291331E+03  0.47674483864E+03  0.18644183602E+03 0.  0.
         24    2    3    3    0    0 -0.46696575613E+02  0.54831308041E+02  0.16806909815E+03  0.19984155776E+03  0.80637360694E+02 0.  0.
         -6    2    1    2    0  502  0.24647273585E+01 -0.15303695186E+02  0.11752884512E+04  0.11878855945E+04  0.17183993757E+03 0.  0.
        -24    2    5    5    0    0  0.54499954360E+02 -0.49481106229E+02  0.70194099491E+03  0.71043856639E+03  0.81136744997E+02 0.  0.
          5    1    3    3  501    0  0.44231848254E+02 -0.39527612855E+02  0.27043381516E+03  0.27690328087E+03  0.47000000000E+01 0. -1.
        -11    1    4    4    0    0  0.58020816026E+01  0.51571536864E+02  0.57864050555E+02  0.77727317669E+02  0.00000000000E+00 0.  1.
         12    1    4    4    0    0 -0.52498657215E+02  0.32597711773E+01  0.11020504760E+03  0.12211424010E+03  0.00000000000E+00 0. -1.
         -5    1    5    5    0  502 -0.52035227001E+02  0.34177411043E+02  0.47334745631E+03  0.47744702813E+03  0.47000000000E+01 0.  1.
         13    1    6    6    0    0  0.52287183535E+02 -0.22518384922E+02  0.20489761620E+03  0.21265949390E+03  0.00000000000E+00 0. -1.
        -14    1    6    6    0    0  0.22127708244E+01 -0.26962721307E+02  0.49704337871E+03  0.49777907249E+03  0.00000000000E+00 0.  1.
</event>
<event>
12    1  0.8313893E-002  0.2063575E+03  0.7818608E-02  0.1145075E+00
         21   -1    0    0  501  502  0.00000000000E+00  0.00000000000E+00  0.62710248480E+02  0.62710248480E+02  0.00000000000E+00 0.  1.
         21   -1    0    0  502  503 -0.00000000000E+00 -0.00000000000E+00 -0.12151519721E+04  0.12151519721E+04  0.00000000000E+00 0.  1.
         -6    2    1    2    0  503  0.68819851223E+02  0.87039972684E+02 -0.10065937585E+04  0.10275283029E+04  0.17398646474E+03 0.  0.
        -24    2    3    3    0    0  0.23493167925E+02  0.54263440150E+02 -0.25246808746E+03  0.27131641000E+03  0.79849917161E+02 0.  0.
          6    2    1    2  501    0 -0.68819851223E+02 -0.87039972684E+02 -0.14584796516E+03  0.25033391768E+03  0.17053830254E+03 0.  0.
         24    2    5    5    0    0 -0.90443476345E+02 -0.83263485932E+01 -0.77682351527E+02  0.14388178448E+03  0.80112855854E+02 0.  0.
          5    1    5    5  501    0  0.21623625122E+02 -0.78713624091E+02 -0.68165613633E+02  0.10645213320E+03  0.47000000000E+01 0. -1.
        -11    1    6    6    0    0 -0.98720327302E+02 -0.17676411964E+02 -0.83124073606E+02  0.13026039373E+03  0.00000000000E+00 0.  1.
         12    1    6    6    0    0  0.82768509570E+01  0.93500633706E+01  0.54417220791E+01  0.13621390751E+02  0.00000000000E+00 0. -1.
         -5    1    3    3    0  503  0.45326683298E+02  0.32776532534E+02 -0.75412567099E+03  0.75621189290E+03  0.47000000000E+01 0.  1.
         11    1    4    4    0    0  0.52154693301E+02  0.25039151257E+02 -0.16194240391E+03  0.17196631447E+03  0.00000000000E+00 0. -1.
        -12    1    4    4    0    0 -0.28661525376E+02  0.29224288892E+02 -0.90525683553E+02  0.99350095525E+02  0.00000000000E+00 0.  1.
</event>
<event>
12    1  0.8313893E-002  0.1779239E+03  0.7818608E-02  0.1170687E+00
         21   -1    0    0  501  502  0.00000000000E+00  0.00000000000E+00  0.43556590121E+03  0.43556590121E+03  0.00000000000E+00 0. -1.
         21   -1    0    0  502  503 -0.00000000000E+00 -0.00000000000E+00 -0.80683003053E+02  0.80683003053E+02  0.00000000000E+00 0. -1.
         -6    2    1    2    0  503 -0.14649485431E+02 -0.35321968828E+02  0.87755622707E+02  0.19529111060E+03  0.17022138425E+03 0.  0.
        -24    2    3    3    0    0  0.32848591625E+02  0.23443653929E+02  0.79083610489E+02  0.11908901392E+03  0.79368387327E+02 0.  0.
          6    2    1    2  501    0  0.14649485431E+02  0.35321968828E+02  0.26712727545E+03  0.32095779367E+03  0.17376615068E+03 0.  0.
         24    2    5    5    0    0  0.24825314425E+02 -0.22296988626E+01  0.43872479075E+02  0.94289601486E+02  0.79652160893E+02 0.  0.
          5    1    5    5  501    0 -0.10175828994E+02  0.37551667691E+02  0.22325479638E+03  0.22666819219E+03  0.47000000000E+01 0. -1.
        -11    1    6    6    0    0 -0.21105216603E+02  0.11547642107E+02  0.39353774247E+02  0.46124806272E+02  0.00000000000E+00 0.  1.
         12    1    6    6    0    0  0.45930531028E+02 -0.13777340970E+02  0.45187048278E+01  0.48164795214E+02  0.00000000000E+00 0. -1.
         -5    1    3    3    0  503 -0.47498077055E+02 -0.58765622757E+02  0.86720122175E+01  0.76202096676E+02  0.47000000000E+01 0.  1.
         13    1    4    4    0    0  0.59549551761E+01  0.31264216365E+02 -0.33740154669E+01  0.32004635546E+02  0.00000000000E+00 0. -1.
        -14    1    4    4    0    0  0.26893636448E+02 -0.78205624366E+01  0.82457625956E+02  0.87084378373E+02  0.00000000000E+00 0.  1.
</event>
<event>
12    1  0.8313893E-002  0.2225426E+03  0.7818608E-02  0.1132225E+00
         21   -1    0    0  503  502  0.00000000000E+00  0.00000000000E+00  0.37209181552E+03  0.37209181552E+03  0.00000000000E+00 0. -1.
         21   -1    0    0  501  503 -0.00000000000E+00 -0.00000000000E+00 -0.13642098767E+03  0.13642098767E+03  0.00000000000E+00 0.  1.
          6    2    1    2  501    0 -0.13694591874E+03  0.17992238735E+02  0.16193951053E+03  0.27522649301E+03  0.17449158166E+03 0.  0.
         24    2    3    3    0    0 -0.14025888576E+03  0.58595961409E+02  0.92072249438E+02  0.19421314709E+03  0.78328830309E+02 0.  0.
         -6    2    1    2    0  502  0.13694591874E+03 -0.17992238735E+02  0.73731317325E+02  0.23328631018E+03  0.17294013429E+03 0.  0.
        -24    2    5    5    0    0  0.68822250873E+02 -0.77933839663E+01 -0.28691160642E+02  0.10976584727E+03  0.80175554130E+02 0.  0.
          5    1    3    3  501    0  0.33129670179E+01 -0.40603722674E+02  0.69867261094E+02  0.81013345927E+02  0.47000000000E+01 0. -1.
        -11    1    4    4    0    0 -0.31457852610E+02  0.36733788757E+02  0.63129173991E+02  0.79525218240E+02  0.00000000000E+00 0.  1.
         12    1    4    4    0    0 -0.10880103315E+03  0.21862172652E+02  0.28943075447E+02  0.11468792885E+03  0.00000000000E+00 0. -1.
         -5    1    5    5    0  502  0.68123667868E+02 -0.10198854769E+02  0.10242247797E+03  0.12352046290E+03  0.47000000000E+01 0.  1.
         11    1    6    6    0    0  0.39850414320E+01  0.19152835744E+02  0.17064094867E+02  0.25959487782E+02  0.00000000000E+00 0. -1.
        -12    1    6    6    0    0  0.64837209441E+02 -0.26946219711E+02 -0.45755255509E+02  0.83806359493E+02  0.00000000000E+00 0.  1.
</event>
<event>
12    1  0.8313893E-002  0.1837600E+03  0.7818608E-02  0.1164458E+00
         21   -1    0    0  503  502  0.00000000000E+00  0.00000000000E+00  0.14935330706E+03  0.14935330706E+03  0.00000000000E+00 0.  1.
         21   -1    0    0  501  503 -0.00000000000E+00 -0.00000000000E+00 -0.28331816591E+03  0.28331816591E+03  0.00000000000E+00 0.  1.
          6    2    1    2  501    0  0.54351033047E+02  0.34876028471E+02 -0.16513448794E+03  0.24628668833E+03  0.17093086785E+03 0.  0.
         24    2    3    3    0    0  0.53389169507E+02 -0.26748581250E+02 -0.15531445415E+03  0.18370042172E+03  0.77829141410E+02 0.  0.
         -6    2    1    2    0  502 -0.54351033047E+02 -0.34876028471E+02  0.31169629090E+02  0.18638478463E+03  0.17203886192E+03 0.  0.
        -24    2    5    5    0    0 -0.69223842119E+02 -0.66866918198E+02 -0.17613831456E+02  0.12599825056E+03  0.79386315052E+02 0.  0.
          5    1    3    3  501    0  0.96186354016E+00  0.61624609721E+02 -0.98200337954E+01  0.62586266613E+02  0.47000000000E+01 0. -1.
        -13    1    4    4    0    0  0.13596523348E+02  0.18453067997E+02 -0.97716318711E+02  0.10036862113E+03  0.00000000000E+00 0.  1.
         14    1    4    4    0    0  0.39792646159E+02 -0.45201649247E+02 -0.57598135437E+02  0.83331800585E+02  0.00000000000E+00 0. -1.
         -5    1    5    5    0  502  0.14872809071E+02  0.31990889727E+02  0.48783460546E+02  0.60386534079E+02  0.47000000000E+01 0.  1.
         13    1    6    6    0    0  0.95262306782E+01 -0.15282041045E+02  0.17890722060E+02  0.25384400431E+02  0.00000000000E+00 0. -1.
        -14    1    6    6    0    0 -0.78750072797E+02 -0.51584877153E+02 -0.35504553516E+02  0.10061385012E+03  0.00000000000E+00 0.  1.
</event>
<event>
12    1  0.8313893E-002  0.2478918E+03  0.7818608E-02  0.1114758E+00
         21   -1    0    0  501  502  0.00000000000E+00  0.00000000000E+00  0.29552480883E+04  0.29552480883E+04  0.00000000000E+00 0. -1.
         21   -1    0    0  502  503 -0.00000000000E+00 -0.00000000000E+00 -0.24767356275E+02  0.24767356275E+02  0.00000000000E+00 0. -1.
         -6    2    1    2    0  503  0.25741415689E+02 -0.17675679145E+03  0.86572032142E+03  0.90051208693E+03  0.17188589232E+03 0.  0.
        -24    2    3    3    0    0  0.70163426781E+02 -0.16474726468E+03  0.76253896276E+03  0.78743677319E+03  0.80786350110E+02 0.  0.
          6    2    1    2  501    0 -0.25741415689E+02  0.17675679145E+03  0.20647604106E+04  0.20795033577E+04  0.17085981816E+03 0.  0.
         24    2    5    5    0    0 -0.24147376133E+01  0.33041400101E+02  0.44113286884E+03  0.44935406019E+03  0.78887884751E+02 0.  0.
          5    1    5    5  501    0 -0.23326678076E+02  0.14371539135E+03  0.16236275418E+04  0.16301492975E+04  0.47000000000E+01 0. -1.
        -11    1    6    6    0    0 -0.21567635016E+02  0.53376340318E+02  0.28912417594E+03  0.29479990791E+03  0.00000000000E+00 0.  1.
         12    1    6    6    0    0  0.19152897403E+02 -0.20334940217E+02  0.15200869290E+03  0.15455415229E+03  0.00000000000E+00 0. -1.
         -5    1    3    3    0  503 -0.44422011092E+02 -0.12009526774E+02  0.10318135866E+03  0.11307531374E+03  0.47000000000E+01 0.  1.
         13    1    4    4    0    0  0.34783605442E+02 -0.13984915784E+03  0.66945758909E+03  0.68479277869E+03  0.00000000000E+00 0. -1.
        -14    1    4    4    0    0  0.35379821339E+02 -0.24898106840E+02  0.93081373675E+02  0.10264399450E+03  0.00000000000E+00 0.  1.
</event>
<event>
12    1  0.8313893E-002  0.2265228E+03  0.7818608E-02  0.1129176E+00
         21   -1    0    0  503  502  0.00000000000E+00  0.00000000000E+00  0.53767698912E+02  0.53767698912E+02  0.00000000000E+00 0.  1.
         21   -1    0    0  501  503 -0.00000000000E+00 -0.00000000000E+00 -0.11954586876E+04  0.11954586876E+04  0.00000000000E+00 0.  1.
          6    2    1    2  501    0 -0.14488694127E+03  0.24213377330E+02 -0.85188020357E+03  0.88139100340E+03  0.17196425865E+03 0.  0.
         24    2    3    3    0    0 -0.23949385638E+02  0.45219270810E+02 -0.49870793594E+03  0.50746603693E+03  0.78700811616E+02 0.  0.
         -6    2    1    2    0  502  0.14488694127E+03 -0.24213377330E+02 -0.28981078516E+03  0.36783538315E+03  0.17243568224E+03 0.  0.
        -24    2    5    5    0    0  0.14987322121E+03 -0.60071348831E+02 -0.27276288690E+03  0.32754421858E+03  0.82553457018E+02 0.  0.
          5    1    3    3  501    0 -0.12093755564E+03 -0.21005893480E+02 -0.35317226763E+03  0.37392496647E+03  0.47000000000E+01 0. -1.
        -13    1    4    4    0    0 -0.14754327986E+02 -0.11872558642E+01 -0.37070521867E+03  0.37100061849E+03  0.00000000000E+00 0.  1.
         14    1    4    4    0    0 -0.91950576518E+01  0.46406526674E+02 -0.12800271727E+03  0.13646541845E+03  0.00000000000E+00 0. -1.
         -5    1    5    5    0  502 -0.49862799388E+01  0.35857971501E+02 -0.17047898262E+02  0.40291164576E+02  0.47000000000E+01 0.  1.
         13    1    6    6    0    0  0.31912794528E+02  0.15446343431E+02 -0.93876345851E+02  0.10034831484E+03  0.00000000000E+00 0. -1.
        -14    1    6    6    0    0  0.11796042669E+03 -0.75517692261E+02 -0.17888654105E+03  0.22719590374E+03  0.00000000000E+00 0.  1.
</event>
<event>
12    1  0.8313893E-002  0.2099104E+03  0.7818608E-02  0.1141921E+00
         21   -1    0    0  503  502  0.00000000000E+00  0.00000000000E+00  0.10619724316E+03  0.10619724316E+03  0.00000000000E+00 0.  1.
         21   -1    0    0  501  503 -0.00000000000E+00 -0.00000000000E+00 -0.44685154719E+03  0.44685154719E+03  0.00000000000E+00 0.  1.
          6    2    1    2  501    0  0.70384095197E+02  0.94416097899E+02 -0.24798234289E+03  0.32489629605E+03  0.17376432431E+03 0.  0.
         24    2    3    3    0    0  0.25886211601E+02 -0.16181846756E+02 -0.69392743309E+02  0.11012129265E+03  0.79871134685E+02 0.  0.
         -6    2    1    2    0  502 -0.70384095197E+02 -0.94416097899E+02 -0.92671961137E+02  0.22815249430E+03  0.17203821632E+03 0.  0.
        -24    2    5    5    0    0  0.18773838170E+02 -0.31136847737E+02 -0.78646499447E+02  0.11782478174E+03  0.79846396478E+02 0.  0.
          5    1    3    3  501    0  0.44497883596E+02  0.11059794465E+03 -0.17858959958E+03  0.21477500340E+03  0.47000000000E+01 0. -1.
        -11    1    4    4    0    0  0.20264685165E+02  0.80650031130E+01 -0.80107082679E+02  0.83023168064E+02  0.00000000000E+00 0.  1.
         12    1    4    4    0    0  0.56215264364E+01 -0.24246849869E+02  0.10714339370E+02  0.27098124588E+02  0.00000000000E+00 0. -1.
         -5    1    5    5    0  502 -0.89157933367E+02 -0.63279250162E+02 -0.14025461690E+02  0.11032771256E+03  0.47000000000E+01 0.  1.
         11    1    6    6    0    0  0.34437099253E+02  0.98545075673E+01 -0.60563270641E+02  0.70362879952E+02  0.00000000000E+00 0. -1.
        -12    1    6    6    0    0 -0.15663261083E+02 -0.40991355304E+02 -0.18083228806E+02  0.47461901789E+02  0.00000000000E+00 0.  1.
</event>
<event>
12    1  0.8313893E-002  0.1974775E+03  0.7818608E-02  0.1152713E+00
         21   -1    0    0  503  502  0.00000000000E+00  0.00000000000E+00  0.41563318845E+02  0.41563318845E+02  0.00000000000E+00 0. -1.
         21   -1    0    0  501  503 -0.00000000000E+00 -0.00000000000E+00 -0.19887507973E+04  0.19887507973E+04  0.00000000000E+00 0. -1.
          6    2    1    2  501    0 -0.14598467967E+02 -0.92243546230E+02 -0.17220909227E+04  0.17333766172E+04  0.17399817198E+03 0.  0.
         24    2    3    3    0    0 -0.40684984106E+02 -0.10975373867E+03 -0.16255098633E+04  0.16317050666E+04  0.80485760053E+02 0.  0.
         -6    2    1    2    0  502  0.14598467967E+02  0.92243546230E+02 -0.22509655576E+03  0.29693749897E+03  0.16965091156E+03 0.  0.
        -24    2    5    5    0    0  0.72352787343E+02  0.74216637576E+02 -0.13169760939E+03  0.18555534589E+03  0.79646035302E+02 0.  0.
          5    1    3    3  501    0  0.26086516140E+02  0.17510192444E+02 -0.96581059360E+02  0.10167155055E+03  0.47000000000E+01 0. -1.
        -13    1    4    4    0    0  0.46562865478E+00  0.82981087780E+01 -0.34650523140E+03  0.34660489149E+03  0.00000000000E+00 0.  1.
         14    1    4    4    0    0 -0.41150612761E+02 -0.11805184745E+03 -0.12790046319E+04  0.12851001751E+04  0.00000000000E+00 0. -1.
         -5    1    5    5    0  502 -0.57754319376E+02  0.18026908654E+02 -0.93398946376E+02  0.11138215309E+03  0.47000000000E+01 0.  1.
         11    1    6    6    0    0  0.52075432686E+02  0.90693386098E+02 -0.10613584609E+03  0.14900321741E+03  0.00000000000E+00 0. -1.
        -12    1    6    6    0    0  0.20277354657E+02 -0.16476748522E+02 -0.25561763295E+02  0.36552128481E+02  0.00000000000E+00 0.  1.
</event>
<event>
12    1  0.8313893E-002  0.1795878E+03  0.7818608E-02  0.1168605E+00
         21   -1    0    0  501  502  0.00000000000E+00  0.00000000000E+00  0.22930747382E+03  0.22930747382E+03  0.00000000000E+00 0. -1.
         21   -1    0    0  502  503 -0.00000000000E+00 -0.00000000000E+00 -0.16591513599E+03  0.16591513599E+03  0.00000000000E+00 0. -1.
         -6    2    1    2    0  503  0.10478270993E+02  0.51973727576E+02 -0.47482257761E+02  0.18416581526E+03  0.16985705810E+03 0.  0.
        -24    2    3    3    0    0 -0.47080749461E+02  0.68668737857E+02 -0.39466567342E+02  0.12351842870E+03  0.82262991446E+02 0.  0.
          6    2    1    2  501    0 -0.10478270993E+02 -0.51973727576E+02  0.11087459559E+03  0.21105679455E+03  0.17158301797E+03 0.  0.
         24    2    5    5    0    0  0.27959578799E+02 -0.37672358774E+02  0.13438448247E+03  0.16355098198E+03  0.80553025500E+02 0.  0.
          5    1    5    5  501    0 -0.38437849792E+02 -0.14301368802E+02 -0.23509886880E+02  0.47505812564E+02  0.47000000000E+01 0. -1.
        -11    1    6    6    0    0  0.39219755212E+02  0.10169898962E+02  0.38943165594E+02  0.56197741861E+02  0.00000000000E+00 0.  1.
         12    1    6    6    0    0 -0.11260176413E+02 -0.47842257736E+02  0.95441316876E+02  0.10735324012E+03  0.00000000000E+00 0. -1.
         -5    1    3    3    0  503  0.57559020454E+02 -0.16695010280E+02 -0.80156904193E+01  0.60647386562E+02  0.47000000000E+01 0.  1.
         11    1    4    4    0    0  0.10092958615E+02  0.53591023165E+02 -0.42533004739E+01  0.54698776425E+02  0.00000000000E+00 0. -1.
        -12    1    4    4    0    0 -0.57173708076E+02  0.15077714692E+02 -0.35213266868E+02  0.68819652273E+02  0.00000000000E+00 0.  1.
</event>
<event>
12    1  0.8313893E-002  0.2840818E+03  0.7818608E-02  0.1093990E+00
         21   -1    0    0  503  502  0.00000000000E+00  0.00000000000E+00  0.12396013254E+04  0.12396013254E+04  0.00000000000E+00 0. -1.
         21   -1    0    0  501  503 -0.00000000000E+00 -0.00000000000E+00 -0.11497501126E+03  0.11497501126E+03  0.00000000000E+00 0.  1.
          6    2    1    2  501    0  0.18743565562E+03 -0.11817415129E+03  0.11031377121E+03  0.30123290234E+03  0.17168249272E+03 0.  0.
         24    2    3    3    0    0  0.18456416923E+03 -0.80679850832E+02  0.40053188999E+02  0.22140366326E+03  0.82717309327E+02 0.  0.
         -6    2    1    2    0  502 -0.18743565562E+03  0.11817415129E+03  0.10143125430E+04  0.10533434344E+04  0.17777851626E+03 0.  0.
        -24    2    5    5    0    0 -0.58389510953E+02  0.69353872314E+02  0.69779176320E+03  0.70802644793E+03  0.78541782362E+02 0.  0.
          5    1    3    3  501    0  0.28714863866E+01 -0.37494300453E+02  0.70260582207E+02  0.79829239083E+02  0.47000000000E+01 0. -1.
        -11    1    4    4    0    0  0.35322299379E+02 -0.45272267492E+02 -0.13413447375E+02  0.58967479239E+02  0.00000000000E+00 0.  1.
         12    1    4    4    0    0  0.14924186985E+03 -0.35407583341E+02  0.53466636373E+02  0.16243618402E+03  0.00000000000E+00 0. -1.
         -5    1    5    5    0  502 -0.12904614466E+03  0.48820278971E+02  0.31652077978E+03  0.34531698644E+03  0.47000000000E+01 0.  1.
         11    1    6    6    0    0 -0.61202165460E+02  0.76524320285E+02  0.47006838332E+03  0.48017284560E+03  0.00000000000E+00 0. -1.
        -12    1    6    6    0    0  0.28126545067E+01 -0.71704479704E+01  0.22772337988E+03  0.22785360233E+03  0.00000000000E+00 0.  1.
</event>
<event>
12    1  0.8313893E-002  0.1974086E+03  0.7818608E-02  0.1152106E+00
         21   -1    0    0  503  502  0.00000000000E+00  0.00000000000E+00  0.43200180778E+03  0.43200180778E+03  0.00000000000E+00 0. -1.
         21   -1    0    0  501  503 -0.00000000000E+00 -0.00000000000E+00 -0.91887334600E+02  0.91887334600E+02  0.00000000000E+00 0.  1.
          6    2    1    2  501    0 -0.59130527706E+02  0.74295522521E+02  0.20860906179E+03  0.28668917825E+03  0.17221120839E+03 0.  0.
         24    2    3    3    0    0 -0.56099590113E+01  0.10858324287E+03  0.13394575057E+03  0.18852197863E+03  0.76008420972E+02 0.  0.
         -6    2    1    2    0  502  0.59130527706E+02 -0.74295522521E+02  0.13150541140E+03  0.23719996413E+03  0.17307196706E+03 0.  0.
        -24    2    5    5    0    0  0.56578158148E+02 -0.48992561141E+02  0.16268928656E+03  0.19668726840E+03  0.81343214606E+02 0.  0.
          5    1    3    3  501    0 -0.53520568695E+02 -0.34287720350E+02  0.74663311211E+02  0.98167199620E+02  0.47000000000E+01 0. -1.
        -11    1    4    4    0    0  0.19694185330E+02  0.11261954862E+02  0.22115227880E+01  0.22794372029E+02  0.00000000000E+00 0.  1.
         12    1    4    4    0    0 -0.25304144342E+02  0.97321288009E+02  0.13173422779E+03  0.16572760660E+03  0.00000000000E+00 0. -1.
         -5    1    5    5    0  502  0.25523695581E+01 -0.25302961380E+02 -0.31183875164E+02  0.40512695728E+02  0.47000000000E+01 0.  1.
         11    1    6    6    0    0  0.35614563411E+00 -0.28445330148E+00  0.98306941482E+02  0.98307998134E+02  0.00000000000E+00 0. -1.
        -12    1    6    6    0    0  0.56222012514E+02 -0.48708107840E+02  0.64382345081E+02  0.98379270269E+02  0.00000000000E+00 0.  1.
</event>
<event>
12    1  0.8313893E-002  0.2197544E+03  0.7818608E-02  0.1136552E+00
         21   -1    0    0  503  502  0.00000000000E+00  0.00000000000E+00  0.29395175527E+03  0.29395175527E+03  0.00000000000E+00 0.  1.
         21   -1    0    0  501  503 -0.00000000000E+00 -0.00000000000E+00 -0.15478697023E+03  0.15478697023E+03  0.00000000000E+00 0.  1.
          6    2    1    2  501    0  0.13604518883E+03  0.15613116112E+01  0.72107965213E+02  0.23128237340E+03  0.17257243842E+03 0.  0.
         24    2    3    3    0    0  0.78561342933E+02 -0.10241849202E+02 -0.26815353133E+02  0.11616669221E+03  0.80615489430E+02 0.  0.
         -6    2    1    2    0  502 -0.13604518883E+03 -0.15613116112E+01  0.67056819835E+02  0.21745635210E+03  0.15582014275E+03 0.  0.
        -24    2    5    5    0    0 -0.20874641029E+02  0.33215897409E+01  0.56008734049E+02  0.10155877661E+03  0.82039156629E+02 0.  0.
          5    1    3    3  501    0  0.57483845892E+02  0.11803160813E+02  0.98923318346E+02  0.11511568119E+03  0.47000000000E+01 0. -1.
        -11    1    4    4    0    0  0.91653505999E+02  0.41892943837E+01 -0.13915242192E+02  0.92798433794E+02  0.00000000000E+00 0.  1.
         12    1    4    4    0    0 -0.13092163066E+02 -0.14431143586E+02 -0.12900110941E+02  0.23368258413E+02  0.00000000000E+00 0. -1.
         -5    1    5    5    0  502 -0.11517054780E+03 -0.48829013522E+01  0.11048085786E+02  0.11589757549E+03  0.47000000000E+01 0.  1.
         11    1    6    6    0    0 -0.22325592262E+02  0.14366369842E+02 -0.14449050528E+02  0.30225812039E+02  0.00000000000E+00 0. -1.
        -12    1    6    6    0    0  0.14509512324E+01 -0.11044780101E+02  0.70457784578E+02  0.71332964572E+02  0.00000000000E+00 0.  1.
</event>
<event>
12    1  0.8313893E-002  0.1982785E+03  0.7818608E-02  0.1151497E+00
         21   -1    0    0  501  502  0.00000000000E+00  0.00000000000E+00  0.98067104166E+03  0.98067104166E+03  0.00000000000E+00 0.  1.
         21   -1    0    0  502  503 -0.00000000000E+00 -0.00000000000E+00 -0.39843957148E+02  0.39843957148E+02  0.00000000000E+00 0.  1.
         -6    2    1    2    0  503 -0.33346493469E+02  0.92508576439E+02  0.45702247517E+03  0.49818061363E+03  0.17217594384E+03 0.  0.
        -24    2    3    3    0    0  0.34746704166E+02  0.66804063822E+01  0.18622788907E+03  0.20602490822E+03  0.80706101748E+02 0.  0.
          6    2    1    2  501    0  0.33346493469E+02 -0.92508576439E+02  0.48380460934E+03  0.52233438518E+03  0.17057691691E+03 0.  0.
         24    2    5    5    0    0  0.32149174334E+02 -0.11795550691E+02  0.10915409746E+03  0.13905756336E+03  0.79054946129E+02 0.  0.
          5    1    5    5  501    0  0.11973191353E+01 -0.80713025748E+02  0.37465051188E+03  0.38327682183E+03  0.47000000000E+01 0. -1.
        -13    1    6    6    0    0  0.31747120324E+02 -0.43621534749E+02  0.74782615103E+02  0.92212566738E+02  0.00000000000E+00 0.  1.
         14    1    6    6    0    0  0.40205400986E+00  0.31825984058E+02  0.34371482361E+02  0.46844996620E+02  0.00000000000E+00 0. -1.
         -5    1    3    3    0  503 -0.68093197635E+02  0.85828170057E+02  0.27079458610E+03  0.29215570541E+03  0.47000000000E+01 0.  1.
         13    1    4    4    0    0  0.39562037213E+02  0.20145681792E+02  0.42080873008E+02  0.61170280010E+02  0.00000000000E+00 0. -1.
        -14    1    4    4    0    0 -0.48153330473E+01 -0.13465275410E+02  0.14414701606E+03  0.14485462821E+03  0.00000000000E+00 0.  1.
</event>
<event>
12    1  0.8313893E-002  0.2023632E+03  0.7818608E-02  0.1147930E+00
         21   -1    0    0  503  502  0.00000000000E+00  0.00000000000E+00  0.25043872369E+03  0.25043872369E+03  0.00000000000E+00 0. -1.
         21   -1    0    0  501  503 -0.00000000000E+00 -0.00000000000E+00 -0.16304474917E+03  0.16304474917E+03  0.00000000000E+00 0. -1.
          6    2    1    2  501    0 -0.75760716924E+02  0.75059628015E+02  0.36630321137E+02  0.20485028048E+03  0.17102111858E+03 0.  0.
         24    2    3    3    0    0 -0.18592545489E+02  0.96749723883E+02 -0.11583705532E+02  0.12684167550E+03  0.79047053013E+02 0.  0.
         -6    2    1    2    0  502  0.75760716924E+02 -0.75059628015E+02  0.50763653391E+02  0.20863319238E+03  0.17198030838E+03 0.  0.
        -24    2    5    5    0    0  0.94051998389E+02 -0.28748547004E+02 -0.21134034803E+02  0.12105091809E+03  0.67338102050E+02 0.  0.
          5    1    3    3  501    0 -0.57168171435E+02 -0.21690095868E+02  0.48214026669E+02  0.78008604984E+02  0.47000000000E+01 0. -1.
        -13    1    4    4    0    0 -0.83706915664E+01  0.27624486861E+02  0.33085619785E+02  0.43907163290E+02  0.00000000000E+00 0.  1.
         14    1    4    4    0    0 -0.10221853923E+02  0.69125237022E+02 -0.44669325316E+02  0.82934512208E+02  0.00000000000E+00 0. -1.
         -5    1    5    5    0  502 -0.18291281465E+02 -0.46311081010E+02  0.71897688194E+02  0.87582274289E+02  0.47000000000E+01 0.  1.
         13    1    6    6    0    0  0.73607202169E+02  0.11063524942E+02 -0.13612177162E+02  0.75668442315E+02  0.00000000000E+00 0. -1.
        -14    1    6    6    0    0  0.20444796219E+02 -0.39812071946E+02 -0.75218576412E+01  0.45382475775E+02  0.00000000000E+00 0.  1.
</event>
<event>
12    1  0.8313893E-002  0.1847967E+03  0.7818608E-02  0.1163363E+00
         21   -1    0    0  503  502  0.00000000000E+00  0.00000000000E+00  0.14809608484E+03  0.14809608484E+03  0.00000000000E+00 0. -1.
         21   -1    0    0  501  503 -0.00000000000E+00 -0.00000000000E+00 -0.33535935425E+03  0.33535935425E+03  0.00000000000E+00 0. -1.
          6    2    1    2  501    0 -0.58983800211E+02  0.32858227774E+02  0.41808770472E+02  0.18946708711E+03  0.17202049874E+03 0.  0.
         24    2    3    3    0    0 -0.30314310771E+02 -0.18963224142E+02 -0.33295228098E+02  0.93706431801E+02  0.79961001990E+02 0.  0.
         -6    2    1    2    0  502  0.58983800211E+02 -0.32858227774E+02 -0.22907203988E+03  0.29398835199E+03  0.17145378337E+03 0.  0.
        -24    2    5    5    0    0 -0.31711595670E+02  0.78399043653E+01 -0.10578123429E+03  0.13554370696E+03  0.78200623843E+02 0.  0.
          5    1    3    3  501    0 -0.28669489440E+02  0.51821451915E+02  0.75103998570E+02  0.95760655306E+02  0.47000000000E+01 0. -1.
        -11    1    4    4    0    0 -0.64647608061E+00 -0.36118033130E+02  0.10944664882E+02  0.37745409494E+02  0.00000000000E+00 0.  1.
         12    1    4    4    0    0 -0.29667834691E+02  0.17154808988E+02 -0.44239892980E+02  0.55961022306E+02  0.00000000000E+00 0. -1.
         -5    1    5    5    0  502  0.90695395881E+02 -0.40698132139E+02 -0.12329080560E+03  0.15844464503E+03  0.47000000000E+01 0.  1.
         11    1    6    6    0    0  0.78131664209E+01 -0.29394145864E+02 -0.36160489197E+02  0.47250845067E+02  0.00000000000E+00 0. -1.
        -12    1    6    6    0    0 -0.39524762091E+02  0.37234050229E+02 -0.69620745091E+02  0.88292861897E+02  0.00000000000E+00 0.  1.
</event>
<event>
12    1  0.8313893E-002  0.1754234E+03  0.7818608E-02  0.1176757E+00
         21   -1    0    0  503  502  0.00000000000E+00  0.00000000000E+00  0.64264637043E+03  0.64264637043E+03  0.00000000000E+00 0. -1.
         21   -1    0    0  501  503 -0.00000000000E+00 -0.00000000000E+00 -0.15745351530E+03  0.15745351530E+03  0.00000000000E+00 0. -1.
          6    2    1    2  501    0 -0.27899448646E+02 -0.20115131173E+02 -0.10114347634E+03  0.18808381076E+03  0.15479831823E+03 0.  0.
         24    2    3    3    0    0  0.25331156839E+02  0.23687692696E+02 -0.71941459284E+02  0.11307026172E+03  0.80040841015E+02 0.  0.
         -6    2    1    2    0  502  0.27899448646E+02  0.20115131173E+02  0.58633633147E+03  0.61201607497E+03  0.17201855910E+03 0.  0.
        -24    2    5    5    0    0  0.36862796833E+02 -0.44800617515E+02  0.46127812978E+03  0.47075022684E+03  0.73907387513E+02 0.  0.
          5    1    3    3  501    0 -0.53230605485E+02 -0.43802823868E+02 -0.29202017052E+02  0.75013549036E+02  0.47000000000E+01 0. -1.
        -13    1    4    4    0    0  0.18384438701E+02  0.46552877393E+02 -0.16505414188E+02  0.52702814701E+02  0.00000000000E+00 0.  1.
         14    1    4    4    0    0  0.69467181379E+01 -0.22865184697E+02 -0.55436045097E+02  0.60367447023E+02  0.00000000000E+00 0. -1.
         -5    1    5    5    0  502 -0.89633481867E+01  0.64915748688E+02  0.12505820169E+03  0.14126584813E+03  0.47000000000E+01 0.  1.
         13    1    6    6    0    0  0.53742847081E+02 -0.15851687090E+02  0.35255610323E+03  0.35698091759E+03  0.00000000000E+00 0. -1.
        -14    1    6    6    0    0 -0.16880050248E+02 -0.28948930425E+02  0.10872202655E+03  0.11376930925E+03  0.00000000000E+00 0.  1.
</event>
<event>
12    1  0.8313893E-002  0.2030513E+03  0.7818608E-02  0.1151872E+00
         21   -1    0    0  501  502  0.00000000000E+00  0.00000000000E+00  0.24811974336E+04  0.24811974336E+04  0.00000000000E+00 0.  1.
         21   -1    0    0  502  503 -0.00000000000E+00 -0.00000000000E+00 -0.19660006613E+02  0.19660006613E+02  0.00000000000E+00 0.  1.
         -6    2    1    2    0  503 -0.58492559662E+02  0.39758965839E+02  0.56550127133E+03  0.59397964069E+03  0.16738569467E+03 0.  0.
        -24    2    3    3    0    0  0.95058607673E+01 -0.25026058880E+02  0.20468073652E+03  0.22110642772E+03  0.79228678308E+02 0.  0.
          6    2    1    2  501    0  0.58492559662E+02 -0.39758965839E+02  0.18960361557E+04  0.19068777995E+04  0.19033571354E+03 0.  0.
         24    2    5    5    0    0  0.88867654251E+02 -0.74800781227E+02  0.16789825511E+04  0.16848756994E+04  0.79568201959E+02 0.  0.
          5    1    5    5  501    0 -0.30375094588E+02  0.35041815387E+02  0.21705360455E+03  0.22200210009E+03  0.47000000000E+01 0. -1.
        -11    1    6    6    0    0 -0.14814453713E+02 -0.14293241258E+02  0.27599368566E+03  0.27676032827E+03  0.00000000000E+00 0.  1.
         12    1    6    6    0    0  0.10368210796E+03 -0.60507539968E+02  0.14029888655E+04  0.14081153712E+04  0.00000000000E+00 0. -1.
         -5    1    3    3    0  503 -0.67998420430E+02  0.64785024719E+02  0.36082053481E+03  0.37287321297E+03  0.47000000000E+01 0.  1.
         13    1    4    4    0    0  0.21564582061E+02  0.20482676922E+02  0.40108395260E+02  0.49932500675E+02  0.00000000000E+00 0. -1.
        -14    1    4    4    0    0 -0.12058721294E+02 -0.45508735802E+02  0.16457234126E+03  0.17117392705E+03  0.00000000000E+00 0.  1.
</event>
<event>
12    1  0.8313893E-002  0.4162071E+03  0.7818608E-02  0.1038333E+00
         21   -1    0    0  503  502  0.00000000000E+00  0.00000000000E+00  0.20453096600E+03  0.20453096600E+03  0.00000000000E+00 0. -1.
         21   -1    0    0  501  503 -0.00000000000E+00 -0.00000000000E+00 -0.97845814722E+03  0.97845814722E+03  0.00000000000E+00 0.  1.
          6    2    1    2  501    0 -0.24432139024E+03  0.28961818105E+03 -0.60443883296E+03  0.73387643038E+03  0.17221114873E+03 0.  0.
         24    2    3    3    0    0 -0.13253062474E+03  0.23304936538E+03 -0.33836146750E+03  0.43973962451E+03  0.83702338506E+02 0.  0.
         -6    2    1    2    0  502  0.24432139024E+03 -0.28961818105E+03 -0.16948834826E+03  0.44911268284E+03  0.17147673070E+03 0.  0.
        -24    2    5    5    0    0  0.59875060968E+02 -0.14590057101E+03 -0.37661014939E+02  0.18064343763E+03  0.79634791169E+02 0.  0.
          5    1    3    3  501    0 -0.11179076550E+03  0.56568815664E+02 -0.26607736546E+03  0.29413680587E+03  0.47000000000E+01 0. -1.
        -11    1    4    4    0    0 -0.80023692578E+02  0.14719232972E+03 -0.27110023470E+03  0.31869218779E+03  0.00000000000E+00 0.  1.
         12    1    4    4    0    0 -0.52506932159E+02  0.85857035664E+02 -0.67261232797E+02  0.12104743671E+03  0.00000000000E+00 0. -1.
         -5    1    5    5    0  502  0.18444632927E+03 -0.14371761004E+03 -0.13182733333E+03  0.26846924522E+03  0.47000000000E+01 0.  1.
         11    1    6    6    0    0  0.69416380389E+02 -0.78518919735E+02 -0.40926083173E+02  0.11251132790E+03  0.00000000000E+00 0. -1.
        -12    1    6    6    0    0 -0.95413194213E+01 -0.67381651275E+02  0.32650682336E+01  0.68132109724E+02  0.00000000000E+00 0.  1.
</event>
<event>
12    1  0.8313893E-002  0.2390596E+03  0.7818608E-02  0.1120442E+00
         21   -1    0    0  501  502  0.00000000000E+00  0.00000000000E+00  0.82150971991E+03  0.82150971991E+03  0.00000000000E+00 0. -1.
         21   -1    0    0  502  503 -0.00000000000E+00 -0.00000000000E+00 -0.82329288730E+02  0.82329288730E+02  0.00000000000E+00 0. -1.
         -6    2    1    2    0  503 -0.89003151334E+02 -0.14015740777E+03  0.19132025519E+03  0.30609304143E+03  0.17182505657E+03 0.  0.
        -24    2    3    3    0    0 -0.86080514245E+02 -0.29007988677E+02  0.67482085604E+02  0.13959764384E+03  0.81745654001E+02 0.  0.
          6    2    1    2  501    0  0.89003151334E+02  0.14015740777E+03  0.54786017599E+03  0.59774596721E+03  0.17199944472E+03 0.  0.
         24    2    5    5    0    0  0.11612280961E+03  0.94599207358E+02  0.30488907516E+03  0.34901303548E+03  0.80120121301E+02 0.  0.
          5    1    5    5  501    0 -0.27119658280E+02  0.45558200413E+02  0.24297110083E+03  0.24873293174E+03  0.47000000000E+01 0. -1.
        -11    1    6    6    0    0 -0.10762366300E+02  0.48996979373E+01  0.92082095797E+01  0.14987551231E+02  0.00000000000E+00 0.  1.
         12    1    6    6    0    0  0.12688517591E+03  0.89699509420E+02  0.29568086558E+03  0.33402548424E+03  0.00000000000E+00 0. -1.
         -5    1    3    3    0  503 -0.29226370889E+01 -0.11114941909E+03  0.12383816959E+03  0.16649539759E+03  0.47000000000E+01 0.  1.
         11    1    4    4    0    0 -0.34006138445E+01 -0.32196931954E+02 -0.69944853676E+00  0.32383573459E+02  0.00000000000E+00 0. -1.
        -12    1    4    4    0    0 -0.82679900400E+02  0.31889432768E+01  0.68181534141E+02  0.10721407038E+03  0.00000000000E+00 0.  1.
</event>
<event>
12    1  0.8313893E-002  0.1935547E+03  0.7818608E-02  0.1155861E+00
         21   -1    0    0  503  502  0.00000000000E+00  0.00000000000E+00  0.42464309830E+03  0.42464309830E+03  0.00000000000E+00 0.  1.
         21   -1    0    0  501  503 -0.00000000000E+00 -0.00000000000E+00 -0.99163091359E+02  0.99163091359E+02  0.00000000000E+00 0. -1.
          6    2    1    2  501    0 -0.38439345659E+02 -0.79724317552E+02  0.25518172609E+03  0.32028290839E+03  0.17213331453E+03 0.  0.
         24    2    3    3    0    0 -0.75483324721E+02 -0.93230718064E+02  0.23504432654E+03  0.27576005920E+03  0.80050457271E+02 0.  0.
         -6    2    1    2    0  502  0.38439345659E+02  0.79724317552E+02  0.70298280845E+02  0.20352328126E+03  0.16925226032E+03 0.  0.
        -24    2    5    5    0    0  0.13647449351E+02 -0.11548037460E+02 -0.61245269061E+01  0.81835909459E+02  0.79624093114E+02 0.  0.
          5    1    3    3  501    0  0.37043979062E+02  0.13506400512E+02  0.20137399554E+02  0.44522849194E+02  0.47000000000E+01 0. -1.
        -13    1    4    4    0    0 -0.30340612927E+02 -0.35520525422E+02  0.17470710328E+03  0.18084477448E+03  0.00000000000E+00 0.  1.
         14    1    4    4    0    0 -0.45142711794E+02 -0.57710192643E+02  0.60337223255E+02  0.94915284718E+02  0.00000000000E+00 0. -1.
         -5    1    5    5    0  502  0.24791896308E+02  0.91272355012E+02  0.76422807751E+02  0.12168737180E+03  0.47000000000E+01 0.  1.
         11    1    6    6    0    0  0.14078468595E+02  0.29872472698E+02 -0.19445947085E+02  0.38323788449E+02  0.00000000000E+00 0. -1.
        -12    1    6    6    0    0 -0.43101924408E+00 -0.41420510157E+02  0.13321420179E+02  0.43512121011E+02  0.00000000000E+00 0.  1.
</event>
<event>
12    1  0.8313893E-002  0.2162944E+03  0.7818608E-02  0.1137758E+00
         21   -1    0    0  501  502  0.00000000000E+00  0.00000000000E+00  0.12312606261E+03  0.12312606261E+03  0.00000000000E+00 0. -1.
         21   -1    0    0  502  503 -0.00000000000E+00 -0.00000000000E+00 -0.40212614059E+03  0.40212614059E+03  0.00000000000E+00 0.  1.
         -6    2    1    2    0  503  0.99168051835E+02  0.76508593315E+02 -0.21181810456E+03  0.29876450170E+03  0.16942682993E+03 0.  0.
        -24    2    3    3    0    0  0.81286445384E+02  0.23946569235E+02 -0.21392874891E+03  0.24300552893E+03  0.78136119061E+02 0.  0.
          6    2    1    2  501    0 -0.99168051835E+02 -0.76508593315E+02 -0.67181973418E+02  0.22648770150E+03  0.17633886135E+03 0.  0.
         24    2    5    5    0    0 -0.86976963671E+02  0.19230365162E+02 -0.39418826103E+02  0.12595187132E+03  0.79845042947E+02 0.  0.
          5    1    5    5  501    0 -0.12191088164E+02 -0.95738958477E+02 -0.27763147314E+02  0.10053583018E+03  0.47000000000E+01 0. -1.
        -11    1    6    6    0    0 -0.21857112345E+02  0.28452262702E+02 -0.47673855180E+02  0.59666247416E+02  0.00000000000E+00 0.  1.
         12    1    6    6    0    0 -0.65119851325E+02 -0.92218975404E+01  0.82550290768E+01  0.66285623901E+02  0.00000000000E+00 0. -1.
         -5    1    3    3    0  503  0.17881606451E+02  0.52562024081E+02  0.21106443456E+01  0.55758972769E+02  0.47000000000E+01 0.  1.
         13    1    4    4    0    0  0.14860147533E+02 -0.27154216764E+02 -0.68213027949E+02  0.74907894475E+02  0.00000000000E+00 0. -1.
        -14    1    4    4    0    0  0.66426297851E+02  0.51100785999E+02 -0.14571572096E+03  0.16809763446E+03  0.00000000000E+00 0.  1.
</event>
<event>
12    1  0.8313893E-002  0.2309259E+03  0.7818608E-02  0.1126222E+00
         21   -1    0    0  503  502  0.00000000000E+00  0.00000000000E+00  0.12978293193E+03  0.12978293193E+03  0.00000000000E+00 0. -1.
         21   -1    0    0  501  503 -0.00000000000E+00 -0.00000000000E+00 -0.50910505417E+03  0.50910505417E+03  0.00000000000E+00 0. -1.
          6    2    1    2  501    0  0.12478057869E+03  0.90245660502E+02 -0.33207103151E+03  0.40447243978E+03  0.17208228414E+03 0.  0.
         24    2    3    3    0    0  0.46083297658E+02  0.95675574709E+02 -0.28021984842E+03  0.30995587405E+03  0.79195924717E+02 0.  0.
         -6    2    1    2    0  502 -0.12478057869E+03 -0.90245660502E+02 -0.47251090727E+02  0.23441554631E+03  0.17030417118E+03 0.  0.
        -24    2    5    5    0    0 -0.59848728536E+02 -0.20018816540E+02  0.35661485490E+02  0.10774850217E+03  0.79720604922E+02 0.  0.
          5    1    3    3  501    0  0.78697281029E+02 -0.54299142070E+01 -0.51851183098E+02  0.94516565734E+02  0.47000000000E+01 0. -1.
        -13    1    4    4    0    0 -0.46618474969E+01 -0.10927130082E+02 -0.11926248545E+02  0.16833609187E+02  0.00000000000E+00 0.  1.
         14    1    4    4    0    0  0.50745145155E+02  0.10660270479E+03 -0.26829359987E+03  0.29312226486E+03  0.00000000000E+00 0. -1.
         -5    1    5    5    0  502 -0.64931850151E+02 -0.70226843962E+02 -0.82912576216E+02  0.12666704414E+03  0.47000000000E+01 0.  1.
         11    1    6    6    0    0 -0.43715013531E+02 -0.43477696407E+02  0.46562393870E+02  0.77261691774E+02  0.00000000000E+00 0. -1.
        -12    1    6    6    0    0 -0.16133715006E+02  0.23458879867E+02 -0.10900908380E+02  0.30486810394E+02  0.00000000000E+00 0.  1.
</event>
<event>
12    1  0.8313893E-002  0.1861740E+03  0.7818608E-02  0.1162187E+00
         21   -1    0    0  501  502  0.00000000000E+00  0.00000000000E+00  0.31611126652E+03  0.31611126652E+03  0.00000000000E+00 0.  1.
         21   -1    0    0  502  503 -0.00000000000E+00 -0.00000000000E+00 -0.10970524739E+03  0.10970524739E+03  0.00000000000E+00 0. -1.
         -6    2    1    2    0  503  0.16558726988E+02 -0.67774803922E+02  0.11914946252E+03  0.22020898991E+03  0.17154529820E+03 0.  0.
        -24    2    3    3    0    0 -0.63663900944E+01 -0.92448940082E+02  0.13548535873E+03  0.18248200363E+03  0.79724913132E+02 0.  0.
          6    2    1    2  501    0 -0.16558726988E+02  0.67774803922E+02  0.87256556610E+02  0.20560752399E+03  0.17260687056E+03 0.  0.
         24    2    5    5    0    0 -0.76847822444E+02  0.50046173939E+02  0.45695492001E+02  0.13011917096E+03  0.80204197656E+02 0.  0.
          5    1    5    5  501    0  0.60289095456E+02  0.17728629983E+02  0.41561064608E+02  0.75488353031E+02  0.47000000000E+01 0. -1.
        -13    1    6    6    0    0 -0.19346611257E+02  0.55097799205E+02  0.42657101028E+02  0.72316575642E+02  0.00000000000E+00 0.  1.
         14    1    6    6    0    0 -0.57501211186E+02 -0.50516252665E+01  0.30383909733E+01  0.57802595318E+02  0.00000000000E+00 0. -1.
         -5    1    3    3    0  503  0.22925117083E+02  0.24674136161E+02 -0.16335896213E+02  0.37726986278E+02  0.47000000000E+01 0.  1.
         13    1    4    4    0    0 -0.10715336083E+02 -0.75487632853E+02  0.41356665488E+02  0.86738543459E+02  0.00000000000E+00 0. -1.
        -14    1    4    4    0    0  0.43489459882E+01 -0.16961307229E+02  0.94128693245E+02  0.95743460175E+02  0.00000000000E+00 0.  1.
</event>
<event>
12    1  0.8313893E-002  0.1861745E+03  0.7818608E-02  0.1161989E+00
         21   -1    0    0  503  502  0.00000000000E+00  0.00000000000E+00  0.40881932805E+03  0.40881932805E+03  0.00000000000E+00 0. -1.
         21   -1    0    0  501  503 -0.00000000000E+00 -0.00000000000E+00 -0.86440490054E+02  0.86440490054E+02  0.00000000000E+00 0.  1.
          6    2    1    2  501    0  0.61751123621E+01 -0.72692704779E+02  0.19617588904E+03  0.27045503623E+03  0.17128510106E+03 0.  0.
         24    2    3    3    0    0 -0.43550069052E+02 -0.36075532247E+02  0.46550518238E+02  0.10851908415E+03  0.80071145459E+02 0.  0.
         -6    2    1    2    0  502 -0.61751123621E+01  0.72692704779E+02  0.12620294896E+03  0.22480478187E+03  0.17113633245E+03 0.  0.
        -24    2    5    5    0    0 -0.66557568169E+01  0.11686150684E+03  0.10110014477E+03  0.17378170010E+03  0.79233383988E+02 0.  0.
          5    1    3    3  501    0  0.49725181414E+02 -0.36617172532E+02  0.14962537080E+03  0.16193595208E+03  0.47000000000E+01 0. -1.
        -13    1    4    4    0    0  0.43157975047E+01  0.13072569857E+02  0.36716669072E+02  0.39212650746E+02  0.00000000000E+00 0.  1.
         14    1    4    4    0    0 -0.47865866557E+02 -0.49148102104E+02  0.98338491651E+01  0.69306433403E+02  0.00000000000E+00 0. -1.
         -5    1    5    5    0  502  0.48064445484E+00 -0.44168802065E+02  0.25102804197E+02  0.51023081772E+02  0.47000000000E+01 0.  1.
         13    1    6    6    0    0 -0.59299704383E+01  0.28573118795E+02  0.76874650573E+02  0.82227121850E+02  0.00000000000E+00 0. -1.
        -14    1    6    6    0    0 -0.72578637865E+00  0.88288388048E+02  0.24225494193E+02  0.91554578252E+02  0.00000000000E+00 0.  1.
</event>
<event>
12    1  0.8313893E-002  0.3288142E+03  0.7818608E-02  0.1071776E+00
         21   -1    0    0  503  502  0.00000000000E+00  0.00000000000E+00  0.16566455584E+04  0.16566455584E+04  0.00000000000E+00 0.  1.
         21   -1    0    0  501  503 -0.00000000000E+00 -0.00000000000E+00 -0.12227390124E+03  0.12227390124E+03  0.00000000000E+00 0.  1.
          6    2    1    2  501    0  0.20581837233E+03 -0.18852873448E+03  0.15939875045E+03  0.36541308033E+03  0.17382310411E+03 0.  0.
         24    2    3    3    0    0  0.87443778157E+02 -0.15807940414E+03  0.13897380304E+03  0.24140108599E+03  0.79531465682E+02 0.  0.
         -6    2    1    2    0  502 -0.20581837233E+03  0.18852873448E+03  0.13749729067E+04  0.14135063793E+04  0.17188805661E+03 0.  0.
        -24    2    5    5    0    0 -0.43782071642E+02  0.10511648988E+03  0.45619190015E+03  0.47681326343E+03  0.79205379736E+02 0.  0.
          5    1    3    3  501    0  0.11837459418E+03 -0.30449330335E+02  0.20424947404E+02  0.12401199434E+03  0.47000000000E+01 0. -1.
        -11    1    4    4    0    0  0.34037907949E+02 -0.63968354193E+02  0.10160752124E+02  0.73169463572E+02  0.00000000000E+00 0.  1.
         12    1    4    4    0    0  0.53405870208E+02 -0.94111049952E+02  0.12881305092E+03  0.16823162242E+03  0.00000000000E+00 0. -1.
         -5    1    5    5    0  502 -0.16203630069E+03  0.83412244597E+02  0.91878100653E+03  0.93669311584E+03  0.47000000000E+01 0.  1.
         11    1    6    6    0    0 -0.24262960186E+02  0.10152193446E+03  0.43667666822E+03  0.44897873778E+03  0.00000000000E+00 0. -1.
        -12    1    6    6    0    0 -0.19519111456E+02  0.35945554197E+01  0.19515231926E+02  0.27834525643E+02  0.00000000000E+00 0.  1.
</event>
<event>
12    1  0.8313893E-002  0.2501806E+03  0.7818608E-02  0.1113639E+00
         21   -1    0    0  501  502  0.00000000000E+00  0.00000000000E+00  0.13220469482E+04  0.13220469482E+04  0.00000000000E+00 0.  1.
         21   -1    0    0  502  503 -0.00000000000E+00 -0.00000000000E+00 -0.56572793261E+02  0.56572793261E+02  0.00000000000E+00 0.  1.
         -6    2    1    2    0  503 -0.36650131058E+02  0.17767955770E+03  0.34936936601E+03  0.42970840138E+03  0.17227042401E+03 0.  0.
        -24    2    3    3    0    0  0.55820985829E+01  0.63067016944E+02  0.25743554643E+03  0.27675902120E+03  0.79459969784E+02 0.  0.
          6    2    1    2  501    0  0.36650131058E+02 -0.17767955770E+03  0.91610478897E+03  0.94891134011E+03  0.16814127896E+03 0.  0.
         24    2    5    5    0    0  0.12695527475E+02 -0.19873143197E+03  0.81026065277E+03  0.83826742653E+03  0.80713037925E+02 0.  0.
          5    1    5    5  501    0  0.23954603583E+02  0.21051874278E+02  0.10584413620E+03  0.11064391357E+03  0.47000000000E+01 0. -1.
        -13    1    6    6    0    0  0.34540626822E+02 -0.41257892423E+02  0.25951745884E+03  0.26503694088E+03  0.00000000000E+00 0.  1.
         14    1    6    6    0    0 -0.21845099347E+02 -0.15747353955E+03  0.55074319393E+03  0.57323048565E+03  0.00000000000E+00 0. -1.
         -5    1    3    3    0  503 -0.42232229640E+02  0.11461254075E+03  0.91933819578E+02  0.15294938019E+03  0.47000000000E+01 0.  1.
         11    1    4    4    0    0 -0.24875538589E+02  0.23318547469E+02  0.18847817026E+03  0.19153737949E+03  0.00000000000E+00 0. -1.
        -12    1    4    4    0    0  0.30457637172E+02  0.39748469475E+02  0.68957376169E+02  0.85221641710E+02  0.00000000000E+00 0.  1.
</event>
<event>
12    1  0.8313893E-002  0.2450330E+03  0.7818608E-02  0.1116686E+00
         21   -1    0    0  503  502  0.00000000000E+00  0.00000000000E+00  0.19042874481E+04  0.19042874481E+04  0.00000000000E+00 0.  1.
         21   -1    0    0  501  503 -0.00000000000E+00 -0.00000000000E+00 -0.24057238956E+03  0.24057238956E+03  0.00000000000E+00 0.  1.
          6    2    1    2  501    0 -0.11888793263E+03  0.12552345991E+03 -0.16848517073E+03  0.29634723383E+03  0.17188353827E+03 0.  0.
         24    2    3    3    0    0 -0.29678744180E+02  0.12664596364E+03 -0.12366150303E+03  0.19639329191E+03  0.79737881914E+02 0.  0.
         -6    2    1    2    0  502  0.11888793263E+03 -0.12552345991E+03  0.18322002293E+04  0.18485126038E+04  0.17363953149E+03 0.  0.
        -24    2    5    5    0    0  0.28214920494E+02 -0.78710839666E+02  0.54206556988E+03  0.55434007055E+03  0.80413641589E+02 0.  0.
          5    1    3    3  501    0 -0.89209188451E+02 -0.11225037319E+01 -0.44823667696E+02  0.99953941915E+02  0.47000000000E+01 0. -1.
        -11    1    4    4    0    0 -0.54093519659E+02  0.10668981167E+03 -0.86285445295E+02  0.14749238236E+03  0.00000000000E+00 0.  1.
         12    1    4    4    0    0  0.24414775479E+02  0.19956151972E+02 -0.37376057740E+02  0.48900909556E+02  0.00000000000E+00 0. -1.
         -5    1    5    5    0  502  0.90673012136E+02 -0.46812620243E+02  0.12901346594E+04  0.12941725333E+04  0.47000000000E+01 0.  1.
         13    1    6    6    0    0 -0.23972548050E+02 -0.39250282494E+02  0.30351842187E+03  0.30698322454E+03  0.00000000000E+00 0. -1.
        -14    1    6    6    0    0  0.52187468545E+02 -0.39460557172E+02  0.23854714801E+03  0.24735684601E+03  0.00000000000E+00 0.  1.
</event>
<event>
12    1  0.8313893E-002  0.1858516E+03  0.7818608E-02  0.1162347E+00
         21   -1    0    0  501  502  0.00000000000E+00  0.00000000000E+00  0.42097325646E+03  0.42097325646E+03  0.00000000000E+00 0. -1.
         21   -1    0    0  502  503 -0.00000000000E+00 -0.00000000000E+00 -0.58710802845E+03  0.58710802845E+03  0.00000000000E+00 0. -1.
         -6    2    1    2    0  503  0.80289809483E+01  0.70290404189E+02 -0.55062948581E+03  0.58102507342E+03  0.17144124310E+03 0.  0.
        -24    2    3    3    0    0  0.52215962157E+02  0.78397403570E+02 -0.48912115797E+03  0.50471270783E+03  0.81380284356E+02 0.  0.
          6    2    1    2  501    0 -0.80289809483E+01 -0.70290404189E+02  0.38449471382E+03  0.42705621149E+03  0.17185929525E+03 0.  0.
         24    2    5    5    0    0  0.22093154861E+02 -0.20509092290E+02  0.77071317748E+02  0.11413967864E+03  0.78607556013E+02 0.  0.
          5    1    5    5  501    0 -0.30122135810E+02 -0.49781311899E+02  0.30742339607E+03  0.31291653285E+03  0.47000000000E+01 0. -1.
        -11    1    6    6    0    0  0.44654076659E+02  0.99140624379E+01  0.35496364791E+02  0.57898766046E+02  0.00000000000E+00 0.  1.
         12    1    6    6    0    0 -0.22560921798E+02 -0.30423154728E+02  0.41574952957E+02  0.56240912594E+02  0.00000000000E+00 0. -1.
         -5    1    3    3    0  503 -0.44186981209E+02 -0.81069993807E+01 -0.61508327841E+02  0.76312365585E+02  0.47000000000E+01 0.  1.
         11    1    4    4    0    0  0.14059795570E+02  0.41636799062E+02 -0.38865340389E+03  0.39113011804E+03  0.00000000000E+00 0. -1.
        -12    1    4    4    0    0  0.38156166587E+02  0.36760604508E+02 -0.10046775408E+03  0.11358258979E+03  0.00000000000E+00 0.  1.
</event>
<event>
12    1  0.8313893E-002  0.2104438E+03  0.7818608E-02  0.1141734E+00
         21   -1    0    0  503  502  0.00000000000E+00  0.00000000000E+00  0.80356615860E+03  0.80356615860E+03  0.00000000000E+00 0. -1.
         21   -1    0    0  501  503 -0.00000000000E+00 -0.00000000000E+00 -0.54603438133E+02  0.54603438133E+02  0.00000000000E+00 0.  1.
          6    2    1    2  501    0  0.11760060714E+03  0.11386738017E+01  0.40093263426E+03  0.45280632562E+03  0.17451473270E+03 0.  0.
         24    2    3    3    0    0  0.82219322248E+02  0.24587146612E+02  0.12698933521E+03  0.17555429715E+03  0.85606514124E+02 0.  0.
         -6    2    1    2    0  502 -0.11760060714E+03 -0.11386738017E+01  0.34803008621E+03  0.40536327111E+03  0.17135705788E+03 0.  0.
        -24    2    5    5    0    0 -0.47492712859E+02  0.55792311935E+02  0.24840807640E+03  0.27081629487E+03  0.79161564543E+02 0.  0.
          5    1    3    3  501    0  0.35381284893E+02 -0.23448472810E+02  0.27394329905E+03  0.27725202848E+03  0.47000000000E+01 0. -1.
        -13    1    4    4    0    0  0.42319537840E+02 -0.30786952300E+02  0.46340860765E+02  0.69901753135E+02  0.00000000000E+00 0.  1.
         14    1    4    4    0    0  0.39899784408E+02  0.55374098911E+02  0.80648474446E+02  0.10565254401E+03  0.00000000000E+00 0. -1.
         -5    1    5    5    0  502 -0.70107894282E+02 -0.56930985737E+02  0.99622009802E+02  0.13454697624E+03  0.47000000000E+01 0.  1.
         13    1    6    6    0    0 -0.65211404973E+02  0.20495029908E+02  0.15953462935E+03  0.17356229876E+03  0.00000000000E+00 0. -1.
        -14    1    6    6    0    0  0.17718692113E+02  0.35297282027E+02  0.88873447051E+02  0.97253996110E+02  0.00000000000E+00 0.  1.
</event>
<event>
12    1  0.8313893E-002  0.1812204E+03  0.7818608E-02  0.1166702E+00
         21   -1    0    0  503  502  0.00000000000E+00  0.00000000000E+00  0.85694795221E+03  0.85694795221E+03  0.00000000000E+00 0. -1.
         21   -1    0    0  501  503 -0.00000000000E+00 -0.00000000000E+00 -0.38922132705E+02  0.38922132705E+02  0.00000000000E+00 0.  1.
          6    2    1    2  501    0  0.55260967499E+02 -0.83089444767E+01  0.46791538771E+03  0.50178245645E+03  0.17238912512E+03 0.  0.
         24    2    3    3    0    0  0.83704241065E+02  0.32194380934E+02  0.23612475692E+03  0.26472017412E+03  0.79240088476E+02 0.  0.
         -6    2    1    2    0  502 -0.55260967499E+02  0.83089444767E+01  0.35011043179E+03  0.39408762846E+03  0.17206083624E+03 0.  0.
        -24    2    5    5    0    0 -0.46996495097E+02  0.47829805873E+02  0.11951042983E+03  0.15993244296E+03  0.82457762478E+02 0.  0.
          5    1    3    3  501    0 -0.28443273566E+02 -0.40503325411E+02  0.23179063079E+03  0.23706228233E+03  0.47000000000E+01 0. -1.
        -11    1    4    4    0    0 -0.52461658181E+01 -0.93402362879E+01  0.20693751787E+01  0.10910755397E+02  0.00000000000E+00 0.  1.
         12    1    4    4    0    0  0.88950406883E+02  0.41534617222E+02  0.23405538174E+03  0.25380941873E+03  0.00000000000E+00 0. -1.
         -5    1    5    5    0  502 -0.82644724017E+01 -0.39520861397E+02  0.23060000196E+03  0.23415518550E+03  0.47000000000E+01 0.  1.
         11    1    6    6    0    0 -0.53922178105E+02  0.26538901267E+02  0.12335428273E+03  0.13721586512E+03  0.00000000000E+00 0. -1.
        -12    1    6    6    0    0  0.69256830079E+01  0.21290904606E+02 -0.38438528971E+01  0.22716577849E+02  0.00000000000E+00 0.  1.
</event>
<event>
12    1  0.8313893E-002  0.2034603E+03  0.7818608E-02  0.1147253E+00
         21   -1    0    0  501  502  0.00000000000E+00  0.00000000000E+00  0.75908555664E+03  0.75908555664E+03  0.00000000000E+00 0.  1.
         21   -1    0    0  502  503 -0.00000000000E+00 -0.00000000000E+00 -0.55602199041E+02  0.55602199041E+02  0.00000000000E+00 0.  1.
         -6    2    1    2    0  503  0.37283848991E+02 -0.10157032364E+03  0.41888552740E+03  0.46484205333E+03  0.17001892083E+03 0.  0.
        -24    2    3    3    0    0  0.21547242512E+02 -0.11832640800E+03  0.21254561196E+03  0.25717246516E+03  0.80601595418E+02 0.  0.
          6    2    1    2  501    0 -0.37283848991E+02  0.10157032364E+03  0.28459783020E+03  0.34984570235E+03  0.17230633900E+03 0.  0.
         24    2    5    5    0    0 -0.30050054798E+02  0.58391087635E+02  0.56941428347E+02  0.11797008590E+03  0.79762710564E+02 0.  0.
          5    1    5    5  501    0 -0.72337941931E+01  0.43179236001E+02  0.22765640185E+03  0.23187561645E+03  0.47000000000E+01 0. -1.
        -11    1    6    6    0    0  0.19266262198E+02  0.18527348615E+02  0.46596745419E+02  0.53718788049E+02  0.00000000000E+00 0.  1.
         12    1    6    6    0    0 -0.49316316996E+02  0.39863739020E+02  0.10344682927E+02  0.64251297851E+02  0.00000000000E+00 0. -1.
         -5    1    3    3    0  503  0.15736606479E+02  0.16756084362E+02  0.20633991544E+03  0.20766958817E+03  0.47000000000E+01 0.  1.
         13    1    4    4    0    0 -0.28522811536E+02 -0.66220871823E+02  0.96403223947E+02  0.12038411951E+03  0.00000000000E+00 0. -1.
        -14    1    4    4    0    0  0.50070054048E+02 -0.52105536175E+02  0.11614238801E+03  0.13678834565E+03  0.00000000000E+00 0.  1.
</event>
<event>
12    1  0.8313893E-002  0.2746034E+03  0.7818608E-02  0.1098697E+00
         21   -1    0    0  501  502  0.00000000000E+00  0.00000000000E+00  0.50475347461E+02  0.50475347461E+02  0.00000000000E+00 0. -1.
         21   -1    0    0  502  503 -0.00000000000E+00 -0.00000000000E+00 -0.15484016288E+04  0.15484016288E+04  0.00000000000E+00 0. -1.
         -6    2    1    2    0  503 -0.15537855541E+03  0.14516106782E+03 -0.89994653788E+03  0.94085963312E+03  0.17349019307E+03 0.  0.
        -24    2    3    3    0    0  0.25814814872E+00  0.39493775488E+02 -0.29389837368E+03  0.30626934995E+03  0.76582215440E+02 0.  0.
          6    2    1    2  501    0  0.15537855541E+03 -0.14516106782E+03 -0.59797974343E+03  0.65801734312E+03  0.17376081032E+03 0.  0.
         24    2    5    5    0    0  0.86257404856E+02 -0.25484443790E+02 -0.17862358553E+03  0.21644978887E+03  0.82790875276E+02 0.  0.
          5    1    5    5  501    0  0.69121150549E+02 -0.11967662403E+03 -0.41935615791E+03  0.44156755425E+03  0.47000000000E+01 0. -1.
        -13    1    6    6    0    0  0.30947947251E+02  0.17044735290E+02 -0.12071298057E+03  0.12577727187E+03  0.00000000000E+00 0.  1.
         14    1    6    6    0    0  0.55309457605E+02 -0.42529179079E+02 -0.57910604956E+02  0.90672517005E+02  0.00000000000E+00 0. -1.
         -5    1    3    3    0  503 -0.15563670355E+03  0.10566729233E+03 -0.60604816420E+03  0.63459028317E+03  0.47000000000E+01 0.  1.
         13    1    4    4    0    0 -0.18010488787E+02  0.57384182587E+02 -0.19124559026E+03  0.20047991897E+03  0.00000000000E+00 0. -1.
        -14    1    4    4    0    0  0.18268636936E+02 -0.17890407099E+02 -0.10265278343E+03  0.10578943098E+03  0.00000000000E+00 0.  1.
</event>
<event>
12    1  0.8313893E-002  0.1751829E+03  0.7818608E-02  0.1172642E+00
         21   -1    0    0  501  502  0.00000000000E+00  0.00000000000E+00  0.93519372414E+02  0.93519372414E+02  0.00000000000E+00 0.  1.
         21   -1    0    0  502  503 -0.00000000000E+00 -0.00000000000E+00 -0.40275371346E+03  0.40275371346E+03  0.00000000000E+00 0.  1.
         -6    2    1    2    0  503  0.18349167399E+00  0.30429656980E+02 -0.26177235714E+03  0.31477462820E+03  0.17214035525E+03 0.  0.
        -24    2    3    3    0    0 -0.61697484950E+02  0.43578553407E+02 -0.18248754218E+03  0.21323487920E+03  0.80384953130E+02 0.  0.
          6    2    1    2  501    0 -0.18349167399E+00 -0.30429656980E+02 -0.47461983905E+02  0.18149845767E+03  0.17251971634E+03 0.  0.
         24    2    5    5    0    0 -0.31510851910E+02 -0.68754159661E+02  0.58059205989E+01  0.10863055901E+03  0.77761310285E+02 0.  0.
          5    1    5    5  501    0  0.31327360236E+02  0.38324502681E+02 -0.53267904504E+02  0.72867898662E+02  0.47000000000E+01 0. -1.
        -11    1    6    6    0    0  0.50567858003E+01 -0.61004497515E+02  0.25579087665E+02  0.66343119655E+02  0.00000000000E+00 0.  1.
         12    1    6    6    0    0 -0.36567637710E+02 -0.77496621455E+01 -0.19773167066E+02  0.42287439351E+02  0.00000000000E+00 0. -1.
         -5    1    3    3    0  503  0.61880976624E+02 -0.13148896427E+02 -0.79284814955E+02  0.10153974900E+03  0.47000000000E+01 0.  1.
         11    1    4    4    0    0 -0.34155392747E+02 -0.51831501676E+01 -0.16949427695E+02  0.38480371600E+02  0.00000000000E+00 0. -1.
        -12    1    4    4    0    0 -0.27542092204E+02  0.48761703575E+02 -0.16553811449E+03  0.17475450760E+03  0.00000000000E+00 0.  1.
</event>
<event>
12    1  0.8313893E-002  0.1798885E+03  0.7818608E-02  0.1172105E+00
         21   -1    0    0  501  502  0.00000000000E+00  0.00000000000E+00  0.41545718361E+03  0.41545718361E+03  0.00000000000E+00 0. -1.
         21   -1    0    0  502  503 -0.00000000000E+00 -0.00000000000E+00 -0.11707010692E+03  0.11707010692E+03  0.00000000000E+00 0. -1.
         -6    2    1    2    0  503 -0.56365472132E+02  0.26314258113E+02 -0.22186075670E+02  0.16493103130E+03  0.15113079271E+03 0.  0.
        -24    2    3    3    0    0 -0.36535378867E+01  0.55500949964E+02  0.86975923307E+01  0.97061288839E+02  0.79066692688E+02 0.  0.
          6    2    1    2  501    0  0.56365472132E+02 -0.26314258113E+02  0.32057315237E+03  0.36759625923E+03  0.16879086809E+03 0.  0.
         24    2    5    5    0    0  0.24829749958E+02  0.49650735651E+02  0.17344742148E+03  0.19897463327E+03  0.80157249416E+02 0.  0.
          5    1    5    5  501    0  0.31535722174E+02 -0.75964993764E+02  0.14712573089E+03  0.16862162596E+03  0.47000000000E+01 0. -1.
        -11    1    6    6    0    0 -0.99935844181E+01  0.58021399839E+02  0.83594221537E+02  0.10224650822E+03  0.00000000000E+00 0.  1.
         12    1    6    6    0    0  0.34823334376E+02 -0.83706641883E+01  0.89853199941E+02  0.96728125050E+02  0.00000000000E+00 0. -1.
         -5    1    3    3    0  503 -0.52711934245E+02 -0.29186691851E+02 -0.30883668001E+02  0.67869742465E+02  0.47000000000E+01 0.  1.
         11    1    4    4    0    0 -0.39778282638E+02  0.42551137011E+02  0.67137835726E+01  0.58634340794E+02  0.00000000000E+00 0. -1.
        -12    1    4    4    0    0  0.36124744751E+02  0.12949812953E+02  0.19838087582E+01  0.38426948044E+02  0.00000000000E+00 0.  1.
</event>
<event>
12    1  0.8313893E-002  0.2077548E+03  0.7818608E-02  0.1143397E+00
         21   -1    0    0  501  502  0.00000000000E+00  0.00000000000E+00  0.32181621952E+03  0.32181621952E+03  0.00000000000E+00 0. -1.
         21   -1    0    0  502  503 -0.00000000000E+00 -0.00000000000E+00 -0.24370807444E+03  0.24370807444E+03  0.00000000000E+00 0.  1.
         -6    2    1    2    0  503 -0.64242485444E+01  0.11553771639E+03 -0.15068082025E+03  0.25648309589E+03  0.17230390015E+03 0.  0.
        -24    2    3    3    0    0 -0.33299232480E+02  0.54650538938E+02 -0.15931887708E+03  0.18920591427E+03  0.79503793071E+02 0.  0.
          6    2    1    2  501    0  0.64242485444E+01 -0.11553771639E+03  0.22878896533E+03  0.30904119807E+03  0.17254517255E+03 0.  0.
         24    2    5    5    0    0 -0.77378522906E+01 -0.14964032640E+03  0.17855315565E+03  0.24651696530E+03  0.80232681279E+02 0.  0.
          5    1    5    5  501    0  0.14162100835E+02  0.34102610007E+02  0.50235809677E+02  0.62524232768E+02  0.47000000000E+01 0. -1.
        -13    1    6    6    0    0  0.25834740618E+02 -0.64419410227E+02  0.39069383002E+02  0.79647416311E+02  0.00000000000E+00 0.  1.
         14    1    6    6    0    0 -0.33572592909E+02 -0.85220916174E+02  0.13948377265E+03  0.16686954899E+03  0.00000000000E+00 0. -1.
         -5    1    3    3    0  503  0.26874983935E+02  0.60887177456E+02  0.86380568306E+01  0.67277181613E+02  0.47000000000E+01 0.  1.
         13    1    4    4    0    0 -0.24210557444E+02  0.31146270533E+02 -0.14218342175E+02  0.41933310316E+02  0.00000000000E+00 0. -1.
        -14    1    4    4    0    0 -0.90886750352E+01  0.23504268405E+02 -0.14510053490E+03  0.14727260396E+03  0.00000000000E+00 0.  1.
</event>
<event>
12    1  0.8313893E-002  0.1910788E+03  0.7818608E-02  0.1157718E+00
         21   -1    0    0  503  502  0.00000000000E+00  0.00000000000E+00  0.62126756245E+02  0.62126756245E+02  0.00000000000E+00 0.  1.
         21   -1    0    0  501  503 -0.00000000000E+00 -0.00000000000E+00 -0.60619308866E+03  0.60619308866E+03  0.00000000000E+00 0.  1.
          6    2    1    2  501    0  0.67875546726E+02  0.46696505357E+02 -0.33441759950E+03  0.38465860064E+03  0.17128763743E+03 0.  0.
         24    2    3    3    0    0  0.36443484677E+02  0.62367503236E+02 -0.33335231568E+03  0.34920751421E+03  0.74861796536E+02 0.  0.
         -6    2    1    2    0  502 -0.67875546726E+02 -0.46696505357E+02 -0.20964873291E+03  0.28366124426E+03  0.17240492113E+03 0.  0.
        -24    2    5    5    0    0 -0.68962732684E+02  0.42603259051E+01 -0.20690255895E+03  0.23240295618E+03  0.80177654410E+02 0.  0.
          5    1    3    3  501    0  0.31432062050E+02 -0.15670997879E+02 -0.10652838207E+01  0.35451086427E+02  0.47000000000E+01 0. -1.
        -13    1    4    4    0    0  0.31848239784E+02 -0.45016082816E+01 -0.16300130647E+03  0.16614451771E+03  0.00000000000E+00 0.  1.
         14    1    4    4    0    0  0.45952448930E+01  0.66869111517E+02 -0.17035100921E+03  0.18306299651E+03  0.00000000000E+00 0. -1.
         -5    1    5    5    0  502  0.10871859580E+01 -0.50956831262E+02 -0.27461739671E+01  0.51258288082E+02  0.47000000000E+01 0.  1.
         13    1    6    6    0    0 -0.85466410730E+02  0.11638951791E+02 -0.15418674990E+03  0.17667350228E+03  0.00000000000E+00 0. -1.
        -14    1    6    6    0    0  0.16503678046E+02 -0.73786258863E+01 -0.52715809047E+02  0.55729453905E+02  0.00000000000E+00 0.  1.
</event>
<event>
12    1  0.8313893E-002  0.1796841E+03  0.7818608E-02  0.1168123E+00
         21   -1    0    0  503  502  0.00000000000E+00  0.00000000000E+00  0.90084838781E+02  0.90084838781E+02  0.00000000000E+00 0. -1.
         21   -1    0    0  501  503 -0.00000000000E+00 -0.00000000000E+00 -0.36505813336E+03  0.36505813336E+03  0.00000000000E+00 0. -1.
          6    2    1    2  501    0 -0.36815634522E+02  0.36625940006E+02 -0.16849959139E+03  0.24633002233E+03  0.17201603755E+03 0.  0.
         24    2    3    3    0    0  0.41077987254E+02  0.29462659372E+02 -0.52679276176E+02  0.10649024144E+03  0.77521713407E+02 0.  0.
         -6    2    1    2    0  502  0.36815634522E+02 -0.36625940006E+02 -0.10647370319E+03  0.20881294981E+03  0.17195740203E+03 0.  0.
        -24    2    5    5    0    0 -0.32880459245E+02 -0.33024052808E+02 -0.10347440542E+03  0.13880148743E+03  0.79919882833E+02 0.  0.
          5    1    3    3  501    0 -0.77893621776E+02  0.71632806339E+01 -0.11582031521E+03  0.13983978089E+03  0.47000000000E+01 0. -1.
        -11    1    4    4    0    0  0.21565823140E+02 -0.57746749025E+00  0.17446568472E+02  0.27745286948E+02  0.00000000000E+00 0.  1.
         12    1    4    4    0    0  0.19512164114E+02  0.30040126863E+02 -0.70125844648E+02  0.78744954492E+02  0.00000000000E+00 0. -1.
         -5    1    5    5    0  502  0.69696093767E+02 -0.36018871980E+01 -0.29992977715E+01  0.70011462383E+02  0.47000000000E+01 0.  1.
         13    1    6    6    0    0  0.17970868270E+02 -0.37242715667E+02 -0.42587108074E+02  0.59360203426E+02  0.00000000000E+00 0. -1.
        -14    1    6    6    0    0 -0.50851327515E+02  0.42186628587E+01 -0.60887297347E+02  0.79441284007E+02  0.00000000000E+00 0.  1.
</event>
<event>
12    1  0.8313893E-002  0.1912109E+03  0.7818608E-02  0.1157605E+00
         21   -1    0    0  503  502  0.00000000000E+00  0.00000000000E+00  0.27108889942E+02  0.27108889942E+02  0.00000000000E+00 0.  1.
         21   -1    0    0  501  503 -0.00000000000E+00 -0.00000000000E+00 -0.13696947963E+04  0.13696947963E+04  0.00000000000E+00 0.  1.
          6    2    1    2  501    0 -0.24738419045E+02 -0.79162349617E+02 -0.77337512654E+03  0.79666221896E+03  0.17228736983E+03 0.  0.
         24    2    3    3    0    0 -0.15151252987E+02 -0.60440413094E+02 -0.19284215529E+03  0.21572930944E+03  0.73948861336E+02 0.  0.
         -6    2    1    2    0  502  0.24738419045E+02  0.79162349617E+02 -0.56921077979E+03  0.60014146725E+03  0.17114380476E+03 0.  0.
        -24    2    5    5    0    0 -0.48237509854E+02  0.57501201361E+02 -0.26271025443E+03  0.28429442581E+03  0.78570969491E+02 0.  0.
          5    1    3    3  501    0 -0.95871660581E+01 -0.18721936522E+02 -0.58053297124E+03  0.58093290952E+03  0.47000000000E+01 0. -1.
        -11    1    4    4    0    0 -0.41065459992E+02 -0.47143705766E+02 -0.95684321491E+02  0.11429956420E+03  0.00000000000E+00 0.  1.
         12    1    4    4    0    0  0.25914207006E+02 -0.13296707328E+02 -0.97157833802E+02  0.10142974524E+03  0.00000000000E+00 0. -1.
         -5    1    5    5    0  502  0.72975928899E+02  0.21661148256E+02 -0.30650052536E+03  0.31584704144E+03  0.47000000000E+01 0.  1.
         11    1    6    6    0    0 -0.29814723674E+02  0.48161044774E+02 -0.68040730761E+02  0.88532169430E+02  0.00000000000E+00 0. -1.
        -12    1    6    6    0    0 -0.18422786180E+02  0.93401565866E+01 -0.19466952367E+03  0.19576225638E+03  0.00000000000E+00 0.  1.
</event>
<event>
12    1  0.8313893E-002  0.2382791E+03  0.7818608E-02  0.1121298E+00
         21   -1    0    0  501  502  0.00000000000E+00  0.00000000000E+00  0.63352216109E+02  0.63352216109E+02  0.00000000000E+00 0.  1.
         21   -1    0    0  502  503 -0.00000000000E+00 -0.00000000000E+00 -0.92027655448E+03  0.92027655448E+03  0.00000000000E+00 0.  1.
         -6    2    1    2    0  503 -0.10513723257E+03 -0.12689558648E+03 -0.51822999564E+03  0.56951433591E+03  0.16919788086E+03 0.  0.
        -24    2    3    3    0    0  0.37958351770E+01 -0.88119456846E+02 -0.29884283797E+03  0.32147640246E+03  0.79123880698E+02 0.  0.
          6    2    1    2  501    0  0.10513723257E+03  0.12689558648E+03 -0.33869434273E+03  0.41411443468E+03  0.17210630340E+03 0.  0.
         24    2    5    5    0    0  0.96533347374E+02  0.35949120406E+01 -0.12516010504E+03  0.16734319684E+03  0.54836877079E+02 0.  0.
          5    1    5    5  501    0  0.86038851935E+01  0.12330067444E+03 -0.21353423769E+03  0.24677123784E+03  0.47000000000E+01 0. -1.
        -13    1    6    6    0    0  0.52341101450E+02 -0.17693837830E+01 -0.10725988239E+03  0.11936248988E+03  0.00000000000E+00 0.  1.
         14    1    6    6    0    0  0.44192245924E+02  0.53642958237E+01 -0.17900222646E+02  0.47980706959E+02  0.00000000000E+00 0. -1.
         -5    1    3    3    0  503 -0.10893306774E+03 -0.38776129630E+02 -0.21938715767E+03  0.24803793345E+03  0.47000000000E+01 0.  1.
         11    1    4    4    0    0  0.61501868646E+01 -0.78947707523E+02 -0.12897168817E+03  0.15134153980E+03  0.00000000000E+00 0. -1.
        -12    1    4    4    0    0 -0.23543516876E+01 -0.91717493230E+01 -0.16987114980E+03  0.17013486266E+03  0.00000000000E+00 0.  1.
</event>
<event>
12    1  0.8313893E-002  0.1760943E+03  0.7818608E-02  0.1171692E+00
         21   -1    0    0  503  502  0.00000000000E+00  0.00000000000E+00  0.21187879721E+03  0.21187879721E+03  0.00000000000E+00 0. -1.
         21   -1    0    0  501  503 -0.00000000000E+00 -0.00000000000E+00 -0.14895949147E+03  0.14895949147E+03  0.00000000000E+00 0. -1.
          6    2    1    2  501    0 -0.17501139580E+02  0.30503047555E+02  0.67624034564E+01  0.17600650723E+03  0.17232479418E+03 0.  0.
         24    2    3    3    0    0  0.15857500333E+02 -0.45355748928E+01  0.61459887527E+02  0.10283268210E+03  0.80778778011E+02 0.  0.
         -6    2    1    2    0  502  0.17501139580E+02 -0.30503047555E+02  0.56156902283E+02  0.18483178145E+03  0.17254699059E+03 0.  0.
        -24    2    5    5    0    0  0.60090092549E+02  0.23138252189E+02  0.88601482318E+01  0.10146343675E+03  0.77911031530E+02 0.  0.
          5    1    3    3  501    0 -0.33358639913E+02  0.35038622448E+02 -0.54697484071E+02  0.73173825126E+02  0.47000000000E+01 0. -1.
        -13    1    4    4    0    0  0.70360720321E+00 -0.17010162726E+02 -0.15734375403E+02  0.23182132525E+02  0.00000000000E+00 0.  1.
         14    1    4    4    0    0  0.15153893130E+02  0.12474587834E+02  0.77194262930E+02  0.79650549577E+02  0.00000000000E+00 0. -1.
         -5    1    5    5    0  502 -0.42588952969E+02 -0.53641299744E+02  0.47296754051E+02  0.83368344693E+02  0.47000000000E+01 0.  1.
         13    1    6    6    0    0  0.17644778175E+02 -0.21863294430E+02  0.24917231063E+02  0.37552766130E+02  0.00000000000E+00 0. -1.
        -14    1    6    6    0    0  0.42445314374E+02  0.45001546619E+02 -0.16057082831E+02  0.63910670623E+02  0.00000000000E+00 0.  1.
</event>
<event>
12    1  0.8313893E-002  0.2035910E+03  0.7818608E-02  0.1147668E+00
         21   -1    0    0  503  502  0.00000000000E+00  0.00000000000E+00  0.99536120638E+02  0.99536120638E+02  0.00000000000E+00 0. -1.
         21   -1    0    0  501  503 -0.00000000000E+00 -0.00000000000E+00 -0.64984784411E+03  0.64984784411E+03  0.00000000000E+00 0. -1.
          6    2    1    2  501    0 -0.51133499293E+02 -0.88526220227E+02 -0.48203540941E+02  0.20921973320E+03  0.17606188964E+03 0.  0.
         24    2    3    3    0    0 -0.47065185078E+02 -0.11074357392E+03 -0.82727886875E+02  0.16769645722E+03  0.82455610403E+02 0.  0.
         -6    2    1    2    0  502  0.51133499293E+02  0.88526220227E+02 -0.50210818253E+03  0.54016423155E+03  0.17091882183E+03 0.  0.
        -24    2    5    5    0    0  0.78968626176E+02  0.10719258869E+03 -0.33048427951E+03  0.36523544121E+03  0.80316707602E+02 0.  0.
          5    1    3    3  501    0 -0.40683142153E+01  0.22217353698E+02  0.34524345934E+02  0.41523275979E+02  0.47000000000E+01 0. -1.
        -11    1    4    4    0    0 -0.15943318018E+02  0.58509230495E+01  0.58915236443E+01  0.17975893324E+02  0.00000000000E+00 0.  1.
         12    1    4    4    0    0 -0.31121867060E+02 -0.11659449697E+03 -0.88619410519E+02  0.14972056390E+03  0.00000000000E+00 0. -1.
         -5    1    5    5    0  502 -0.27835126883E+02 -0.18666368466E+02 -0.17162390302E+03  0.17492879033E+03  0.47000000000E+01 0.  1.
         11    1    6    6    0    0  0.57721790379E+01  0.46932223809E+02 -0.18968577109E+03  0.19549077583E+03  0.00000000000E+00 0. -1.
        -12    1    6    6    0    0  0.73196447138E+02  0.60260364884E+02 -0.14079850843E+03  0.16974466538E+03  0.00000000000E+00 0.  1.
</event>
<event>
12    1  0.8313893E-002  0.1826865E+03  0.7818608E-02  0.1165647E+00
         21   -1    0    0  501  502  0.00000000000E+00  0.00000000000E+00  0.60907620342E+03  0.60907620342E+03  0.00000000000E+00 0. -1.
         21   -1    0    0  502  503 -0.00000000000E+00 -0.00000000000E+00 -0.10609287563E+03  0.10609287563E+03  0.00000000000E+00 0. -1.
         -6    2    1    2    0  503 -0.49432410769E+02 -0.27754869237E+02  0.95344915856E+00  0.18093284334E+03  0.17181934912E+03 0.  0.
        -24    2    3    3    0    0 -0.87583862004E+02 -0.13910127994E+02  0.33298771613E+02  0.12882219207E+03  0.87303633565E+02 0.  0.
          6    2    1    2  501    0  0.49432410769E+02  0.27754869237E+02  0.50202987863E+03  0.53423623571E+03  0.17366767260E+03 0.  0.
         24    2    5    5    0    0 -0.39811780463E+02  0.18628053810E+02  0.29069041476E+03  0.30459677173E+03  0.79663629481E+02 0.  0.
          5    1    5    5  501    0  0.89244191232E+02  0.91268154266E+01  0.21133946387E+03  0.22963946398E+03  0.47000000000E+01 0. -1.
        -11    1    6    6    0    0 -0.57800824667E+02  0.43162223414E+00  0.13554111125E+03  0.14735166938E+03  0.00000000000E+00 0.  1.
         12    1    6    6    0    0  0.17989044204E+02  0.18196431576E+02  0.15514930351E+03  0.15724510235E+03  0.00000000000E+00 0. -1.
         -5    1    3    3    0  503  0.38151451236E+02 -0.13844741243E+02 -0.32345322455E+02  0.52110651274E+02  0.47000000000E+01 0.  1.
         11    1    4    4    0    0 -0.45601217608E+02 -0.48312009795E+02  0.26451043083E+01  0.66486975526E+02  0.00000000000E+00 0. -1.
        -12    1    4    4    0    0 -0.41982644397E+02  0.34401881801E+02  0.30653667305E+02  0.62335216541E+02  0.00000000000E+00 0.  1.
</event>
<event>
12    1  0.8313893E-002  0.1926023E+03  0.7818608E-02  0.1156353E+00
         21   -1    0    0  501  502  0.00000000000E+00  0.00000000000E+00  0.16944994434E+04  0.16944994434E+04  0.00000000000E+00 0. -1.
         21   -1    0    0  502  503 -0.00000000000E+00 -0.00000000000E+00 -0.23028258253E+02  0.23028258253E+02  0.00000000000E+00 0. -1.
         -6    2    1    2    0  503  0.24514650604E+02  0.78094382005E+02  0.10376758146E+04  0.10553988582E+04  0.17434435240E+03 0.  0.
        -24    2    3    3    0    0  0.94691266051E+01  0.10952267128E+03  0.55274796864E+03  0.56919806543E+03  0.79820053692E+02 0.  0.
          6    2    1    2  501    0 -0.24514650604E+02 -0.78094382005E+02  0.63379537061E+03  0.66212884346E+03  0.17325799530E+03 0.  0.
         24    2    5    5    0    0 -0.38924531534E+02 -0.99639578457E+02  0.30298202996E+03  0.33026833585E+03  0.76393052266E+02 0.  0.
          5    1    5    5  501    0  0.14409880930E+02  0.21545196452E+02  0.33081334065E+03  0.33186050761E+03  0.47000000000E+01 0. -1.
        -11    1    6    6    0    0 -0.51901099957E+02 -0.59147689695E+02  0.25135843391E+03  0.26338799454E+03  0.00000000000E+00 0.  1.
         12    1    6    6    0    0  0.12976568423E+02 -0.40491888762E+02  0.51623596051E+02  0.66880341303E+02  0.00000000000E+00 0. -1.
         -5    1    3    3    0  503  0.15045523999E+02 -0.31428289280E+02  0.48492784593E+03  0.48620079279E+03  0.47000000000E+01 0.  1.
         11    1    4    4    0    0  0.41949703794E+02  0.85996829120E+02  0.38136411659E+03  0.39318420834E+03  0.00000000000E+00 0. -1.
        -12    1    4    4    0    0 -0.32480577188E+02  0.23525842165E+02  0.17138385205E+03  0.17601385709E+03  0.00000000000E+00 0.  1.
</event>
<event>
12    1  0.8313893E-002  0.2518514E+03  0.7818608E-02  0.1112213E+00
         21   -1    0    0  501  502  0.00000000000E+00  0.00000000000E+00  0.27836355036E+03  0.27836355036E+03  0.00000000000E+00 0. -1.
         21   -1    0    0  502  503 -0.00000000000E+00 -0.00000000000E+00 -0.24562740718E+03  0.24562740718E+03  0.00000000000E+00 0. -1.
         -6    2    1    2    0  503 -0.17809237048E+03 -0.44450945758E+02 -0.54895792000E+02  0.25776474297E+03  0.17244226784E+03 0.  0.
        -24    2    3    3    0    0 -0.21636283404E+02 -0.21773274679E+02 -0.49085721038E+02  0.99497150351E+02  0.80920149952E+02 0.  0.
          6    2    1    2  501    0  0.17809237048E+03  0.44450945758E+02  0.87631935184E+02  0.26622621457E+03  0.17176804784E+03 0.  0.
         24    2    5    5    0    0  0.12851180359E+03  0.76621774698E+02  0.11333861543E+02  0.16959971257E+03  0.79053311541E+02 0.  0.
          5    1    5    5  501    0  0.49580566892E+02 -0.32170828940E+02  0.76298073641E+02  0.96626502004E+02  0.47000000000E+01 0. -1.
        -11    1    6    6    0    0  0.11327067559E+03  0.31811728055E+02 -0.91878382789E+01  0.11801122135E+03  0.00000000000E+00 0.  1.
         12    1    6    6    0    0  0.15241127993E+02  0.44810046643E+02  0.20521699822E+02  0.51588491219E+02  0.00000000000E+00 0. -1.
         -5    1    3    3    0  503 -0.15645608707E+03 -0.22677671079E+02 -0.58100709619E+01  0.15826759262E+03  0.47000000000E+01 0.  1.
         13    1    4    4    0    0 -0.22041203558E+02 -0.16385438085E+02 -0.71419951622E+02  0.76518669129E+02  0.00000000000E+00 0. -1.
        -14    1    4    4    0    0  0.40492015387E+00 -0.53878365938E+01  0.22334230584E+02  0.22978481222E+02  0.00000000000E+00 0.  1.
</event>
<event>
12    1  0.8313893E-002  0.2302886E+03  0.7818608E-02  0.1126529E+00
         21   -1    0    0  501  502  0.00000000000E+00  0.00000000000E+00  0.11204465906E+03  0.11204465906E+03  0.00000000000E+00 0. -1.
         21   -1    0    0  502  503 -0.00000000000E+00 -0.00000000000E+00 -0.47285109227E+03  0.47285109227E+03  0.00000000000E+00 0.  1.
         -6    2    1    2    0  503  0.56971383219E+02  0.14135052872E+03 -0.19065481196E+03  0.29856651232E+03  0.17195055824E+03 0.  0.
        -24    2    3    3    0    0 -0.55453230111E+01  0.75152813743E+02 -0.30118665135E+02  0.11394684797E+03  0.79987837524E+02 0.  0.
          6    2    1    2  501    0 -0.56971383219E+02 -0.14135052872E+03 -0.17015162125E+03  0.28632923901E+03  0.17264746863E+03 0.  0.
         24    2    5    5    0    0 -0.32791606239E+02 -0.13351304680E+02 -0.60614303258E+02  0.11606774307E+03  0.92434195214E+02 0.  0.
          5    1    5    5  501    0 -0.24179776979E+02 -0.12799922404E+03 -0.10953731799E+03  0.17026149595E+03  0.47000000000E+01 0. -1.
        -11    1    6    6    0    0 -0.59838526189E+02  0.11817382543E+02 -0.29442762378E+02  0.67728694089E+02  0.00000000000E+00 0.  1.
         12    1    6    6    0    0  0.27046919949E+02 -0.25168687224E+02 -0.31171540880E+02  0.48339048979E+02  0.00000000000E+00 0. -1.
         -5    1    3    3    0  503  0.62516706230E+02  0.66197714977E+02 -0.16053614683E+03  0.18461966435E+03  0.47000000000E+01 0.  1.
         11    1    4    4    0    0  0.61973144539E+01 -0.15996470565E+02  0.24957880431E+00  0.17156808169E+02  0.00000000000E+00 0. -1.
        -12    1    4    4    0    0 -0.11742637465E+02  0.91149284308E+02 -0.30368243939E+02  0.96790039800E+02  0.00000000000E+00 0.  1.
</event>
<event>
12    1  0.8313893E-002  0.1991033E+03  0.7818608E-02  0.1150789E+00
         21   -1    0    0  501  502  0.00000000000E+00  0.00000000000E+00  0.13791749510E+03  0.13791749510E+03  0.00000000000E+00 0.  1.
         21   -1    0    0  502  503 -0.00000000000E+00 -0.00000000000E+00 -0.32148251601E+03  0.32148251601E+03  0.00000000000E+00 0.  1.
         -6    2    1    2    0  503  0.26701276787E+02  0.97606333512E+02 -0.16894850193E+03  0.26112391884E+03  0.17147055188E+03 0.  0.
        -24    2    3    3    0    0 -0.37350392247E+02  0.88387746594E+02 -0.70609787558E+02  0.14330969476E+03  0.79652250221E+02 0.  0.
          6    2    1    2  501    0 -0.26701276787E+02 -0.97606333512E+02 -0.14616518980E+02  0.19827609227E+03  0.16988175774E+03 0.  0.
         24    2    5    5    0    0 -0.80277995066E+02 -0.52580241289E+02 -0.13343981783E+02  0.12812252448E+03  0.83833651735E+02 0.  0.
          5    1    5    5  501    0  0.53576718279E+02 -0.45026092223E+02 -0.12725371963E+01  0.70153567788E+02  0.47000000000E+01 0. -1.
        -11    1    6    6    0    0 -0.80302823636E+02 -0.72082232204E+02 -0.10603240980E+02  0.10842887255E+03  0.00000000000E+00 0.  1.
         12    1    6    6    0    0  0.24828570413E-01  0.19501990915E+02 -0.27407408030E+01  0.19693651928E+02  0.00000000000E+00 0. -1.
         -5    1    3    3    0  503  0.64051669034E+02  0.92185869179E+01 -0.98338714370E+02  0.11781422408E+03  0.47000000000E+01 0.  1.
         13    1    4    4    0    0  0.30437046969E+01  0.78309075611E+02 -0.63947115680E+02  0.10114746198E+03  0.00000000000E+00 0. -1.
        -14    1    4    4    0    0 -0.40394096944E+02  0.10078670983E+02 -0.66626718776E+01  0.42162232783E+02  0.00000000000E+00 0.  1.
</event>
<event>
12    1  0.8313893E-002  0.2234290E+03  0.7818608E-02  0.1132334E+00
         21   -1    0    0  503  502  0.00000000000E+00  0.00000000000E+00  0.33068493321E+03  0.33068493321E+03  0.00000000000E+00 0. -1.
         21   -1    0    0  501  503 -0.00000000000E+00 -0.00000000000E+00 -0.20278194210E+03  0.20278194210E+03  0.00000000000E+00 0. -1.
          6    2    1    2  501    0  0.48157869460E+02 -0.13128929913E+03 -0.75998998544E+02  0.23098289727E+03  0.16739531234E+03 0.  0.
         24    2    3    3    0    0 -0.36521828049E+02 -0.43075040214E+02 -0.33024711960E+02  0.10128599694E+03  0.77323467093E+02 0.  0.
         -6    2    1    2    0  502 -0.48157869460E+02  0.13128929913E+03  0.20390198965E+03  0.30248397804E+03  0.17425405340E+03 0.  0.
        -24    2    5    5    0    0 -0.28703512506E+02  0.14564349132E+03  0.21679836809E+03  0.27468251378E+03  0.80081413435E+02 0.  0.
          5    1    3    3  501    0  0.84679697509E+02 -0.88214258915E+02 -0.42974286584E+02  0.12969690032E+03  0.47000000000E+01 0. -1.
        -13    1    4    4    0    0 -0.22538027175E+00  0.14816902824E+02 -0.29325037721E+02  0.32856494684E+02  0.00000000000E+00 0.  1.
         14    1    4    4    0    0 -0.36296447777E+02 -0.57891943038E+02 -0.36996742388E+01  0.68429502259E+02  0.00000000000E+00 0. -1.
         -5    1    5    5    0  502 -0.19454356954E+02 -0.14354192194E+02 -0.12896378433E+02  0.27801464255E+02  0.47000000000E+01 0.  1.
         11    1    6    6    0    0  0.20705835674E+02  0.83363647905E+02  0.85526638329E+02  0.12121483113E+03  0.00000000000E+00 0. -1.
        -12    1    6    6    0    0 -0.49409348180E+02  0.62279843418E+02  0.13127172976E+03  0.15346768265E+03  0.00000000000E+00 0.  1.
</event>
<event>
12    1  0.8313893E-002  0.2176347E+03  0.7818608E-02  0.1137589E+00
         21   -1    0    0  503  502  0.00000000000E+00  0.00000000000E+00  0.20435922168E+03  0.20435922168E+03  0.00000000000E+00 0.  1.
         21   -1    0    0  501  503 -0.00000000000E+00 -0.00000000000E+00 -0.22164253441E+03  0.22164253441E+03  0.00000000000E+00 0.  1.
          6    2    1    2  501    0  0.35510778545E+00 -0.11712305775E+03 -0.17381149572E+02  0.21832769931E+03  0.18343103110E+03 0.  0.
         24    2    3    3    0    0  0.25688176485E+02 -0.74040330773E+02  0.59048324469E+02  0.12688678814E+03  0.80446873094E+02 0.  0.
         -6    2    1    2    0  502 -0.35510778545E+00  0.11712305775E+03  0.97836840363E-01  0.20767405678E+03  0.17149509476E+03 0.  0.
        -24    2    5    5    0    0 -0.59363027231E+02  0.40474271641E+02 -0.92959706417E+01  0.11037398181E+03  0.83269833217E+02 0.  0.
          5    1    3    3  501    0 -0.25333068699E+02 -0.43082726974E+02 -0.76429474041E+02  0.91440911169E+02  0.47000000000E+01 0. -1.
        -13    1    4    4    0    0  0.25180265955E+00 -0.63626868060E+02  0.21108349133E+01  0.63662370108E+02  0.00000000000E+00 0.  1.
         14    1    4    4    0    0  0.25436373825E+02 -0.10413462713E+02  0.56937489556E+02  0.63224418036E+02  0.00000000000E+00 0. -1.
         -5    1    5    5    0  502  0.59007919446E+02  0.76648786107E+02  0.93938074820E+01  0.97300074964E+02  0.47000000000E+01 0.  1.
         11    1    6    6    0    0 -0.39514058452E+02 -0.21411558956E+02 -0.21913851354E+01  0.44995753590E+02  0.00000000000E+00 0. -1.
        -12    1    6    6    0    0 -0.19848968779E+02  0.61885830597E+02 -0.71045855063E+01  0.65378228222E+02  0.00000000000E+00 0.  1.
</event>
<event>
12    1  0.8313893E-002  0.2241734E+03  0.7818608E-02  0.1131260E+00
         21   -1    0    0  503  502  0.00000000000E+00  0.00000000000E+00  0.45249167605E+03  0.45249167605E+03  0.00000000000E+00 0.  1.
         21   -1    0    0  501  503 -0.00000000000E+00 -0.00000000000E+00 -0.10994427259E+03  0.10994427259E+03  0.00000000000E+00 0. -1.
          6    2    1    2  501    0 -0.13911806860E+03 -0.38937393189E+02  0.18071322321E+03  0.28794265593E+03  0.17141687915E+03 0.  0.
         24    2    3    3    0    0 -0.54744448041E+02 -0.21647873189E+02  0.17648546128E+03  0.20158410500E+03  0.77610877711E+02 0.  0.
         -6    2    1    2    0  502  0.13911806860E+03  0.38937393189E+02  0.16183418025E+03  0.27449329271E+03  0.16818533898E+03 0.  0.
        -24    2    5    5    0    0  0.63510053931E+02  0.85722017985E+02  0.92337709907E+02  0.16154541806E+03  0.78669422945E+02 0.  0.
          5    1    3    3  501    0 -0.84373620558E+02 -0.17289520000E+02  0.42277619336E+01  0.86358550931E+02  0.47000000000E+01 0. -1.
        -11    1    4    4    0    0 -0.61691630476E+01 -0.35471001357E+02  0.30756807947E+02  0.47352209505E+02  0.00000000000E+00 0.  1.
         12    1    4    4    0    0 -0.48575284994E+02  0.13823128167E+02  0.14572865333E+03  0.15423189549E+03  0.00000000000E+00 0. -1.
         -5    1    5    5    0  502  0.75608014668E+02 -0.46784624795E+02  0.69496470340E+02  0.11294787465E+03  0.47000000000E+01 0.  1.
         11    1    6    6    0    0  0.12572717618E+02 -0.13762483397E+02  0.39547714801E+01  0.19055691933E+02  0.00000000000E+00 0. -1.
        -12    1    6    6    0    0  0.50937336313E+02  0.99484501382E+02  0.88382938426E+02  0.14248972612E+03  0.00000000000E+00 0.  1.
</event>
<event>
12    1  0.8313893E-002  0.1844546E+03  0.7818608E-02  0.1163834E+00
         21   -1    0    0  501  502  0.00000000000E+00  0.00000000000E+00  0.20439879846E+02  0.20439879846E+02  0.00000000000E+00 0.  1.
         21   -1    0    0  502  503 -0.00000000000E+00 -0.00000000000E+00 -0.16831457045E+04  0.16831457045E+04  0.00000000000E+00 0.  1.
         -6    2    1    2    0  503 -0.32097422384E+02  0.53492923541E+02 -0.94590646731E+03  0.96372327385E+03  0.17358504046E+03 0.  0.
        -24    2    3    3    0    0 -0.84014073611E+02  0.47080066081E+02 -0.74997703492E+03  0.76087629731E+03  0.84807368271E+02 0.  0.
          6    2    1    2  501    0  0.32097422384E+02 -0.53492923541E+02 -0.71679935737E+03  0.73986231052E+03  0.17234611226E+03 0.  0.
         24    2    5    5    0    0 -0.45614771107E+02 -0.12572818003E+02 -0.32757511498E+03  0.34082441644E+03  0.81345213670E+02 0.  0.
          5    1    5    5  501    0  0.77712193491E+02 -0.40920105538E+02 -0.38922424238E+03  0.39903789408E+03  0.47000000000E+01 0. -1.
        -13    1    6    6    0    0 -0.55080304329E+02 -0.86340829359E+01 -0.11300969746E+03  0.12601420171E+03  0.00000000000E+00 0.  1.
         14    1    6    6    0    0  0.94655332213E+01 -0.39387350672E+01 -0.21456541752E+03  0.21481021472E+03  0.00000000000E+00 0. -1.
         -5    1    3    3    0  503  0.51916651227E+02  0.64128574600E+01 -0.19592943239E+03  0.20284697654E+03  0.47000000000E+01 0.  1.
         13    1    4    4    0    0 -0.80752235787E+02  0.27423106864E+02 -0.71902668306E+03  0.72406651719E+03  0.00000000000E+00 0. -1.
        -14    1    4    4    0    0 -0.32618378246E+01  0.19656959217E+02 -0.30950351863E+02  0.36809780115E+02  0.00000000000E+00 0.  1.
</event>
<event>
12    1  0.8313893E-002  0.2464861E+03  0.7818608E-02  0.1115601E+00
         21   -1    0    0  503  502  0.00000000000E+00  0.00000000000E+00  0.95402119526E+02  0.95402119526E+02  0.00000000000E+00 0. -1.
         21   -1    0    0  501  503 -0.00000000000E+00 -0.00000000000E+00 -0.67388788451E+03  0.67388788451E+03  0.00000000000E+00 0. -1.
          6    2    1    2  501    0 -0.90722650308E+02  0.15154143934E+03 -0.19779535932E+03  0.31576979057E+03  0.17144138751E+03 0.  0.
         24    2    3    3    0    0 -0.43376285880E+02  0.40519541376E+01 -0.75529287149E+02  0.11837194642E+03  0.80058253627E+02 0.  0.
         -6    2    1    2    0  502  0.90722650308E+02 -0.15154143934E+03 -0.38069040566E+03  0.45352021346E+03  0.17193019498E+03 0.  0.
        -24    2    5    5    0    0  0.25409219298E+02 -0.36125371805E+02 -0.25143897236E+03  0.26827784271E+03  0.82466800296E+02 0.  0.
          5    1    3    3  501    0 -0.47346364428E+02  0.14748948520E+03 -0.12226607217E+03  0.19739784415E+03  0.47000000000E+01 0. -1.
        -13    1    4    4    0    0 -0.27511550722E+02 -0.65739574504E+00 -0.91393788485E+02  0.95447064732E+02  0.00000000000E+00 0.  1.
         14    1    4    4    0    0 -0.15864735158E+02  0.47093498826E+01  0.15864501336E+02  0.22924881692E+02  0.00000000000E+00 0. -1.
         -5    1    5    5    0  502  0.65313431009E+02 -0.11541606753E+03 -0.12925143329E+03  0.18524237076E+03  0.47000000000E+01 0.  1.
         11    1    6    6    0    0 -0.24341005560E+02 -0.36406796481E+02 -0.11650053046E+03  0.12446008589E+03  0.00000000000E+00 0. -1.
        -12    1    6    6    0    0  0.49750224859E+02  0.28142467629E+00 -0.13493844190E+03  0.14381775681E+03  0.00000000000E+00 0.  1.
</event>
<event>
12    1  0.8313893E-002  0.1758583E+03  0.7818608E-02  0.1173066E+00
         21   -1    0    0  503  502  0.00000000000E+00  0.00000000000E+00  0.12663790575E+02  0.12663790575E+02  0.00000000000E+00 0. -1.
         21   -1    0    0  501  503 -0.00000000000E+00 -0.00000000000E+00 -0.26387000997E+04  0.26387000997E+04  0.00000000000E+00 0. -1.
          6    2    1    2  501    0 -0.86213404493E+01  0.11210132032E+02 -0.17143610021E+04  0.17228823265E+04  0.17055752907E+03 0.  0.
         24    2    3    3    0    0 -0.28591864773E+02  0.62288890202E+02 -0.81469247872E+03  0.82153144952E+03  0.80577212078E+02 0.  0.
         -6    2    1    2    0  502  0.86213404493E+01 -0.11210132032E+02 -0.91167530695E+03  0.92848156374E+03  0.17528877414E+03 0.  0.
        -24    2    5    5    0    0 -0.50363612032E+02 -0.44908174669E+01 -0.75382002722E+03  0.75976655805E+03  0.80274083217E+02 0.  0.
          5    1    3    3  501    0  0.19970524324E+02 -0.51078758171E+02 -0.89966852342E+03  0.90135087697E+03  0.47000000000E+01 0. -1.
        -13    1    4    4    0    0  0.41562619333E+00  0.62993409793E+02 -0.71308484051E+03  0.71586195051E+03  0.00000000000E+00 0.  1.
         14    1    4    4    0    0 -0.29007490967E+02 -0.70451959130E+00 -0.10160763820E+03  0.10566949901E+03  0.00000000000E+00 0. -1.
         -5    1    5    5    0  502  0.58984952482E+02 -0.67193145648E+01 -0.15785527972E+03  0.16871500569E+03  0.47000000000E+01 0.  1.
         11    1    6    6    0    0 -0.47807935124E+02  0.59305939858E+01 -0.19565878302E+03  0.20150218356E+03  0.00000000000E+00 0. -1.
        -12    1    6    6    0    0 -0.25556769086E+01 -0.10421411453E+02 -0.55816124420E+03  0.55826437450E+03  0.00000000000E+00 0.  1.
</event>
<event>
12    1  0.8313893E-002  0.2117828E+03  0.7818608E-02  0.1140502E+00
         21   -1    0    0  501  502  0.00000000000E+00  0.00000000000E+00  0.31844766022E+03  0.31844766022E+03  0.00000000000E+00 0.  1.
         21   -1    0    0  502  503 -0.00000000000E+00 -0.00000000000E+00 -0.16538740361E+03  0.16538740361E+03  0.00000000000E+00 0.  1.
         -6    2    1    2    0  503  0.10986914016E+03  0.46459012019E+02 -0.18546476308E+02  0.21259329274E+03  0.17499219576E+03 0.  0.
        -24    2    3    3    0    0  0.68344731856E+02 -0.28769553549E+02 -0.50997132450E+02  0.12062183713E+03  0.80313326986E+02 0.  0.
          6    2    1    2  501    0 -0.10986914016E+03 -0.46459012019E+02  0.17160673291E+03  0.27124177109E+03  0.17289754147E+03 0.  0.
         24    2    5    5    0    0 -0.90782978581E+02  0.53297015075E+01  0.40264706246E+02  0.12869644363E+03  0.81679698308E+02 0.  0.
          5    1    5    5  501    0 -0.19086161578E+02 -0.51788713527E+02  0.13134202667E+03  0.14254532746E+03  0.47000000000E+01 0. -1.
        -13    1    6    6    0    0 -0.63607504908E+02 -0.27549046913E+02 -0.10326414710E+01  0.69324822501E+02  0.00000000000E+00 0.  1.
         14    1    6    6    0    0 -0.27175473673E+02  0.32878748420E+02  0.41297347717E+02  0.59371621129E+02  0.00000000000E+00 0. -1.
         -5    1    3    3    0  503  0.41524408303E+02  0.75228565568E+02  0.32450656142E+02  0.91971455607E+02  0.47000000000E+01 0.  1.
         13    1    4    4    0    0  0.84785910534E+02 -0.27296754859E+02 -0.53533469375E+02  0.10392110370E+03  0.00000000000E+00 0. -1.
        -14    1    4    4    0    0 -0.16441178677E+02 -0.14727986903E+01  0.25363369247E+01  0.16700733435E+02  0.00000000000E+00 0.  1.
</event>
<event>
12    1  0.8313893E-002  0.1951277E+03  0.7818608E-02  0.1154171E+00
         21   -1    0    0  503  502  0.00000000000E+00  0.00000000000E+00  0.44093428354E+03  0.44093428354E+03  0.00000000000E+00 0. -1.
         21   -1    0    0  501  503 -0.00000000000E+00 -0.00000000000E+00 -0.21418124367E+03  0.21418124367E+03  0.00000000000E+00 0.  1.
          6    2    1    2  501    0  0.17131816736E+02  0.88231071420E+02 -0.14032394205E+03  0.23939889387E+03  0.17188019248E+03 0.  0.
         24    2    3    3    0    0  0.76944459986E+02  0.47226198975E+02 -0.93246500223E+02  0.15281178522E+03  0.80658341818E+02 0.  0.
         -6    2    1    2    0  502 -0.17131816736E+02 -0.88231071420E+02  0.36707698191E+03  0.41571663334E+03  0.17319522937E+03 0.  0.
        -24    2    5    5    0    0  0.38430825058E+02 -0.12559405127E+02  0.10256495584E+03  0.13499949781E+03  0.77914230219E+02 0.  0.
          5    1    3    3  501    0 -0.59812643250E+02  0.41004872444E+02 -0.47077441824E+02  0.86587108656E+02  0.47000000000E+01 0. -1.
        -11    1    4    4    0    0  0.38353449716E+02 -0.15120802524E+02 -0.11087723680E+02  0.42691490844E+02  0.00000000000E+00 0.  1.
         12    1    4    4    0    0  0.38591010270E+02  0.62347001499E+02 -0.82158776542E+02  0.11012029437E+03  0.00000000000E+00 0. -1.
         -5    1    5    5    0  502 -0.55562641794E+02 -0.75671666293E+02  0.26451202607E+03  0.28071713553E+03  0.47000000000E+01 0.  1.
         11    1    6    6    0    0  0.56531975547E+02 -0.25386830897E+02  0.90675613443E+02  0.10982905952E+03  0.00000000000E+00 0. -1.
        -12    1    6    6    0    0 -0.18101150489E+02  0.12827425771E+02  0.11889342394E+02  0.25170438285E+02  0.00000000000E+00 0.  1.
</event>
<event>
12    1  0.8313893E-002  0.1846269E+03  0.7818608E-02  0.1164206E+00
         21   -1    0    0  501  502  0.00000000000E+00  0.00000000000E+00  0.41546256950E+03  0.41546256950E+03  0.00000000000E+00 0.  1.
         21   -1    0    0  502  503 -0.00000000000E+00 -0.00000000000E+00 -0.10662879897E+03  0.10662879897E+03  0.00000000000E+00 0.  1.
         -6    2    1    2    0  503 -0.80953623489E+01  0.55524410074E+02  0.26375710257E+02  0.18650143975E+03  0.17589375751E+03 0.  0.
        -24    2    3    3    0    0 -0.65517713750E+02  0.12493519447E+02 -0.81460890276E+01  0.10673409922E+03  0.82928585705E+02 0.  0.
          6    2    1    2  501    0  0.80953623489E+01 -0.55524410074E+02  0.28245806027E+03  0.33558992873E+03  0.17230655660E+03 0.  0.
         24    2    5    5    0    0 -0.32831959246E+02 -0.61380325086E+02  0.26864004360E+03  0.29174514593E+03  0.90012639636E+02 0.  0.
          5    1    5    5  501    0  0.40927321595E+02  0.58559150121E+01  0.13818016669E+02  0.43844782794E+02  0.47000000000E+01 0. -1.
        -11    1    6    6    0    0  0.97622826166E+01 -0.45882410414E+01  0.16931798708E+03  0.16966123560E+03  0.00000000000E+00 0.  1.
         12    1    6    6    0    0 -0.42594241863E+02 -0.56792084045E+02  0.99322056525E+02  0.12208391033E+03  0.00000000000E+00 0. -1.
         -5    1    3    3    0  503  0.57422351401E+02  0.43030890627E+02  0.34521799285E+02  0.79767340525E+02  0.47000000000E+01 0.  1.
         11    1    4    4    0    0 -0.44056543557E+02  0.35599548538E+02  0.24167999658E+02  0.61582457679E+02  0.00000000000E+00 0. -1.
        -12    1    4    4    0    0 -0.21461170192E+02 -0.23106029092E+02 -0.32314088685E+02  0.45151641542E+02  0.00000000000E+00 0.  1.
</event>
<event>
12    1  0.8313893E-002  0.1814080E+03  0.7818608E-02  0.1166565E+00
         21   -1    0    0  501  502  0.00000000000E+00  0.00000000000E+00  0.18371838338E+03  0.18371838338E+03  0.00000000000E+00 0.  1.
         21   -1    0    0  502  503 -0.00000000000E+00 -0.00000000000E+00 -0.29046686616E+03  0.29046686616E+03  0.00000000000E+00 0.  1.
         -6    2    1    2    0  503 -0.55293767514E+02 -0.16037995095E+02 -0.20052609119E+03  0.27040630733E+03  0.17202976423E+03 0.  0.
        -24    2    3    3    0    0 -0.59765210317E+02 -0.73456606056E+02 -0.12631280745E+03  0.17634998288E+03  0.78591588598E+02 0.  0.
          6    2    1    2  501    0  0.55293767514E+02  0.16037995095E+02  0.93777608410E+02  0.20377894221E+03  0.17151384620E+03 0.  0.
         24    2    5    5    0    0  0.40666931314E+02 -0.33213453460E+02  0.11362011114E+03  0.14850268658E+03  0.79916115221E+02 0.  0.
          5    1    5    5  501    0  0.14626836200E+02  0.49251448556E+02 -0.19842502734E+02  0.55276255633E+02  0.47000000000E+01 0. -1.
        -13    1    6    6    0    0  0.50729560036E+02 -0.18427760986E+02  0.27556928685E+02  0.60600783452E+02  0.00000000000E+00 0.  1.
         14    1    6    6    0    0 -0.10062628722E+02 -0.14785692474E+02  0.86063182459E+02  0.87901903129E+02  0.00000000000E+00 0. -1.
         -5    1    3    3    0  503  0.44714428031E+01  0.57418610960E+02 -0.74213283735E+02  0.94056324445E+02  0.47000000000E+01 0.  1.
         13    1    4    4    0    0 -0.19609231225E+02 -0.59307969623E+02 -0.26534595919E+02  0.67867827360E+02  0.00000000000E+00 0. -1.
        -14    1    4    4    0    0 -0.40155979092E+02 -0.14148636433E+02 -0.99778211532E+02  0.10848215552E+03  0.00000000000E+00 0.  1.
</event>
<event>
12    1  0.8313893E-002  0.3206141E+03  0.7818608E-02  0.1075414E+00
         21   -1    0    0  501  502  0.00000000000E+00  0.00000000000E+00  0.12412663298E+03  0.12412663298E+03  0.00000000000E+00 0. -1.
         21   -1    0    0  502  503 -0.00000000000E+00 -0.00000000000E+00 -0.83310466237E+03  0.83310466237E+03  0.00000000000E+00 0.  1.
         -6    2    1    2    0  503 -0.11209950114E+03 -0.24590488496E+03 -0.31400390787E+03  0.44876706720E+03  0.17250482844E+03 0.  0.
        -24    2    3    3    0    0 -0.49525155823E+02 -0.53000161318E+02 -0.60854965420E+02  0.12436876547E+03  0.80638110404E+02 0.  0.
          6    2    1    2  501    0  0.11209950114E+03  0.24590488496E+03 -0.39497412151E+03  0.50846422816E+03  0.17174342504E+03 0.  0.
         24    2    5    5    0    0  0.14555067606E+03  0.20320490103E+03 -0.36509773710E+03  0.44635981546E+03  0.58851475061E+02 0.  0.
          5    1    5    5  501    0 -0.33451174915E+02  0.42699983932E+02 -0.29876384416E+02  0.62104412700E+02  0.47000000000E+01 0. -1.
        -13    1    6    6    0    0  0.16980641584E+02  0.54241680136E+02 -0.54954866047E+02  0.79060352609E+02  0.00000000000E+00 0.  1.
         14    1    6    6    0    0  0.12857003447E+03  0.14896322090E+03 -0.31014287105E+03  0.36729946285E+03  0.00000000000E+00 0. -1.
         -5    1    3    3    0  503 -0.62574345319E+02 -0.19290472365E+03 -0.25314894245E+03  0.32439830172E+03  0.47000000000E+01 0.  1.
         13    1    4    4    0    0 -0.62328554473E+02 -0.63943773760E+02 -0.59846749857E+02  0.10749552723E+03  0.00000000000E+00 0. -1.
        -14    1    4    4    0    0  0.12803398650E+02  0.10943612441E+02 -0.10082155625E+01  0.16873238245E+02  0.00000000000E+00 0.  1.
</event>
<event>
12    1  0.8313893E-002  0.1913650E+03  0.7818608E-02  0.1158205E+00
         21   -1    0    0  503  502  0.00000000000E+00  0.00000000000E+00  0.94503505407E+02  0.94503505407E+02  0.00000000000E+00 0.  1.
         21   -1    0    0  501  503 -0.00000000000E+00 -0.00000000000E+00 -0.39841892672E+03  0.39841892672E+03  0.00000000000E+00 0. -1.
          6    2    1    2  501    0 -0.43990955396E+02  0.66936377323E+02 -0.20490904214E+03  0.27746285651E+03  0.16906282390E+03 0.  0.
         24    2    3    3    0    0  0.20146915794E+02  0.61824943254E+02 -0.18211331560E+03  0.20904116092E+03  0.79402301069E+02 0.  0.
         -6    2    1    2    0  502  0.43990955396E+02 -0.66936377323E+02 -0.99006379178E+02  0.21545957562E+03  0.17379552021E+03 0.  0.
        -24    2    5    5    0    0  0.54054052709E+02 -0.26181895171E+02  0.72524807624E+01  0.10111260776E+03  0.81017459368E+02 0.  0.
          5    1    3    3  501    0 -0.64137871190E+02  0.51114340681E+01 -0.22795726543E+02  0.68421695592E+02  0.47000000000E+01 0. -1.
        -13    1    4    4    0    0  0.61662352194E+01 -0.10560284428E+02  0.36385682358E+00  0.12234151207E+02  0.00000000000E+00 0.  1.
         14    1    4    4    0    0  0.13980680575E+02  0.72385227682E+02 -0.18247717242E+03  0.19680700971E+03  0.00000000000E+00 0. -1.
         -5    1    5    5    0  502 -0.10063097313E+02 -0.40754482152E+02 -0.10625885994E+03  0.11434696786E+03  0.47000000000E+01 0.  1.
         11    1    6    6    0    0  0.47639143809E+01  0.26950161825E+02 -0.43622743499E+01  0.27713454135E+02  0.00000000000E+00 0. -1.
        -12    1    6    6    0    0  0.49290138328E+02 -0.53132056996E+02  0.11614755112E+02  0.73399153628E+02  0.00000000000E+00 0.  1.
</event>
<event>
12    1  0.8313893E-002  0.2083209E+03  0.7818608E-02  0.1143053E+00
         21   -1    0    0  501  502  0.00000000000E+00  0.00000000000E+00  0.50777598912E+03  0.50777598912E+03  0.00000000000E+00 0. -1.
         21   -1    0    0  502  503 -0.00000000000E+00 -0.00000000000E+00 -0.85319494798E+02  0.85319494798E+02  0.00000000000E+00 0.  1.
         -6    2    1    2    0  503  0.59813636670E+02 -0.99359086131E+02  0.22370807700E+03  0.30517445499E+03  0.17215180840E+03 0.  0.
        -24    2    3    3    0    0  0.56232032136E+02 -0.12443334611E+03  0.22971308503E+03  0.27872267762E+03  0.79199308866E+02 0.  0.
          6    2    1    2  501    0 -0.59813636670E+02  0.99359086131E+02  0.19874841732E+03  0.28792102893E+03  0.17305399846E+03 0.  0.
         24    2    5    5    0    0 -0.33238000144E+01  0.12264731989E+03  0.15060000911E+03  0.20998642371E+03  0.79752885068E+02 0.  0.
          5    1    5    5  501    0 -0.56489836656E+02 -0.23288233756E+02  0.48148408211E+02  0.77934605216E+02  0.47000000000E+01 0. -1.
        -13    1    6    6    0    0 -0.65848078412E+01  0.58729505123E+02  0.16438602575E+02  0.61341194323E+02  0.00000000000E+00 0.  1.
         14    1    6    6    0    0  0.32610078268E+01  0.63917814764E+02  0.13416140654E+03  0.14864522939E+03  0.00000000000E+00 0. -1.
         -5    1    3    3    0  503  0.35816045337E+01  0.25074259975E+02 -0.60050080357E+01  0.26451777366E+02  0.47000000000E+01 0.  1.
         13    1    4    4    0    0  0.47857220178E+02 -0.68357781766E+02  0.19534713208E+03  0.21242316696E+03  0.00000000000E+00 0. -1.
        -14    1    4    4    0    0  0.83748119587E+01 -0.56075564339E+02  0.34365952953E+02  0.66299510659E+02  0.00000000000E+00 0.  1.
</event>
<event>
12    1  0.8313893E-002  0.1742010E+03  0.7818608E-02  0.1173727E+00
         21   -1    0    0  503  502  0.00000000000E+00  0.00000000000E+00  0.11291575637E+03  0.11291575637E+03  0.00000000000E+00 0.  1.
         21   -1    0    0  501  503 -0.00000000000E+00 -0.00000000000E+00 -0.27045680301E+03  0.27045680301E+03  0.00000000000E+00 0.  1.
          6    2    1    2  501    0 -0.77222692947E+01  0.35166653261E+01 -0.98337751816E+02  0.19938605987E+03  0.17324112404E+03 0.  0.
         24    2    3    3    0    0 -0.53690243788E+02 -0.45241252700E+02 -0.57255720572E+02  0.12064463151E+03  0.79671176401E+02 0.  0.
         -6    2    1    2    0  502  0.77222692947E+01 -0.35166653261E+01 -0.59203294823E+02  0.18398649951E+03  0.17399425711E+03 0.  0.
        -24    2    5    5    0    0  0.47722807487E+02 -0.55980654445E+02 -0.67392363277E+02  0.11734068905E+03  0.61772215857E+02 0.  0.
          5    1    3    3  501    0  0.45967974493E+02  0.48757918027E+02 -0.41082031245E+02  0.78741428362E+02  0.47000000000E+01 0. -1.
        -11    1    4    4    0    0 -0.13590847102E+02 -0.21691200399E+02  0.18619170141E+02  0.31652690193E+02  0.00000000000E+00 0.  1.
         12    1    4    4    0    0 -0.40099396686E+02 -0.23550052301E+02 -0.75874890713E+02  0.88991941313E+02  0.00000000000E+00 0. -1.
         -5    1    5    5    0  502 -0.40000538192E+02  0.52463989119E+02  0.81890684538E+01  0.66645810462E+02  0.47000000000E+01 0.  1.
         11    1    6    6    0    0  0.90435340668E+01  0.74011917464E+01  0.58287277748E+01  0.13058989821E+02  0.00000000000E+00 0. -1.
        -12    1    6    6    0    0  0.38679273420E+02 -0.63381846192E+02 -0.73221091052E+02  0.10428169923E+03  0.00000000000E+00 0.  1.
</event>
<event>
12    1  0.8313893E-002  0.2701300E+03  0.7818608E-02  0.1101417E+00
         21   -1    0    0  501  502  0.00000000000E+00  0.00000000000E+00  0.13873303264E+04  0.13873303264E+04  0.00000000000E+00 0.  1.
         21   -1    0    0  502  503 -0.00000000000E+00 -0.00000000000E+00 -0.56301456557E+02  0.56301456557E+02  0.00000000000E+00 0.  1.
         -6    2    1    2    0  503  0.18540261014E+03  0.90914356915E+02  0.47503613697E+03  0.54647007845E+03  0.17415701846E+03 0.  0.
        -24    2    3    3    0    0  0.69572250162E+02 -0.17952202062E+02  0.14300045986E+03  0.17831470252E+03  0.78641096527E+02 0.  0.
          6    2    1    2  501    0 -0.18540261014E+03 -0.90914356915E+02  0.85599273286E+03  0.89716170449E+03  0.17186045838E+03 0.  0.
         24    2    5    5    0    0 -0.32300483084E+02 -0.72633874921E+02  0.41517603317E+03  0.43013291517E+03  0.79524745820E+02 0.  0.
          5    1    5    5  501    0 -0.15310212705E+03 -0.18280481994E+02  0.44081669969E+03  0.46702878932E+03  0.47000000000E+01 0. -1.
        -13    1    6    6    0    0 -0.29555831747E+02  0.84395924449E+01  0.13464060822E+03  0.13810455204E+03  0.00000000000E+00 0.  1.
         14    1    6    6    0    0 -0.27446513366E+01 -0.81073467366E+02  0.28053542494E+03  0.29202836313E+03  0.00000000000E+00 0. -1.
         -5    1    3    3    0  503  0.11583035998E+03  0.10886655898E+03  0.33203567711E+03  0.36815537593E+03  0.47000000000E+01 0.  1.
         13    1    4    4    0    0 -0.92794975635E+00  0.23895226243E+02  0.40830803078E+02  0.47318045268E+02  0.00000000000E+00 0. -1.
        -14    1    4    4    0    0  0.70500199918E+02 -0.41847428305E+02  0.10216965678E+03  0.13099665725E+03  0.00000000000E+00 0.  1.
</event>
<event>
12    1  0.8313893E-002  0.2417609E+03  0.7818608E-02  0.1118696E+00
         21   -1    0    0  503  502  0.00000000000E+00  0.00000000000E+00  0.10472996240E+03  0.10472996240E+03  0.00000000000E+00 0.  1.
         21   -1    0    0  501  503 -0.00000000000E+00 -0.00000000000E+00 -0.62314472095E+03  0.62314472095E+03  0.00000000000E+00 0.  1.
          6    2    1    2  501    0  0.11889099185E+03  0.12061765643E+03 -0.37748829233E+03  0.44803793633E+03  0.17192118705E+03 0.  0.
         24    2    3    3    0    0  0.54039356094E+02  0.12403341763E+03 -0.16966894408E+03  0.23025737339E+03  0.76982898885E+02 0.  0.
         -6    2    1    2    0  502 -0.11889099185E+03 -0.12061765643E+03 -0.14092646622E+03  0.27983674703E+03  0.17252434357E+03 0.  0.
        -24    2    5    5    0    0  0.13781340827E+01 -0.42288822984E+02 -0.84966411466E+02  0.12571443674E+03  0.82429271044E+02 0.  0.
          5    1    3    3  501    0  0.64851635758E+02 -0.34157611993E+01 -0.20781934825E+03  0.21778056294E+03  0.47000000000E+01 0. -1.
        -11    1    4    4    0    0  0.41331429235E+02  0.40072403425E+02 -0.25553762114E+02  0.62984754639E+02  0.00000000000E+00 0.  1.
         12    1    4    4    0    0  0.12707926859E+02  0.83961014200E+02 -0.14411518197E+03  0.16727261875E+03  0.00000000000E+00 0. -1.
         -5    1    5    5    0  502 -0.12026912593E+03 -0.78328833442E+02 -0.55960054750E+02  0.15412231029E+03  0.47000000000E+01 0.  1.
         13    1    6    6    0    0 -0.17226392269E+02  0.45183878347E+01 -0.71347628088E+02  0.73536715000E+02  0.00000000000E+00 0. -1.
        -14    1    6    6    0    0  0.18604526352E+02 -0.46807210819E+02 -0.13618783378E+02  0.52177721741E+02  0.00000000000E+00 0.  1.
</event>
<event>
12    1  0.8313893E-002  0.2050646E+03  0.7818608E-02  0.1145602E+00
         21   -1    0    0  501  502  0.00000000000E+00  0.00000000000E+00  0.14235804986E+04  0.14235804986E+04  0.00000000000E+00 0.  1.
         21   -1    0    0  502  503 -0.00000000000E+00 -0.00000000000E+00 -0.47824601730E+02  0.47824601730E+02  0.00000000000E+00 0.  1.
         -6    2    1    2    0  503  0.11296328047E+03  0.93403637746E+01  0.23203986177E+03  0.30945076953E+03  0.17049732015E+03 0.  0.
        -24    2    3    3    0    0  0.86824277960E+02  0.57848709810E+02  0.21652034862E+03  0.25201165066E+03  0.75788404348E+02 0.  0.
          6    2    1    2  501    0 -0.11296328047E+03 -0.93403637746E+01  0.11437160351E+04  0.11619543308E+04  0.17089047019E+03 0.  0.
         24    2    5    5    0    0 -0.65470010798E+02  0.57930157919E+02  0.70984160063E+03  0.72030962219E+03  0.85607408183E+02 0.  0.
          5    1    5    5  501    0 -0.47493269674E+02 -0.67270521694E+02  0.43387443446E+03  0.44164470859E+03  0.47000000000E+01 0. -1.
        -13    1    6    6    0    0 -0.15570564065E+02  0.66085120938E+02  0.49288665558E+03  0.49754089372E+03  0.00000000000E+00 0.  1.
         14    1    6    6    0    0 -0.49899446733E+02 -0.81549630191E+01  0.21695494504E+03  0.22276872847E+03  0.00000000000E+00 0. -1.
         -5    1    3    3    0  503  0.26139002512E+02 -0.48508346035E+02  0.15519513153E+02  0.57439118864E+02  0.47000000000E+01 0.  1.
         13    1    4    4    0    0 -0.20262633028E+01  0.37486827615E+02  0.70577050418E+02  0.79940528103E+02  0.00000000000E+00 0. -1.
        -14    1    4    4    0    0  0.88850541263E+02  0.20361882195E+02  0.14594329820E+03  0.17207112256E+03  0.00000000000E+00 0.  1.
</event>
<event>
12    1  0.8313893E-002  0.1966839E+03  0.7818608E-02  0.1152640E+00
         21   -1    0    0  503  502  0.00000000000E+00  0.00000000000E+00  0.60331569334E+02  0.60331569334E+02  0.00000000000E+00 0. -1.
         21   -1    0    0  501  503 -0.00000000000E+00 -0.00000000000E+00 -0.66412272922E+03  0.66412272922E+03  0.00000000000E+00 0. -1.
          6    2    1    2  501    0 -0.89551718057E+01  0.94657296099E+02 -0.37103042065E+03  0.41993825550E+03  0.17217539480E+03 0.  0.
         24    2    3    3    0    0  0.12903047307E+00 -0.64842503883E+01 -0.24244240722E+03  0.25602028103E+03  0.82012202296E+02 0.  0.
         -6    2    1    2    0  502  0.89551718057E+01 -0.94657296099E+02 -0.23276073924E+03  0.30451604306E+03  0.17179132674E+03 0.  0.
        -24    2    5    5    0    0  0.38988648737E+02 -0.36356056879E+02 -0.50804067177E+02  0.11104417239E+03  0.83113641353E+02 0.  0.
          5    1    3    3  501    0 -0.90842022788E+01  0.10114154649E+03 -0.12858801343E+03  0.16391797447E+03  0.47000000000E+01 0. -1.
        -13    1    4    4    0    0 -0.68131470183E+01 -0.80803495078E+01  0.25918588193E+01  0.10882497535E+02  0.00000000000E+00 0.  1.
         14    1    4    4    0    0  0.69421774913E+01  0.15960991195E+01 -0.24503426604E+03  0.24513778349E+03  0.00000000000E+00 0. -1.
         -5    1    5    5    0  502 -0.30033476931E+02 -0.58301239220E+02 -0.18195667206E+03  0.19347187066E+03  0.47000000000E+01 0.  1.
         11    1    6    6    0    0  0.64223198670E+01  0.19319946120E+02  0.97492800910E+01  0.22573324364E+02  0.00000000000E+00 0. -1.
        -12    1    6    6    0    0  0.32566328870E+02 -0.55676002999E+02 -0.60553347268E+02  0.88470848031E+02  0.00000000000E+00 0.  1.
</event>
<event>
12    1  0.8313893E-002  0.2134068E+03  0.7818608E-02  0.1140455E+00
         21   -1    0    0  503  502  0.00000000000E+00  0.00000000000E+00  0.55589414523E+02  0.55589414523E+02  0.00000000000E+00 0.  1.
         21   -1    0    0  501  503 -0.00000000000E+00 -0.00000000000E+00 -0.11983494818E+04  0.11983494818E+04  0.00000000000E+00 0.  1.
          6    2    1    2  501    0 -0.21920640612E+02  0.11480855492E+03 -0.93056504575E+03  0.95299175393E+03  0.16905756393E+03 0.  0.
         24    2    3    3    0    0 -0.29046946743E+02  0.55831096938E+02 -0.82901903690E+03  0.83525133308E+03  0.80071151893E+02 0.  0.
         -6    2    1    2    0  502  0.21920640612E+02 -0.11480855492E+03 -0.21219502148E+03  0.30094714235E+03  0.17855233568E+03 0.  0.
        -24    2    5    5    0    0  0.65655117439E+02 -0.52145884557E+02 -0.59865438336E+02  0.13046046656E+03  0.80039208547E+02 0.  0.
          5    1    3    3  501    0  0.71263061304E+01  0.58977457983E+02 -0.10154600885E+03  0.11774042085E+03  0.47000000000E+01 0. -1.
        -13    1    4    4    0    0 -0.28906810567E+02  0.18839542738E+02 -0.11007227432E+03  0.11535353329E+03  0.00000000000E+00 0.  1.
         14    1    4    4    0    0 -0.14013617588E+00  0.36991554200E+02 -0.71894676258E+03  0.71989779979E+03  0.00000000000E+00 0. -1.
         -5    1    5    5    0  502 -0.43734476826E+02 -0.62662670365E+02 -0.15232958314E+03  0.17048667579E+03  0.47000000000E+01 0.  1.
         11    1    6    6    0    0  0.84312942581E+02 -0.42674649253E+02 -0.44210359793E+02  0.10432810690E+03  0.00000000000E+00 0. -1.
        -12    1    6    6    0    0 -0.18657825142E+02 -0.94712353038E+01 -0.15655078543E+02  0.26132359660E+02  0.00000000000E+00 0.  1.
</event>
<event>
12    1  0.8313893E-002  0.2374049E+03  0.7818608E-02  0.1121717E+00
         21   -1    0    0  501  502  0.00000000000E+00  0.00000000000E+00  0.37350234112E+03  0.37350234112E+03  0.00000000000E+00 0. -1.
         21   -1    0    0  502  503 -0.00000000000E+00 -0.00000000000E+00 -0.15092675481E+03  0.15092675481E+03  0.00000000000E+00 0.  1.
         -6    2    1    2    0  503 -0.16130425480E+03 -0.25616043594E+02  0.92977922315E+02  0.25395424483E+03  0.17079994181E+03 0.  0.
        -24    2    3    3    0    0 -0.37074216956E+02 -0.58777635548E+02  0.25474152693E+02  0.10865578511E+03  0.79547716365E+02 0.  0.
          6    2    1    2  501    0  0.16130425480E+03  0.25616043594E+02  0.12959766400E+03  0.27047485110E+03  0.17229581033E+03 0.  0.
         24    2    5    5    0    0  0.66944555070E+02  0.28031958785E+02  0.35754438243E+01  0.11295253663E+03  0.86476167615E+02 0.  0.
          5    1    5    5  501    0  0.94359699728E+02 -0.24159151911E+01  0.12602222017E+03  0.15752231447E+03  0.47000000000E+01 0. -1.
        -11    1    6    6    0    0  0.43080121753E+02  0.52608067459E+02  0.25115908786E+02  0.72486650676E+02  0.00000000000E+00 0.  1.
         12    1    6    6    0    0  0.23864433317E+02 -0.24576108674E+02 -0.21540464962E+02  0.40465885952E+02  0.00000000000E+00 0. -1.
         -5    1    3    3    0  503 -0.12423003784E+03  0.33161591954E+02  0.67503769621E+02  0.14529845972E+03  0.47000000000E+01 0.  1.
         13    1    4    4    0    0 -0.23216633898E+02  0.33472825255E+01  0.37156295203E+02  0.43940945178E+02  0.00000000000E+00 0. -1.
        -14    1    4    4    0    0 -0.13857583058E+02 -0.62124918074E+02 -0.11682142510E+02  0.64714839933E+02  0.00000000000E+00 0.  1.
</event>
<event>
12    1  0.8313893E-002  0.1918582E+03  0.7818608E-02  0.1156884E+00
         21   -1    0    0  503  502  0.00000000000E+00  0.00000000000E+00  0.24687499172E+03  0.24687499172E+03  0.00000000000E+00 0.  1.
         21   -1    0    0  501  503 -0.00000000000E+00 -0.00000000000E+00 -0.15368896129E+03  0.15368896129E+03  0.00000000000E+00 0.  1.
          6    2    1    2  501    0  0.58063611995E+02  0.60424488238E+02  0.82280818411E+02  0.20839605466E+03  0.17215191170E+03 0.  0.
         24    2    3    3    0    0  0.59914669137E+02 -0.16690556131E+02  0.84026751406E+02  0.13109602386E+03  0.79103288662E+02 0.  0.
         -6    2    1    2    0  502 -0.58063611995E+02 -0.60424488238E+02  0.10905212016E+02  0.19216789835E+03  0.17258932670E+03 0.  0.
        -24    2    5    5    0    0  0.73679310845E+01 -0.44917945165E+02  0.36714932771E+02  0.11998776678E+03  0.10477198902E+03 0.  0.
          5    1    3    3  501    0 -0.18510571423E+01  0.77115044369E+02 -0.17459329948E+01  0.77300030806E+02  0.47000000000E+01 0. -1.
        -13    1    4    4    0    0  0.54533666371E+02 -0.26311110403E+02  0.16612790298E+02  0.62786782845E+02  0.00000000000E+00 0.  1.
         14    1    4    4    0    0  0.53810027663E+01  0.96205542720E+01  0.67413961107E+02  0.68309241011E+02  0.00000000000E+00 0. -1.
         -5    1    5    5    0  502 -0.65431543080E+02 -0.15506543073E+02 -0.25809720754E+02  0.72180131569E+02  0.47000000000E+01 0.  1.
         13    1    6    6    0    0 -0.14165884878E+02 -0.26366597674E+02  0.70052275945E+02  0.76178678988E+02  0.00000000000E+00 0. -1.
        -14    1    6    6    0    0  0.21533815962E+02 -0.18551347491E+02 -0.33337343174E+02  0.43809087796E+02  0.00000000000E+00 0.  1.
</event>
<event>
12    1  0.8313893E-002  0.2912361E+03  0.7818608E-02  0.1089738E+00
         21   -1    0    0  501  502  0.00000000000E+00  0.00000000000E+00  0.22248745065E+03  0.22248745065E+03  0.00000000000E+00 0.  1.
         21   -1    0    0  502  503 -0.00000000000E+00 -0.00000000000E+00 -0.48231914942E+03  0.48231914942E+03  0.00000000000E+00 0.  1.
         -6    2    1    2    0  503  0.23507874756E+03  0.27265426760E+01 -0.29147073099E+03  0.41185691135E+03  0.17146858841E+03 0.  0.
        -24    2    3    3    0    0  0.22770302623E+03 -0.20904655547E+02 -0.19142408273E+03  0.30868590465E+03  0.79737917589E+02 0.  0.
          6    2    1    2  501    0 -0.23507874756E+03 -0.27265426760E+01  0.31639032219E+02  0.29294968871E+03  0.17189834254E+03 0.  0.
         24    2    5    5    0    0 -0.15012484628E+03 -0.53169669346E+02  0.66383650380E+02  0.18811194331E+03  0.74932175791E+02 0.  0.
          5    1    5    5  501    0 -0.84953901279E+02  0.50443126670E+02 -0.34744618160E+02  0.10483774541E+03  0.47000000000E+01 0. -1.
        -13    1    6    6    0    0 -0.12846182562E+03 -0.63947935111E+02  0.33623407336E+02  0.14738491296E+03  0.00000000000E+00 0.  1.
         14    1    6    6    0    0 -0.21663020662E+02  0.10778265765E+02  0.32760243044E+02  0.40727030353E+02  0.00000000000E+00 0. -1.
         -5    1    3    3    0  503  0.73757213262E+01  0.23631198223E+02 -0.10004664826E+03  0.10317100670E+03  0.47000000000E+01 0.  1.
         13    1    4    4    0    0  0.79907999006E+02 -0.40830501591E+02 -0.47948048686E+02  0.10174199496E+03  0.00000000000E+00 0. -1.
        -14    1    4    4    0    0  0.14779502723E+03  0.19925846044E+02 -0.14347603404E+03  0.20694390969E+03  0.00000000000E+00 0.  1.
</event>
<event>
12    1  0.8313893E-002  0.1976677E+03  0.7818608E-02  0.1151774E+00
         21   -1    0    0  503  502  0.00000000000E+00  0.00000000000E+00  0.71817866723E+03  0.71817866723E+03  0.00000000000E+00 0.  1.
         21   -1    0    0  501  503 -0.00000000000E+00 -0.00000000000E+00 -0.55904742482E+02  0.55904742482E+02  0.00000000000E+00 0.  1.
          6    2    1    2  501    0  0.34540663029E+02 -0.91014703663E+02  0.26654258692E+03  0.33183953760E+03  0.17203428258E+03 0.  0.
         24    2    3    3    0    0  0.71249111880E+02 -0.19432822470E+00  0.12922058382E+03  0.16309335735E+03  0.69462293526E+02 0.  0.
         -6    2    1    2    0  502 -0.34540663029E+02  0.91014703663E+02  0.39573133783E+03  0.44224387212E+03  0.17175452542E+03 0.  0.
        -24    2    5    5    0    0 -0.86153866558E+02  0.45396718253E+02  0.23757951486E+03  0.26967790653E+03  0.82454815733E+02 0.  0.
          5    1    3    3  501    0 -0.36708448852E+02 -0.90820375438E+02  0.13732200311E+03  0.16874618025E+03  0.47000000000E+01 0. -1.
        -13    1    4    4    0    0  0.11249397265E+02 -0.26124035288E+02  0.67272983170E+02  0.73038814497E+02  0.00000000000E+00 0.  1.
         14    1    4    4    0    0  0.59999714615E+02  0.25929707063E+02  0.61947600649E+02  0.90054542853E+02  0.00000000000E+00 0. -1.
         -5    1    5    5    0  502  0.51613203529E+02  0.45617985410E+02  0.15815182296E+03  0.17256596558E+03  0.47000000000E+01 0.  1.
         11    1    6    6    0    0 -0.77182384365E+02  0.28707976176E+02  0.23680501591E+03  0.25071474610E+03  0.00000000000E+00 0. -1.
        -12    1    6    6    0    0 -0.89714821932E+01  0.16688742077E+02  0.77449895228E+00  0.18963160430E+02  0.00000000000E+00 0.  1.
</event>
<event>
12    1  0.8313893E-002  0.2179494E+03  0.7818608E-02  0.1136412E+00
         21   -1    0    0  503  502  0.00000000000E+00  0.00000000000E+00  0.10739211058E+04  0.10739211058E+04  0.00000000000E+00 0. -1.
         21   -1    0    0  501  503 -0.00000000000E+00 -0.00000000000E+00 -0.50849087203E+02  0.50849087203E+02  0.00000000000E+00 0. -1.
          6    2    1    2  501    0  0.12193263523E+03  0.27585706647E+02  0.29846390957E+03  0.36957089501E+03  0.17853123642E+03 0.  0.
         24    2    3    3    0    0  0.62798181849E+02 -0.35385619610E+02  0.77116279136E+02  0.13191750243E+03  0.79117338305E+02 0.  0.
         -6    2    1    2    0  502 -0.12193263523E+03 -0.27585706647E+02  0.72460810901E+03  0.75519929798E+03  0.17216425086E+03 0.  0.
        -24    2    5    5    0    0 -0.12142149573E+03 -0.30566242745E+02  0.73115790250E+03  0.74658914968E+03  0.84415669223E+02 0.  0.
          5    1    3    3  501    0  0.59134453377E+02  0.62971326258E+02  0.22134763044E+03  0.23765339259E+03  0.47000000000E+01 0. -1.
        -11    1    4    4    0    0  0.81056384149E+02 -0.21794355719E+02  0.64792233674E+02  0.10603379130E+03  0.00000000000E+00 0.  1.
         12    1    4    4    0    0 -0.18258202300E+02 -0.13591263891E+02  0.12324045462E+02  0.25883711131E+02  0.00000000000E+00 0. -1.
         -5    1    5    5    0  502 -0.51113949143E+00  0.29805360976E+01 -0.65497934863E+01  0.86101482985E+01  0.47000000000E+01 0.  1.
         11    1    6    6    0    0 -0.72598577494E+02 -0.42328986572E+02  0.60490806436E+03  0.61071766217E+03  0.00000000000E+00 0. -1.
        -12    1    6    6    0    0 -0.48822918241E+02  0.11762743827E+02  0.12624983814E+03  0.13587148751E+03  0.00000000000E+00 0.  1.
</event>
<event>
12    1  0.8313893E-002  0.1790852E+03  0.7818608E-02  0.1169016E+00
         21   -1    0    0  501  502  0.00000000000E+00  0.00000000000E+00  0.17087220773E+03  0.17087220773E+03  0.00000000000E+00 0.  1.
         21   -1    0    0  502  503 -0.00000000000E+00 -0.00000000000E+00 -0.37961960301E+03  0.37961960301E+03  0.00000000000E+00 0.  1.
         -6    2    1    2    0  503  0.16938745185E+02 -0.45667074795E+02 -0.30059917509E+03  0.34922518528E+03  0.17095602699E+03 0.  0.
        -24    2    3    3    0    0  0.42774272730E+02 -0.28618785616E+02 -0.69472514584E+02  0.11598766291E+03  0.77317749369E+02 0.  0.
          6    2    1    2  501    0 -0.16938745185E+02  0.45667074795E+02  0.91851779804E+02  0.20126662546E+03  0.17233427478E+03 0.  0.
         24    2    5    5    0    0 -0.72983171469E+02  0.31832598376E+02  0.35193728184E+02  0.12024443548E+03  0.82947381660E+02 0.  0.
          5    1    5    5  501    0  0.56044426285E+02  0.13834476419E+02  0.56658051620E+02  0.81022189977E+02  0.47000000000E+01 0. -1.
        -11    1    6    6    0    0 -0.74099930050E+02  0.23508098391E+02  0.57314008885E+02  0.96583259097E+02  0.00000000000E+00 0.  1.
         12    1    6    6    0    0  0.11167585804E+01  0.83244999856E+01 -0.22120280701E+02  0.23661176387E+02  0.00000000000E+00 0. -1.
         -5    1    3    3    0  503 -0.25835527545E+02 -0.17048289179E+02 -0.23112666050E+03  0.23323752237E+03  0.47000000000E+01 0.  1.
         11    1    4    4    0    0 -0.16623448036E+02  0.12183723823E+02 -0.18764855582E+02  0.27872961016E+02  0.00000000000E+00 0. -1.
        -12    1    4    4    0    0  0.59397720766E+02 -0.40802509439E+02 -0.50707659003E+02  0.88114701896E+02  0.00000000000E+00 0.  1.
</event>
<event>
12    1  0.8313893E-002  0.1724927E+03  0.7818608E-02  0.1175377E+00
         21   -1    0    0  503  502  0.00000000000E+00  0.00000000000E+00  0.30247278672E+03  0.30247278672E+03  0.00000000000E+00 0.  1.
         21   -1    0    0  501  503 -0.00000000000E+00 -0.00000000000E+00 -0.12322575897E+03  0.12322575897E+03  0.00000000000E+00 0.  1.
          6    2    1    2  501    0 -0.18570242973E+02 -0.36031642648E+01 -0.63328436372E+01  0.17260889587E+03  0.17145229456E+03 0.  0.
         24    2    3    3    0    0  0.30735702043E+02  0.62825999200E+01 -0.55799004411E+02  0.10191380687E+03  0.79301580660E+02 0.  0.
         -6    2    1    2    0  502  0.18570242973E+02  0.36031642648E+01  0.18557987139E+03  0.25308964982E+03  0.17104574085E+03 0.  0.
        -24    2    5    5    0    0 -0.52010307376E+00 -0.14904276235E+01  0.20630455554E+02  0.86894626501E+02  0.84395311106E+02 0.  0.
          5    1    3    3  501    0 -0.49305945016E+02 -0.98857641848E+01  0.49466160774E+02  0.70695089003E+02  0.47000000000E+01 0. -1.
        -11    1    4    4    0    0  0.68913639696E+01  0.38941060986E+02 -0.99460133908E+01  0.40777693785E+02  0.00000000000E+00 0.  1.
         12    1    4    4    0    0  0.23844338074E+02 -0.32658461066E+02 -0.45852991020E+02  0.61136113083E+02  0.00000000000E+00 0. -1.
         -5    1    5    5    0  502  0.19090346047E+02  0.50935918883E+01  0.16494941584E+03  0.16619502332E+03  0.47000000000E+01 0.  1.
         11    1    6    6    0    0  0.11068268037E+02  0.29898802051E+02  0.37666058476E+02  0.49347511412E+02  0.00000000000E+00 0. -1.
        -12    1    6    6    0    0 -0.11588371111E+02 -0.31389229674E+02 -0.17035602923E+02  0.37547115089E+02  0.00000000000E+00 0.  1.
</event>
<event>
12    1  0.8313893E-002  0.1749383E+03  0.7818608E-02  0.1172935E+00
         21   -1    0    0  501  502  0.00000000000E+00  0.00000000000E+00  0.55832101113E+03  0.55832101113E+03  0.00000000000E+00 0.  1.
         21   -1    0    0  502  503 -0.00000000000E+00 -0.00000000000E+00 -0.31299186748E+03  0.31299186748E+03  0.00000000000E+00 0.  1.
         -6    2    1    2    0  503 -0.25661761666E+02  0.15647847396E+02 -0.27311010598E+03  0.32433400460E+03  0.17233698215E+03 0.  0.
        -24    2    3    3    0    0 -0.76481031135E+02  0.40752919852E+02 -0.17637332270E+03  0.21211565471E+03  0.79845810257E+02 0.  0.
          6    2    1    2  501    0  0.25661761666E+02 -0.15647847396E+02  0.51843924962E+03  0.54697887401E+03  0.17176510682E+03 0.  0.
         24    2    5    5    0    0  0.54122483224E+02  0.21566455465E+02  0.46751350995E+03  0.47762155305E+03  0.78480002312E+02 0.  0.
          5    1    5    5  501    0 -0.28460721557E+02 -0.37214302861E+02  0.50925739674E+02  0.69357320957E+02  0.47000000000E+01 0. -1.
        -13    1    6    6    0    0  0.34401198546E+02  0.77793674486E-01  0.42304419922E+03  0.42444062366E+03  0.00000000000E+00 0.  1.
         14    1    6    6    0    0  0.19721284678E+02  0.21488661790E+02  0.44469310722E+02  0.53180929392E+02  0.00000000000E+00 0. -1.
         -5    1    3    3    0  503  0.50819269469E+02 -0.25105072456E+02 -0.96736783282E+02  0.11221834989E+03  0.47000000000E+01 0.  1.
         13    1    4    4    0    0  0.75205268000E+01  0.32572706190E+02 -0.48915465290E+02  0.59247466245E+02  0.00000000000E+00 0. -1.
        -14    1    4    4    0    0 -0.84001557935E+02  0.81802136621E+01 -0.12745785741E+03  0.15286818847E+03  0.00000000000E+00 0.  1.
</event>
<event>
12    1  0.8313893E-002  0.1913116E+03  0.7818608E-02  0.1157719E+00
         21   -1    0    0  503  502  0.00000000000E+00  0.00000000000E+00  0.88134352962E+02  0.88134352962E+02  0.00000000000E+00 0. -1.
         21   -1    0    0  501  503 -0.00000000000E+00 -0.00000000000E+00 -0.44173304750E+03  0.44173304750E+03  0.00000000000E+00 0. -1.
          6    2    1    2  501    0 -0.80599053313E+02 -0.20025773355E+02 -0.24742852154E+03  0.31276346744E+03  0.17234521839E+03 0.  0.
         24    2    3    3    0    0 -0.11279987389E+01 -0.26499785109E+02 -0.45015345350E+02  0.95161203577E+02  0.79534661358E+02 0.  0.
         -6    2    1    2    0  502  0.80599053313E+02  0.20025773355E+02 -0.10617017299E+03  0.21710393302E+03  0.17019040250E+03 0.  0.
        -24    2    5    5    0    0  0.58036552558E+02  0.29554165421E+02 -0.14145545464E+03  0.17389516312E+03  0.77383408958E+02 0.  0.
          5    1    3    3  501    0 -0.79471054574E+02  0.64740117540E+01 -0.20241317619E+03  0.21760226386E+03  0.47000000000E+01 0. -1.
        -11    1    4    4    0    0 -0.14719929971E+01 -0.34869300308E+01  0.23024809839E+02  0.23333823359E+02  0.00000000000E+00 0.  1.
         12    1    4    4    0    0  0.34399425821E+00 -0.23012855078E+02 -0.68040155189E+02  0.71827380218E+02  0.00000000000E+00 0. -1.
         -5    1    5    5    0  502  0.22562500755E+02 -0.95283920663E+01  0.35285281643E+02  0.43208769900E+02  0.47000000000E+01 0.  1.
         13    1    6    6    0    0  0.33717202855E+02  0.37642423224E+02 -0.28394889397E+02  0.57966124059E+02  0.00000000000E+00 0. -1.
        -14    1    6    6    0    0  0.24319349704E+02 -0.80882578032E+01 -0.11306056524E+03  0.11592903906E+03  0.00000000000E+00 0.  1.
</event>
<event>
12    1  0.8313893E-002  0.1764336E+03  0.7818608E-02  0.1171534E+00
         21   -1    0    0  501  502  0.00000000000E+00  0.00000000000E+00  0.78859189001E+02  0.78859189001E+02  0.00000000000E+00 0.  1.
         21   -1    0    0  502  503 -0.00000000000E+00 -0.00000000000E+00 -0.70037748973E+03  0.70037748973E+03  0.00000000000E+00 0.  1.
         -6    2    1    2    0  503 -0.13477867093E+02 -0.27152525241E+02 -0.56855691188E+03  0.59502557792E+03  0.17285706180E+03 0.  0.
        -24    2    3    3    0    0 -0.71103127192E+02 -0.14631792897E+02 -0.27264353781E+03  0.29325703368E+03  0.79971526414E+02 0.  0.
          6    2    1    2  501    0  0.13477867093E+02  0.27152525241E+02 -0.52961388851E+02  0.18421110081E+03  0.17380997791E+03 0.  0.
         24    2    5    5    0    0 -0.35913999541E+02 -0.32953890169E+02 -0.52292119465E+01  0.92817510357E+02  0.78816060108E+02 0.  0.
          5    1    5    5  501    0  0.49391866634E+02  0.60106415411E+02 -0.47732176905E+02  0.91393590449E+02  0.47000000000E+01 0. -1.
        -11    1    6    6    0    0  0.99490843770E+01  0.16408138446E+02  0.12801368774E+02  0.23066996547E+02  0.00000000000E+00 0.  1.
         12    1    6    6    0    0 -0.45863083918E+02 -0.49362028616E+02 -0.18030580721E+02  0.69750513809E+02  0.00000000000E+00 0. -1.
         -5    1    3    3    0  503  0.57625260099E+02 -0.12520732345E+02 -0.29591337407E+03  0.30176854424E+03  0.47000000000E+01 0.  1.
         11    1    4    4    0    0 -0.11149562385E+01  0.26438881636E+02 -0.56756286332E+02  0.62622149658E+02  0.00000000000E+00 0. -1.
        -12    1    4    4    0    0 -0.69988170954E+02 -0.41070674533E+02 -0.21588725147E+03  0.23063488402E+03  0.00000000000E+00 0.  1.
</event>
<event>
12    1  0.8313893E-002  0.1796488E+03  0.7818608E-02  0.1168538E+00
         21   -1    0    0  501  502  0.00000000000E+00  0.00000000000E+00  0.61651703024E+02  0.61651703024E+02  0.00000000000E+00 0.  1.
         21   -1    0    0  502  503 -0.00000000000E+00 -0.00000000000E+00 -0.67004065282E+03  0.67004065282E+03  0.00000000000E+00 0. -1.
         -6    2    1    2    0  503  0.14720486681E+02 -0.40016915469E+02 -0.47695346378E+03  0.50909633990E+03  0.17284799808E+03 0.  0.
        -24    2    3    3    0    0 -0.85648462516E+01  0.30642936104E+02 -0.36075568687E+03  0.37104187705E+03  0.80715938905E+02 0.  0.
          6    2    1    2  501    0 -0.14720486681E+02  0.40016915469E+02 -0.13143548602E+03  0.22259601594E+03  0.17451548091E+03 0.  0.
         24    2    5    5    0    0  0.24692872222E+02 -0.29426839576E+02 -0.31896597078E+02  0.94901347352E+02  0.80704374095E+02 0.  0.
          5    1    5    5  501    0 -0.39413358903E+02  0.69443755045E+02 -0.99538888942E+02  0.12769466859E+03  0.47000000000E+01 0. -1.
        -11    1    6    6    0    0  0.44326933295E+02 -0.13629267370E+02  0.86372428557E+01  0.47172406220E+02  0.00000000000E+00 0.  1.
         12    1    6    6    0    0 -0.19634061073E+02 -0.15797572206E+02 -0.40533839934E+02  0.47728941132E+02  0.00000000000E+00 0. -1.
         -5    1    3    3    0  503  0.23285332933E+02 -0.70659851573E+02 -0.11619777690E+03  0.13805446284E+03  0.47000000000E+01 0.  1.
         13    1    4    4    0    0  0.61558705357E+01  0.54772744427E+02 -0.28277279941E+03  0.28809443653E+03  0.00000000000E+00 0. -1.
        -14    1    4    4    0    0 -0.14720716787E+02 -0.24129808323E+02 -0.77982887459E+02  0.82947440520E+02  0.00000000000E+00 0.  1.
</event>
<event>
12    1  0.8313893E-002  0.2252364E+03  0.7818608E-02  0.1130178E+00
         21   -1    0    0  503  502  0.00000000000E+00  0.00000000000E+00  0.37411499234E+03  0.37411499234E+03  0.00000000000E+00 0.  1.
         21   -1    0    0  501  503 -0.00000000000E+00 -0.00000000000E+00 -0.13923312924E+03  0.13923312924E+03  0.00000000000E+00 0. -1.
          6    2    1    2  501    0 -0.94437098365E+02 -0.10834180787E+03  0.16165269014E+03  0.27724186033E+03  0.17342186715E+03 0.  0.
         24    2    3    3    0    0 -0.10755640283E+03 -0.68165820083E+02  0.17672861783E+03  0.23212423916E+03  0.80210343639E+02 0.  0.
         -6    2    1    2    0  502  0.94437098365E+02  0.10834180787E+03  0.73229172956E+02  0.23610626125E+03  0.17241618819E+03 0.  0.
        -24    2    5    5    0    0  0.54331604693E+02  0.14171840676E+03  0.64130161021E+02  0.18293361797E+03  0.79473271908E+02 0.  0.
          5    1    3    3  501    0  0.13119304462E+02 -0.40175987788E+02 -0.15075927691E+02  0.45117621170E+02  0.47000000000E+01 0. -1.
        -11    1    4    4    0    0 -0.44025923708E+02 -0.25243510895E+02  0.13631214868E+03  0.14545280568E+03  0.00000000000E+00 0.  1.
         12    1    4    4    0    0 -0.63530479119E+02 -0.42922309187E+02  0.40416469149E+02  0.86671433480E+02  0.00000000000E+00 0. -1.
         -5    1    5    5    0  502  0.40105493672E+02 -0.33376598887E+02  0.90990119357E+01  0.53172643287E+02  0.47000000000E+01 0.  1.
         13    1    6    6    0    0  0.48050606071E+02  0.88981053257E+02  0.19306804538E+01  0.10114453079E+03  0.00000000000E+00 0. -1.
        -14    1    6    6    0    0  0.62809986217E+01  0.52737353501E+02  0.62199480567E+02  0.81789087174E+02  0.00000000000E+00 0.  1.
</event>
<event>
12    1  0.8313893E-002  0.1788762E+03  0.7818608E-02  0.1170107E+00
         21   -1    0    0  501  502  0.00000000000E+00  0.00000000000E+00  0.53944356134E+03  0.53944356134E+03  0.00000000000E+00 0.  1.
         21   -1    0    0  502  503 -0.00000000000E+00 -0.00000000000E+00 -0.57727006857E+02  0.57727006857E+02  0.00000000000E+00 0.  1.
         -6    2    1    2    0  503  0.24852349734E+02 -0.29866620744E+02  0.23131889411E+03  0.28944394633E+03  0.16958688915E+03 0.  0.
        -24    2    3    3    0    0  0.49742557987E+02  0.37735611828E+02  0.13118277943E+03  0.16599794283E+03  0.80300043160E+02 0.  0.
          6    2    1    2  501    0 -0.24852349734E+02  0.29866620744E+02  0.25039766037E+03  0.30772662187E+03  0.17460535835E+03 0.  0.
         24    2    5    5    0    0 -0.22407498413E+02 -0.48490255592E+02  0.17040048775E+03  0.19562213938E+03  0.79864224253E+02 0.  0.
          5    1    5    5  501    0 -0.24448513214E+01  0.78356876336E+02  0.79997172617E+02  0.11210448249E+03  0.47000000000E+01 0. -1.
        -11    1    6    6    0    0 -0.45699392010E+02 -0.24036859606E+02  0.55253826311E+02  0.75625328904E+02  0.00000000000E+00 0.  1.
         12    1    6    6    0    0  0.23291893597E+02 -0.24453395987E+02  0.11514666144E+03  0.11999681047E+03  0.00000000000E+00 0. -1.
         -5    1    3    3    0  503 -0.24890208253E+02 -0.67602232572E+02  0.10013611469E+03  0.12344600350E+03  0.47000000000E+01 0.  1.
         13    1    4    4    0    0  0.53807102625E+02 -0.73254861889E+01  0.54324874419E+02  0.76811841674E+02  0.00000000000E+00 0. -1.
        -14    1    4    4    0    0 -0.40645446379E+01  0.45061098017E+02  0.76857905007E+02  0.89186101158E+02  0.00000000000E+00 0.  1.
</event>
<event>
12    1  0.8313893E-002  0.1919584E+03  0.7818608E-02  0.1157309E+00
         21   -1    0    0  501  502  0.00000000000E+00  0.00000000000E+00  0.19946204144E+03  0.19946204144E+03  0.00000000000E+00 0.  1.
         21   -1    0    0  502  503 -0.00000000000E+00 -0.00000000000E+00 -0.24369092983E+03  0.24369092983E+03  0.00000000000E+00 0.  1.
         -6    2    1    2    0  503  0.85435122217E+02  0.90080508574E+01 -0.13333432702E+03  0.23152169868E+03  0.16865334005E+03 0.  0.
        -24    2    3    3    0    0  0.80554806823E+02  0.66172687403E+02 -0.98940016283E+02  0.16446447118E+03  0.79947069971E+02 0.  0.
          6    2    1    2  501    0 -0.85435122217E+02 -0.90080508574E+01  0.89105438624E+02  0.21163127259E+03  0.17166161848E+03 0.  0.
         24    2    5    5    0    0  0.24601177567E+01  0.29681107769E+02  0.77592297298E+02  0.11479601750E+03  0.79186745710E+02 0.  0.
          5    1    5    5  501    0 -0.87895239974E+02 -0.38689158627E+02  0.11513141326E+02  0.96835255091E+02  0.47000000000E+01 0. -1.
        -13    1    6    6    0    0 -0.23617778809E+02  0.41022734989E+02  0.71442483692E+02  0.85701182827E+02  0.00000000000E+00 0.  1.
         14    1    6    6    0    0  0.26077896566E+02 -0.11341627219E+02  0.61498136054E+01  0.29094834673E+02  0.00000000000E+00 0. -1.
         -5    1    3    3    0  503  0.48803153939E+01 -0.57164636546E+02 -0.34394310736E+02  0.67057227506E+02  0.47000000000E+01 0.  1.
         11    1    4    4    0    0  0.14242691073E+01 -0.11997265058E+02 -0.33036229918E+02  0.35176062863E+02  0.00000000000E+00 0. -1.
        -12    1    4    4    0    0  0.79130537716E+02  0.78169952461E+02 -0.65903786364E+02  0.12928840831E+03  0.00000000000E+00 0.  1.
</event>
<event>
12    1  0.8313893E-002  0.2765006E+03  0.7818608E-02  0.1097736E+00
         21   -1    0    0  503  502  0.00000000000E+00  0.00000000000E+00  0.23326659566E+04  0.23326659566E+04  0.00000000000E+00 0.  1.
         21   -1    0    0  501  503 -0.00000000000E+00 -0.00000000000E+00 -0.49189777911E+02  0.49189777911E+02  0.00000000000E+00 0. -1.
          6    2    1    2  501    0  0.12566593743E+03 -0.17684844873E+03  0.45281716641E+03  0.53056193209E+03  0.17142134037E+03 0.  0.
         24    2    3    3    0    0  0.10458336632E+03 -0.14195953881E+03  0.44991010056E+03  0.48942494299E+03  0.77636879535E+02 0.  0.
         -6    2    1    2    0  502 -0.12566593743E+03  0.17684844873E+03  0.18306590122E+04  0.18512938024E+04  0.17002653325E+03 0.  0.
        -24    2    5    5    0    0 -0.12957081696E+03  0.67603864309E+02  0.11179325570E+04  0.11302177195E+04  0.79120240125E+02 0.  0.
          5    1    3    3  501    0  0.21082571112E+02 -0.34888909927E+02  0.29070658555E+01  0.41136989103E+02  0.47000000000E+01 0. -1.
        -13    1    4    4    0    0  0.17100691933E+02 -0.88462794734E+02  0.21354777446E+03  0.23177737529E+03  0.00000000000E+00 0.  1.
         14    1    4    4    0    0  0.87482674388E+02 -0.53496744073E+02  0.23636232610E+03  0.25764756770E+03  0.00000000000E+00 0. -1.
         -5    1    5    5    0  502  0.39048795238E+01  0.10924458442E+03  0.71272645529E+03  0.72107608293E+03  0.47000000000E+01 0.  1.
         11    1    6    6    0    0 -0.28543921205E+02  0.15781316498E+02  0.55449985206E+03  0.55545827145E+03  0.00000000000E+00 0. -1.
        -12    1    6    6    0    0 -0.10102689575E+03  0.51822547811E+02  0.56343270489E+03  0.57475944800E+03  0.00000000000E+00 0.  1.
</event>
<event>
12    1  0.8313893E-002  0.1934684E+03  0.7818608E-02  0.1155900E+00
         21   -1    0    0  501  502  0.00000000000E+00  0.00000000000E+00  0.15487156271E+04  0.15487156271E+04  0.00000000000E+00 0.  1.
         21   -1    0    0  502  503 -0.00000000000E+00 -0.00000000000E+00 -0.58319185177E+02  0.58319185177E+02  0.00000000000E+00 0.  1.
         -6    2    1    2    0  503  0.16495946585E+01 -0.83094949863E+02  0.12954603191E+03  0.23283516417E+03  0.17470703316E+03 0.  0.
        -24    2    3    3    0    0 -0.98798828841E+01  0.23939818961E+02  0.68898616748E+02  0.10918416516E+03  0.80643880823E+02 0.  0.
          6    2    1    2  501    0 -0.16495946585E+01  0.83094949863E+02  0.13608504100E+04  0.13741996481E+04  0.17205621922E+03 0.  0.
         24    2    5    5    0    0  0.60990423707E+02  0.18180769565E+02  0.77925453792E+03  0.78563064524E+03  0.76990283159E+02 0.  0.
          5    1    5    5  501    0 -0.62640018365E+02  0.64914180298E+02  0.58159587208E+03  0.58856900286E+03  0.47000000000E+01 0. -1.
        -11    1    6    6    0    0  0.37205136052E+02  0.16782676256E+01  0.70423629117E+03  0.70522038579E+03  0.00000000000E+00 0.  1.
         12    1    6    6    0    0  0.23785287655E+02  0.16502501939E+02  0.75018246744E+02  0.80410259443E+02  0.00000000000E+00 0. -1.
         -5    1    3    3    0  503  0.11529477543E+02 -0.10703476882E+03  0.60647415160E+02  0.12365099901E+03  0.47000000000E+01 0.  1.
         13    1    4    4    0    0 -0.20687055517E+01 -0.31931679728E+01  0.79078600653E+02  0.79170076075E+02  0.00000000000E+00 0. -1.
        -14    1    4    4    0    0 -0.78111773325E+01  0.27132986934E+02 -0.10179983906E+02  0.30014089085E+02  0.00000000000E+00 0.  1.
</event>
<event>
12    1  0.8313893E-002  0.2952020E+03  0.7818608E-02  0.1087796E+00
         21   -1    0    0  503  502  0.00000000000E+00  0.00000000000E+00  0.23950663645E+03  0.23950663645E+03  0.00000000000E+00 0. -1.
         21   -1    0    0  501  503 -0.00000000000E+00 -0.00000000000E+00 -0.52259992804E+03  0.52259992804E+03  0.00000000000E+00 0. -1.
          6    2    1    2  501    0 -0.93738400124E+02  0.22005153850E+03  0.69481846934E+02  0.30226587803E+03  0.17125234805E+03 0.  0.
         24    2    3    3    0    0 -0.73529622318E+02  0.11052241324E+03  0.10259376627E+03  0.18597523704E+03  0.80246487312E+02 0.  0.
         -6    2    1    2    0  502  0.93738400124E+02 -0.22005153850E+03 -0.35257513852E+03  0.45984068646E+03  0.17301636156E+03 0.  0.
        -24    2    5    5    0    0  0.11900585942E+03 -0.20121103864E+03 -0.34941943620E+03  0.42781792281E+03  0.79284021329E+02 0.  0.
          5    1    3    3  501    0 -0.20208777806E+02  0.10952912526E+03 -0.33111919339E+02  0.11629064099E+03  0.47000000000E+01 0. -1.
        -13    1    4    4    0    0 -0.55932398111E+02  0.58928682658E+02  0.14724329389E+02  0.82570143964E+02  0.00000000000E+00 0.  1.
         14    1    4    4    0    0 -0.17597224207E+02  0.51593730587E+02  0.87869436883E+02  0.10340509307E+03  0.00000000000E+00 0. -1.
         -5    1    5    5    0  502 -0.25267459299E+02 -0.18840499868E+02 -0.31557023217E+01  0.32022763651E+02  0.47000000000E+01 0.  1.
         11    1    6    6    0    0  0.78890259920E+02 -0.12537102343E+03 -0.15041708699E+03  0.21110866084E+03  0.00000000000E+00 0. -1.
        -12    1    6    6    0    0  0.40115599503E+02 -0.75840015209E+02 -0.19900234921E+03  0.21670926197E+03  0.00000000000E+00 0.  1.
</event>
<event>
12    1  0.8313893E-002  0.2213471E+03  0.7818608E-02  0.1133522E+00
         21   -1    0    0  503  502  0.00000000000E+00  0.00000000000E+00  0.44801703398E+03  0.44801703398E+03  0.00000000000E+00 0.  1.
         21   -1    0    0  501  503 -0.00000000000E+00 -0.00000000000E+00 -0.11114059281E+03  0.11114059281E+03  0.00000000000E+00 0. -1.
          6    2    1    2  501    0 -0.97140724331E+02 -0.97437270103E+02  0.21655843307E+03  0.30722321566E+03  0.16899173760E+03 0.  0.
         24    2    3    3    0    0 -0.10784100251E+02 -0.90342055472E+00  0.13060811947E+03  0.15170538054E+03  0.76412882604E+02 0.  0.
         -6    2    1    2    0  502  0.97140724331E+02  0.97437270103E+02  0.12031800810E+03  0.25193441113E+03  0.17339026071E+03 0.  0.
        -24    2    5    5    0    0  0.11641046572E+03  0.10507743391E+03  0.55866381206E+02  0.18406838689E+03  0.78533144961E+02 0.  0.
          5    1    3    3  501    0 -0.86356624080E+02 -0.96533849548E+02  0.85950313606E+02  0.15551783512E+03  0.47000000000E+01 0. -1.
        -13    1    4    4    0    0 -0.23499978553E+02 -0.21668689539E+02  0.12161925579E+03  0.12574984882E+03  0.00000000000E+00 0.  1.
         14    1    4    4    0    0  0.12715878302E+02  0.20765268984E+02  0.89888636763E+01  0.25955531726E+02  0.00000000000E+00 0. -1.
         -5    1    5    5    0  502 -0.19269741385E+02 -0.76401638114E+01  0.64451626895E+02  0.67866024235E+02  0.47000000000E+01 0.  1.
         11    1    6    6    0    0  0.67516040891E+02  0.60364874191E+02  0.72205488451E+02  0.11582731274E+03  0.00000000000E+00 0. -1.
        -12    1    6    6    0    0  0.48894424826E+02  0.44712559723E+02 -0.16339107245E+02  0.68241074153E+02  0.00000000000E+00 0.  1.
</event>
<event>
12    1  0.8313893E-002  0.2516383E+03  0.7818608E-02  0.1113407E+00
         21   -1    0    0  503  502  0.00000000000E+00  0.00000000000E+00  0.77699137227E+02  0.77699137227E+02  0.00000000000E+00 0. -1.
         21   -1    0    0  501  503 -0.00000000000E+00 -0.00000000000E+00 -0.12334203605E+04  0.12334203605E+04  0.00000000000E+00 0. -1.
          6    2    1    2  501    0  0.18468680706E+03 -0.13098654298E+02 -0.97531590485E+03  0.10072551626E+04  0.17041436830E+03 0.  0.
         24    2    3    3    0    0  0.12606494539E+03 -0.63718492488E+02 -0.50518681081E+03  0.53076555544E+03  0.80907010118E+02 0.  0.
         -6    2    1    2    0  502 -0.18468680706E+03  0.13098654298E+02 -0.18040531841E+03  0.30386433510E+03  0.15970805799E+03 0.  0.
        -24    2    5    5    0    0 -0.99626090898E+02 -0.55897324598E+02 -0.92662678000E+02  0.16344841191E+03  0.71268103513E+02 0.  0.
          5    1    3    3  501    0  0.58621861663E+02  0.50619838190E+02 -0.47012909405E+03  0.47648960718E+03  0.47000000000E+01 0. -1.
        -11    1    4    4    0    0  0.28223742258E+01 -0.33063353452E+02 -0.14796652779E+03  0.15164182960E+03  0.00000000000E+00 0.  1.
         12    1    4    4    0    0  0.12324257117E+03 -0.30655139036E+02 -0.35722028302E+03  0.37912372584E+03  0.00000000000E+00 0. -1.
         -5    1    5    5    0  502 -0.85060716158E+02  0.68995978896E+02 -0.87742640409E+02  0.14041592318E+03  0.47000000000E+01 0.  1.
         11    1    6    6    0    0 -0.95249243798E+02 -0.19607353902E+02 -0.58926766619E+02  0.11370677462E+03  0.00000000000E+00 0. -1.
        -12    1    6    6    0    0 -0.43768471000E+01 -0.36289970696E+02 -0.33735911381E+02  0.49741637291E+02  0.00000000000E+00 0.  1.
</event>
<event>
12    1  0.8313893E-002  0.1917809E+03  0.7818608E-02  0.1156983E+00
         21   -1    0    0  503  502  0.00000000000E+00  0.00000000000E+00  0.60318660362E+02  0.60318660362E+02  0.00000000000E+00 0.  1.
         21   -1    0    0  501  503 -0.00000000000E+00 -0.00000000000E+00 -0.10888659064E+04  0.10888659064E+04  0.00000000000E+00 0.  1.
          6    2    1    2  501    0  0.84822114977E+02  0.10731754214E+02 -0.89568806117E+03  0.91587904554E+03  0.17107706275E+03 0.  0.
         24    2    3    3    0    0  0.50811998759E+02 -0.44663965449E+02 -0.73352779032E+03  0.74111229469E+03  0.81287669011E+02 0.  0.
         -6    2    1    2    0  502 -0.84822114977E+02 -0.10731754214E+02 -0.13285918483E+03  0.23330552118E+03  0.17166811435E+03 0.  0.
        -24    2    5    5    0    0 -0.69759190179E+02  0.22801333287E+02 -0.15579114054E+03  0.18972428378E+03  0.79612680975E+02 0.  0.
          5    1    3    3  501    0  0.34010116218E+02  0.55395719663E+02 -0.16216027084E+03  0.17476675085E+03  0.47000000000E+01 0. -1.
        -11    1    4    4    0    0  0.72997855472E+02 -0.29400889392E+02 -0.56215429522E+03  0.56763593159E+03  0.00000000000E+00 0.  1.
         12    1    4    4    0    0 -0.22185856713E+02 -0.15263076058E+02 -0.17137349510E+03  0.17347636309E+03  0.00000000000E+00 0. -1.
         -5    1    5    5    0  502 -0.15062924797E+02 -0.33533087501E+02  0.22931955710E+02  0.43581237402E+02  0.47000000000E+01 0.  1.
         13    1    6    6    0    0  0.13515157019E+01 -0.18188866865E+02 -0.65091289398E+01  0.19365697305E+02  0.00000000000E+00 0. -1.
        -14    1    6    6    0    0 -0.71110705881E+02  0.40990200153E+02 -0.14928201160E+03  0.17035858648E+03  0.00000000000E+00 0.  1.
</event>
<event>
12    1  0.8313893E-002  0.1858057E+03  0.7818608E-02  0.1162322E+00
         21   -1    0    0  503  502  0.00000000000E+00  0.00000000000E+00  0.69754217068E+02  0.69754217068E+02  0.00000000000E+00 0.  1.
         21   -1    0    0  501  503 -0.00000000000E+00 -0.00000000000E+00 -0.22294464768E+04  0.22294464768E+04  0.00000000000E+00 0.  1.
          6    2    1    2  501    0  0.92127536761E+01  0.69945372856E+02 -0.20938570043E+04  0.21020762224E+04  0.17178492399E+03 0.  0.
         24    2    3    3    0    0  0.52198721463E+02  0.85912198948E+02 -0.11156741499E+04  0.11228078630E+04  0.76570725727E+02 0.  0.
         -6    2    1    2    0  502 -0.92127536761E+01 -0.69945372856E+02 -0.65835255439E+02  0.19712447152E+03  0.17189108877E+03 0.  0.
        -24    2    5    5    0    0  0.27055936833E+01  0.20602391041E+02 -0.62154864396E+00  0.84804116712E+02  0.82216623227E+02 0.  0.
          5    1    3    3  501    0 -0.42985967786E+02 -0.15966826092E+02 -0.97818285446E+03  0.97926835940E+03  0.47000000000E+01 0. -1.
        -11    1    4    4    0    0  0.35361344231E+02 -0.19657716857E+01 -0.24467562048E+03  0.24722550067E+03  0.00000000000E+00 0.  1.
         12    1    4    4    0    0  0.16837377231E+02  0.87877970634E+02 -0.87099852940E+03  0.87558236232E+03  0.00000000000E+00 0. -1.
         -5    1    5    5    0  502 -0.11918347359E+02 -0.90547763897E+02 -0.65213706795E+02  0.11232035481E+03  0.47000000000E+01 0.  1.
         11    1    6    6    0    0  0.20416281814E+02  0.43922120529E+02 -0.16902319308E+02  0.51299762503E+02  0.00000000000E+00 0. -1.
        -12    1    6    6    0    0 -0.17710688131E+02 -0.23319729489E+02  0.16280770664E+02  0.33504354208E+02  0.00000000000E+00 0.  1.
</event>
<event>
12    1  0.8313893E-002  0.1896932E+03  0.7818608E-02  0.1159276E+00
         21   -1    0    0  501  502  0.00000000000E+00  0.00000000000E+00  0.88564317327E+03  0.88564317327E+03  0.00000000000E+00 0. -1.
         21   -1    0    0  502  503 -0.00000000000E+00 -0.00000000000E+00 -0.36944705474E+03  0.36944705474E+03  0.00000000000E+00 0. -1.
         -6    2    1    2    0  503  0.78040940191E+02  0.21521301634E+02 -0.33456414533E+03  0.38343860815E+03  0.16893325342E+03 0.  0.
        -24    2    3    3    0    0  0.58984200435E+02 -0.37277842354E+02 -0.12702110042E+03  0.16683596700E+03  0.82650508173E+02 0.  0.
          6    2    1    2  501    0 -0.78040940191E+02 -0.21521301634E+02  0.85076026386E+03  0.87165161986E+03  0.17155163962E+03 0.  0.
         24    2    5    5    0    0  0.34920838947E+01 -0.24630797495E+02  0.16692986509E+03  0.18295472915E+03  0.70625648483E+02 0.  0.
          5    1    5    5  501    0 -0.81533024086E+02  0.31094958607E+01  0.68383039878E+03  0.68869689071E+03  0.47000000000E+01 0. -1.
        -11    1    6    6    0    0  0.38616168018E+01 -0.40774406153E+02  0.16038339345E+03  0.16553035122E+03  0.00000000000E+00 0.  1.
         12    1    6    6    0    0 -0.36953290716E+00  0.16143608659E+02  0.65464716370E+01  0.17424377923E+02  0.00000000000E+00 0. -1.
         -5    1    3    3    0  503  0.19056739756E+02  0.58799143988E+02 -0.20754304491E+03  0.21660264116E+03  0.47000000000E+01 0.  1.
         13    1    4    4    0    0  0.28819586067E+02  0.71464106992E+01 -0.10444858627E+03  0.10858704757E+03  0.00000000000E+00 0. -1.
        -14    1    4    4    0    0  0.30164614368E+02 -0.44424253053E+02 -0.22572514150E+02  0.58248919427E+02  0.00000000000E+00 0.  1.
</event>
<event>
12    1  0.8313893E-002  0.1972827E+03  0.7818608E-02  0.1152302E+00
         21   -1    0    0  501  502  0.00000000000E+00  0.00000000000E+00  0.41233267972E+03  0.41233267972E+03  0.00000000000E+00 0.  1.
         21   -1    0    0  502  503 -0.00000000000E+00 -0.00000000000E+00 -0.11349696225E+03  0.11349696225E+03  0.00000000000E+00 0.  1.
         -6    2    1    2    0  503  0.23147935502E+02  0.91762589138E+02  0.39626778356E+02  0.20008473100E+03  0.17177723462E+03 0.  0.
        -24    2    3    3    0    0 -0.53524160434E+02  0.47116238805E+02  0.20064091714E+02  0.10910838461E+03  0.80108027733E+02 0.  0.
          6    2    1    2  501    0 -0.23147935502E+02 -0.91762589138E+02  0.25920893911E+03  0.32574491097E+03  0.17310191571E+03 0.  0.
         24    2    5    5    0    0 -0.19037143022E+02 -0.98419428134E+02  0.81895525628E+02  0.14819675209E+03  0.72156798457E+02 0.  0.
          5    1    5    5  501    0 -0.41107924805E+01  0.66568389959E+01  0.17731341349E+03  0.17754815888E+03  0.47000000000E+01 0. -1.
        -13    1    6    6    0    0 -0.23374272266E+02 -0.25748497854E+02  0.64607212699E+02  0.73371886158E+02  0.00000000000E+00 0.  1.
         14    1    6    6    0    0  0.43371292440E+01 -0.72670930280E+02  0.17288312930E+02  0.74824865932E+02  0.00000000000E+00 0. -1.
         -5    1    3    3    0  503  0.76672095937E+02  0.44646350332E+02  0.19562686642E+02  0.90976346387E+02  0.47000000000E+01 0.  1.
         11    1    4    4    0    0 -0.40256489868E+02 -0.14202370183E+02 -0.16476820742E+01  0.42720102428E+02  0.00000000000E+00 0. -1.
        -12    1    4    4    0    0 -0.13267670567E+02  0.61318608988E+02  0.21711773788E+02  0.66388282185E+02  0.00000000000E+00 0.  1.
</event>
<event>
12    1  0.8313893E-002  0.2337912E+03  0.7818608E-02  0.1124306E+00
         21   -1    0    0  501  502  0.00000000000E+00  0.00000000000E+00  0.22528875941E+04  0.22528875941E+04  0.00000000000E+00 0.  1.
         21   -1    0    0  502  503 -0.00000000000E+00 -0.00000000000E+00 -0.43515986323E+02  0.43515986323E+02  0.00000000000E+00 0.  1.
         -6    2    1    2    0  503 -0.15394755834E+03 -0.33609464359E+02  0.33496112053E+03  0.40746923082E+03  0.17030201109E+03 0.  0.
        -24    2    3    3    0    0 -0.82401717902E+02 -0.84146062226E+02  0.23548057961E+03  0.27483732277E+03  0.78827962785E+02 0.  0.
          6    2    1    2  501    0  0.15394755834E+03  0.33609464359E+02  0.18744104872E+04  0.18889343496E+04  0.17271032286E+03 0.  0.
         24    2    5    5    0    0  0.15039296647E+03 -0.19405641434E+02  0.16224323123E+04  0.16313720713E+04  0.78061537877E+02 0.  0.
          5    1    5    5  501    0  0.35545918737E+01  0.53015105793E+02  0.25197817495E+03  0.25756227833E+03  0.47000000000E+01 0. -1.
        -11    1    6    6    0    0  0.92435926761E+02 -0.43338691249E+02  0.11966977191E+04  0.12010445761E+04  0.00000000000E+00 0.  1.
         12    1    6    6    0    0  0.57957039706E+02  0.23933049815E+02  0.42573459315E+03  0.43032749521E+03  0.00000000000E+00 0. -1.
         -5    1    3    3    0  503 -0.71545840438E+02  0.50536597866E+02  0.99480540929E+02  0.13263190804E+03  0.47000000000E+01 0.  1.
         11    1    4    4    0    0 -0.84183761617E+02 -0.36559783076E+02  0.17735911197E+03  0.19969921897E+03  0.00000000000E+00 0. -1.
        -12    1    4    4    0    0  0.17820437155E+01 -0.47586279150E+02  0.58121467638E+02  0.75138103805E+02  0.00000000000E+00 0.  1.
</event>
<event>
12    1  0.8313893E-002  0.1903794E+03  0.7818608E-02  0.1158827E+00
         21   -1    0    0  503  502  0.00000000000E+00  0.00000000000E+00  0.96283812451E+03  0.96283812451E+03  0.00000000000E+00 0. -1.
         21   -1    0    0  501  503 -0.00000000000E+00 -0.00000000000E+00 -0.92240414065E+02  0.92240414065E+02  0.00000000000E+00 0. -1.
          6    2    1    2  501    0  0.56361842626E+02  0.61500825929E+02  0.28608582610E+02  0.19251696491E+03  0.17112954709E+03 0.  0.
         24    2    3    3    0    0  0.88605988005E+02  0.41606389032E+02  0.62982969115E+02  0.14114419023E+03  0.79829288606E+02 0.  0.
         -6    2    1    2    0  502 -0.56361842626E+02 -0.61500825929E+02  0.84198912783E+03  0.86256157366E+03  0.16765371477E+03 0.  0.
        -24    2    5    5    0    0 -0.91387468424E+02 -0.81066710276E+02  0.65933085648E+03  0.67549005689E+03  0.81523970427E+02 0.  0.
          5    1    3    3  501    0 -0.32244145379E+02  0.19894436896E+02 -0.34374386504E+02  0.51372774679E+02  0.47000000000E+01 0. -1.
        -13    1    4    4    0    0  0.49806632677E+02  0.63894334384E+02  0.34171798633E+02  0.87925527845E+02  0.00000000000E+00 0.  1.
         14    1    4    4    0    0  0.38799355328E+02 -0.22287945351E+02  0.28811170482E+02  0.53218662388E+02  0.00000000000E+00 0. -1.
         -5    1    5    5    0  502  0.35025625798E+02  0.19565884348E+02  0.18265827136E+03  0.18707151677E+03  0.47000000000E+01 0.  1.
         13    1    6    6    0    0 -0.84342351713E+02 -0.68142574175E+02  0.64774525779E+03  0.65675791712E+03  0.00000000000E+00 0. -1.
        -14    1    6    6    0    0 -0.70451167106E+01 -0.12924136101E+02  0.11585598682E+02  0.18732139767E+02  0.00000000000E+00 0.  1.
</event>
<event>
12    1  0.8313893E-002  0.2189182E+03  0.7818608E-02  0.1137661E+00
         21   -1    0    0  501  502  0.00000000000E+00  0.00000000000E+00  0.86420298980E+03  0.86420298980E+03  0.00000000000E+00 0.  1.
         21   -1    0    0  502  503 -0.00000000000E+00 -0.00000000000E+00 -0.85256609680E+02  0.85256609680E+02  0.00000000000E+00 0. -1.
         -6    2    1    2    0  503 -0.95787234225E+02  0.48771951375E+02  0.83096596517E+02  0.21998576124E+03  0.17301674287E+03 0.  0.
        -24    2    3    3    0    0 -0.49985461060E+02 -0.37427692709E+02  0.21856675941E+02  0.10465753860E+03  0.81093203184E+02 0.  0.
          6    2    1    2  501    0  0.95787234225E+02 -0.48771951375E+02  0.69584978360E+03  0.72947383824E+03  0.19071251103E+03 0.  0.
         24    2    5    5    0    0  0.26063576474E+02 -0.56281227034E+02  0.60755325600E+03  0.61661931039E+03  0.85155907196E+02 0.  0.
          5    1    5    5  501    0  0.69723657752E+02  0.75092756588E+01  0.88296527598E+02  0.11285452785E+03  0.47000000000E+01 0. -1.
        -13    1    6    6    0    0  0.18375371989E+02  0.17984961372E+02  0.25218449512E+03  0.25349187898E+03  0.00000000000E+00 0.  1.
         14    1    6    6    0    0  0.76882044853E+01 -0.74266188406E+02  0.35536876088E+03  0.36312743141E+03  0.00000000000E+00 0. -1.
         -5    1    3    3    0  503 -0.45801773165E+02  0.86199644084E+02  0.61239920577E+02  0.11532822264E+03  0.47000000000E+01 0.  1.
         11    1    4    4    0    0 -0.30254321419E+02  0.14899578968E+02 -0.15795303454E+02  0.37239938630E+02  0.00000000000E+00 0. -1.
        -12    1    4    4    0    0 -0.19731139641E+02 -0.52327271677E+02  0.37651979395E+02  0.67417599965E+02  0.00000000000E+00 0.  1.
</event>
<event>
12    1  0.8313893E-002  0.1981852E+03  0.7818608E-02  0.1153765E+00
         21   -1    0    0  501  502  0.00000000000E+00  0.00000000000E+00  0.37074040301E+03  0.37074040301E+03  0.00000000000E+00 0. -1.
         21   -1    0    0  502  503 -0.00000000000E+00 -0.00000000000E+00 -0.21350561721E+03  0.21350561721E+03  0.00000000000E+00 0. -1.
         -6    2    1    2    0  503  0.44618235508E+02  0.58491791279E+02 -0.13541790059E+03  0.23080160027E+03  0.17181179908E+03 0.  0.
        -24    2    3    3    0    0  0.82740962461E+02  0.45020893126E+02 -0.14559143094E+03  0.18884450162E+03  0.74782573788E+02 0.  0.
          6    2    1    2  501    0 -0.44618235508E+02 -0.58491791279E+02  0.29265268639E+03  0.35344441994E+03  0.18402523346E+03 0.  0.
         24    2    5    5    0    0 -0.47114429455E+02 -0.98562675972E+02  0.13184008443E+03  0.18762919225E+03  0.76736792779E+02 0.  0.
          5    1    5    5  501    0  0.24961939467E+01  0.40070884693E+02  0.16081260196E+03  0.16581522769E+03  0.47000000000E+01 0. -1.
        -11    1    6    6    0    0 -0.25862360943E+02 -0.63141529342E+02  0.24303500082E+02  0.72431861479E+02  0.00000000000E+00 0.  1.
         12    1    6    6    0    0 -0.21252068512E+02 -0.35421146630E+02  0.10753658434E+03  0.11519733077E+03  0.00000000000E+00 0. -1.
         -5    1    3    3    0  503 -0.38122726953E+02  0.13470898153E+02  0.10173530355E+02  0.41957098651E+02  0.47000000000E+01 0.  1.
         11    1    4    4    0    0  0.65643310601E+02  0.30642068675E+02 -0.14953532544E+03  0.16615894244E+03  0.00000000000E+00 0. -1.
        -12    1    4    4    0    0  0.17097651860E+02  0.14378824451E+02  0.39438944924E+01  0.22685559184E+02  0.00000000000E+00 0.  1.
</event>
<event>
12    1  0.8313893E-002  0.2090432E+03  0.7818608E-02  0.1144883E+00
         21   -1    0    0  501  502  0.00000000000E+00  0.00000000000E+00  0.24837415013E+03  0.24837415013E+03  0.00000000000E+00 0. -1.
         21   -1    0    0  502  503 -0.00000000000E+00 -0.00000000000E+00 -0.27758962397E+03  0.27758962397E+03  0.00000000000E+00 0. -1.
         -6    2    1    2    0  503 -0.74494930744E+02  0.57281596321E+02 -0.18130403607E+03  0.26744876470E+03  0.17270498620E+03 0.  0.
        -24    2    3    3    0    0 -0.10786547408E+03  0.64707674585E+02 -0.18531400680E+03  0.23270815926E+03  0.63164567785E+02 0.  0.
          6    2    1    2  501    0  0.74494930744E+02 -0.57281596321E+02  0.15208856223E+03  0.25851500940E+03  0.18673083125E+03 0.  0.
         24    2    5    5    0    0 -0.27186230277E+02 -0.44810648041E+02  0.50864157794E+02  0.11442110560E+03  0.88079177818E+02 0.  0.
          5    1    5    5  501    0  0.10168116102E+03 -0.12470948280E+02  0.10122440443E+03  0.14409390379E+03  0.47000000000E+01 0. -1.
        -11    1    6    6    0    0 -0.10696619507E+02  0.85591996526E+01 -0.19966548462E+02  0.24214471397E+02  0.00000000000E+00 0.  1.
         12    1    6    6    0    0 -0.16489610770E+02 -0.53369847694E+02  0.70830706256E+02  0.90206634207E+02  0.00000000000E+00 0. -1.
         -5    1    3    3    0  503  0.33370543332E+02 -0.74260782633E+01  0.40099707309E+01  0.34740605433E+02  0.47000000000E+01 0.  1.
         13    1    4    4    0    0 -0.92446923682E+02  0.24423415730E+02 -0.14485806034E+03  0.17357071925E+03  0.00000000000E+00 0. -1.
        -14    1    4    4    0    0 -0.15418550394E+02  0.40284258855E+02 -0.40455946459E+02  0.59137440016E+02  0.00000000000E+00 0.  1.
</event>
<event>
12    1  0.8313893E-002  0.1717357E+03  0.7818608E-02  0.1176158E+00
         21   -1    0    0  503  502  0.00000000000E+00  0.00000000000E+00  0.15753185536E+03  0.15753185536E+03  0.00000000000E+00 0. -1.
         21   -1    0    0  501  503 -0.00000000000E+00 -0.00000000000E+00 -0.21090379835E+03  0.21090379835E+03  0.00000000000E+00 0. -1.
          6    2    1    2  501    0  0.17123916433E+01  0.10959484865E+02 -0.89041067502E+02  0.19344629979E+03  0.17137711810E+03 0.  0.
         24    2    3    3    0    0  0.31530832197E+01  0.66460587102E+02 -0.23814738191E+02  0.10766161598E+03  0.81221488708E+02 0.  0.
         -6    2    1    2    0  502 -0.17123916433E+01 -0.10959484865E+02  0.35669124504E+02  0.17498935392E+03  0.17095597371E+03 0.  0.
        -24    2    5    5    0    0  0.35817827603E+02 -0.45674111335E+02  0.62054966981E+02  0.11726652195E+03  0.80818172598E+02 0.  0.
          5    1    3    3  501    0 -0.14406915764E+01 -0.55501102237E+02 -0.65226329311E+02  0.85784683814E+02  0.47000000000E+01 0. -1.
        -11    1    4    4    0    0  0.86136406299E+01  0.17978467908E+02  0.29364784838E+02  0.35492403438E+02  0.00000000000E+00 0.  1.
         12    1    4    4    0    0 -0.54605574102E+01  0.48482119194E+02 -0.53179523030E+02  0.72169212539E+02  0.00000000000E+00 0. -1.
         -5    1    5    5    0  502 -0.37530219246E+02  0.34714626470E+02 -0.26385842476E+02  0.57722831972E+02  0.47000000000E+01 0.  1.
         13    1    6    6    0    0  0.45389602306E+02  0.56468636250E+01  0.39350694113E+02  0.60337220631E+02  0.00000000000E+00 0. -1.
        -14    1    6    6    0    0 -0.95717747031E+01 -0.51320974960E+02  0.22704272868E+02  0.56929301316E+02  0.00000000000E+00 0.  1.
</event>
<event>
12    1  0.8313893E-002  0.1999210E+03  0.7818608E-02  0.1149954E+00
         21   -1    0    0  503  502  0.00000000000E+00  0.00000000000E+00  0.79716120554E+03  0.79716120554E+03  0.00000000000E+00 0.  1.
         21   -1    0    0  501  503 -0.00000000000E+00 -0.00000000000E+00 -0.53834910766E+02  0.53834910766E+02  0.00000000000E+00 0.  1.
          6    2    1    2  501    0 -0.99012009754E+02  0.29923541456E+02  0.25693823992E+03  0.32512376699E+03  0.17026276256E+03 0.  0.
         24    2    3    3    0    0 -0.58999003718E+02  0.50041020913E+02  0.25675894144E+03  0.28009182521E+03  0.80878243858E+02 0.  0.
         -6    2    1    2    0  502  0.99012009754E+02 -0.29923541456E+02  0.48638805485E+03  0.52587234932E+03  0.17108358037E+03 0.  0.
        -24    2    5    5    0    0  0.40973783326E+02 -0.82329008117E+02  0.27671761338E+03  0.30204528954E+03  0.78751526225E+02 0.  0.
          5    1    3    3  501    0 -0.40013006036E+02 -0.20117479458E+02  0.17929848556E+00  0.45031941771E+02  0.47000000000E+01 0. -1.
        -13    1    4    4    0    0 -0.55638307612E+02  0.57429850577E+01  0.78555179849E+02  0.96434015951E+02  0.00000000000E+00 0.  1.
         14    1    4    4    0    0 -0.33606961065E+01  0.44298035855E+02  0.17820376159E+03  0.18365780926E+03  0.00000000000E+00 0. -1.
         -5    1    5    5    0  502  0.58038226428E+02  0.52405466661E+02  0.20967044147E+03  0.22382705978E+03  0.47000000000E+01 0.  1.
         13    1    6    6    0    0 -0.51291316221E+01 -0.67243875264E+02  0.20202000416E+03  0.21297917464E+03  0.00000000000E+00 0. -1.
        -14    1    6    6    0    0  0.46102914948E+02 -0.15085132853E+02  0.74697609227E+02  0.89066114904E+02  0.00000000000E+00 0.  1.
</event>
<event>
12    1  0.8313893E-002  0.2834693E+03  0.7818608E-02  0.1093955E+00
         21   -1    0    0  503  502  0.00000000000E+00  0.00000000000E+00  0.13107709970E+04  0.13107709970E+04  0.00000000000E+00 0. -1.
         21   -1    0    0  501  503 -0.00000000000E+00 -0.00000000000E+00 -0.73425666721E+02  0.73425666721E+02  0.00000000000E+00 0.  1.
          6    2    1    2  501    0 -0.30092925900E+02  0.22261981628E+03  0.90358006609E+03  0.94700147441E+03  0.17288634970E+03 0.  0.
         24    2    3    3    0    0  0.46672950207E+02  0.15350268235E+03  0.55986158666E+03  0.58806601915E+03  0.81456791613E+02 0.  0.
         -6    2    1    2    0  502  0.30092925900E+02 -0.22261981628E+03  0.33376526417E+03  0.43719518929E+03  0.17110001514E+03 0.  0.
        -24    2    5    5    0    0 -0.40721370043E+02 -0.16980523012E+03  0.24504065388E+03  0.31190276536E+03  0.82136269916E+02 0.  0.
          5    1    3    3  501    0 -0.76765876107E+02  0.69117133936E+02  0.34371847943E+03  0.35893545526E+03  0.47000000000E+01 0. -1.
        -11    1    4    4    0    0  0.98397335290E+00  0.17388535462E+02  0.10688914738E+02  0.20434829761E+02  0.00000000000E+00 0.  1.
         12    1    4    4    0    0  0.45688976854E+02  0.13611414688E+03  0.54917267192E+03  0.56763118939E+03  0.00000000000E+00 0. -1.
         -5    1    5    5    0  502  0.70814295943E+02 -0.52814586167E+02  0.88724610293E+02  0.12529242393E+03  0.47000000000E+01 0.  1.
         13    1    6    6    0    0  0.29283007306E+01 -0.41646062013E+02  0.12204247669E+03  0.12898579590E+03  0.00000000000E+00 0. -1.
        -14    1    6    6    0    0 -0.43649670773E+02 -0.12815916810E+03  0.12299817718E+03  0.18291696946E+03  0.00000000000E+00 0.  1.
</event>
<event>
12    1  0.8313893E-002  0.2117403E+03  0.7818608E-02  0.1140552E+00
         21   -1    0    0  501  502  0.00000000000E+00  0.00000000000E+00  0.28496232242E+02  0.28496232242E+02  0.00000000000E+00 0.  1.
         21   -1    0    0  502  503 -0.00000000000E+00 -0.00000000000E+00 -0.21378880614E+04  0.21378880614E+04  0.00000000000E+00 0.  1.
         -6    2    1    2    0  503 -0.72241870024E+02 -0.10265673804E+03 -0.16212083515E+04  0.16349772050E+04  0.17051876219E+03 0.  0.
        -24    2    3    3    0    0 -0.37871687767E+02 -0.62062355128E+02 -0.45489768195E+03  0.46744481519E+03  0.79289050617E+02 0.  0.
          6    2    1    2  501    0  0.72241870024E+02  0.10265673804E+03 -0.48818347757E+03  0.53140708855E+03  0.16826494686E+03 0.  0.
         24    2    5    5    0    0  0.11167596915E+03  0.79965193281E+02 -0.34474664447E+03  0.38085420925E+03  0.85637174209E+02 0.  0.
          5    1    5    5  501    0 -0.39434099122E+02  0.22691544761E+02 -0.14343683310E+03  0.15055287930E+03  0.47000000000E+01 0. -1.
        -11    1    6    6    0    0  0.52930018892E+02 -0.20283902631E-01 -0.63816409343E+02  0.82910321510E+02  0.00000000000E+00 0.  1.
         12    1    6    6    0    0  0.58745950254E+02  0.79985477183E+02 -0.28093023513E+03  0.29794388774E+03  0.00000000000E+00 0. -1.
         -5    1    3    3    0  503 -0.34370182257E+02 -0.40594382913E+02 -0.11663106696E+04  0.11675323899E+04  0.47000000000E+01 0.  1.
         13    1    4    4    0    0 -0.33754065895E+00 -0.66389512525E+02 -0.34224610926E+03  0.34862598958E+03  0.00000000000E+00 0. -1.
        -14    1    4    4    0    0 -0.37534147108E+02  0.43271573965E+01 -0.11265157269E+03  0.11881882561E+03  0.00000000000E+00 0.  1.
</event>
<event>
12    1  0.8313893E-002  0.2194972E+03  0.7818608E-02  0.1134354E+00
         21   -1    0    0  501  502  0.00000000000E+00  0.00000000000E+00  0.83217923988E+02  0.83217923988E+02  0.00000000000E+00 0.  1.
         21   -1    0    0  502  503 -0.00000000000E+00 -0.00000000000E+00 -0.58486114419E+03  0.58486114419E+03  0.00000000000E+00 0.  1.
         -6    2    1    2    0  503 -0.12654417411E+03  0.50320464281E+02 -0.28772909004E+03  0.36158556546E+03  0.17149494094E+03 0.  0.
        -24    2    3    3    0    0 -0.34115210217E+02 -0.23379783057E+02 -0.64858509396E+02  0.10925993152E+03  0.77592812628E+02 0.  0.
          6    2    1    2  501    0  0.12654417411E+03 -0.50320464281E+02 -0.21391413016E+03  0.30649350272E+03  0.17214364641E+03 0.  0.
         24    2    5    5    0    0  0.15355068484E+03 -0.69648559204E+02 -0.17655601664E+03  0.25628747199E+03  0.77990426806E+02 0.  0.
          5    1    5    5  501    0 -0.27006510736E+02  0.19328094924E+02 -0.37358113521E+02  0.50206030727E+02  0.47000000000E+01 0. -1.
        -11    1    6    6    0    0  0.10740779102E+03 -0.78018517190E+01 -0.11526264799E+03  0.15774276682E+03  0.00000000000E+00 0.  1.
         12    1    6    6    0    0  0.46142893821E+02 -0.61846707485E+02 -0.61293368649E+02  0.98544705171E+02  0.00000000000E+00 0. -1.
         -5    1    3    3    0  503 -0.92428963889E+02  0.73700247338E+02 -0.22287058065E+03  0.25232563393E+03  0.47000000000E+01 0.  1.
         13    1    4    4    0    0  0.22264358016E+02  0.76860391041E+01 -0.17131353480E+02  0.29124905271E+02  0.00000000000E+00 0. -1.
        -14    1    4    4    0    0 -0.56379568233E+02 -0.31065822162E+02 -0.47727155917E+02  0.80135026254E+02  0.00000000000E+00 0.  1.
</event>
<event>
12    1  0.8313893E-002  0.2007597E+03  0.7818608E-02  0.1149130E+00
         21   -1    0    0  503  502  0.00000000000E+00  0.00000000000E+00  0.13478302692E+03  0.13478302692E+03  0.00000000000E+00 0.  1.
         21   -1    0    0  501  503 -0.00000000000E+00 -0.00000000000E+00 -0.48254706505E+03  0.48254706505E+03  0.00000000000E+00 0.  1.
          6    2    1    2  501    0 -0.52766071494E+02 -0.88653370768E+02 -0.36438383044E+03  0.41602887109E+03  0.17222301601E+03 0.  0.
         24    2    3    3    0    0 -0.68345278762E+01 -0.20690546844E+02 -0.69860412186E+02  0.11025969992E+03  0.82473721490E+02 0.  0.
         -6    2    1    2    0  502  0.52766071494E+02  0.88653370768E+02  0.16619792304E+02  0.20130122088E+03  0.17205314756E+03 0.  0.
        -24    2    5    5    0    0  0.82901669750E+02  0.11170215214E+03  0.36495227066E+01  0.16093144880E+03  0.80842776766E+02 0.  0.
          5    1    3    3  501    0 -0.45931543618E+02 -0.67962823924E+02 -0.29452341825E+03  0.30576917117E+03  0.47000000000E+01 0. -1.
        -11    1    4    4    0    0 -0.34575216777E+02 -0.36767278520E+02 -0.55831112343E+02  0.75262151778E+02  0.00000000000E+00 0.  1.
         12    1    4    4    0    0  0.27740688901E+02  0.16076731676E+02 -0.14029299843E+02  0.34997548145E+02  0.00000000000E+00 0. -1.
         -5    1    5    5    0  502 -0.30135598256E+02 -0.23048781373E+02  0.12970269597E+02  0.40369772088E+02  0.47000000000E+01 0.  1.
         13    1    6    6    0    0 -0.31351884450E+01  0.38347211752E+02 -0.22924953469E+02  0.44787180614E+02  0.00000000000E+00 0. -1.
        -14    1    6    6    0    0  0.86036858195E+02  0.73354940388E+02  0.26574476176E+02  0.11614426818E+03  0.00000000000E+00 0.  1.
</event>
<event>
12    1  0.8313893E-002  0.1814775E+03  0.7818608E-02  0.1166435E+00
         21   -1    0    0  503  502  0.00000000000E+00  0.00000000000E+00  0.86518898611E+02  0.86518898611E+02  0.00000000000E+00 0.  1.
         21   -1    0    0  501  503 -0.00000000000E+00 -0.00000000000E+00 -0.39153844513E+03  0.39153844513E+03  0.00000000000E+00 0. -1.
          6    2    1    2  501    0  0.21927081153E+02 -0.51250685665E+02 -0.19330397236E+03  0.26514244721E+03  0.17270397190E+03 0.  0.
         24    2    3    3    0    0  0.20710831573E+02 -0.17636695941E+02 -0.17453743340E+02  0.86042551573E+02  0.79741431743E+02 0.  0.
         -6    2    1    2    0  502 -0.21927081153E+02  0.51250685665E+02 -0.11171557415E+03  0.21291489653E+03  0.17246725483E+03 0.  0.
        -24    2    5    5    0    0 -0.60820487564E+02  0.81280888222E+02 -0.62749552680E+02  0.14338597171E+03  0.79475254165E+02 0.  0.
          5    1    3    3  501    0  0.12162495801E+01 -0.33613989724E+02 -0.17585022902E+03  0.17909989563E+03  0.47000000000E+01 0. -1.
        -13    1    4    4    0    0  0.12866740384E+02  0.22171290276E+02  0.18674514161E+02  0.31715242388E+02  0.00000000000E+00 0.  1.
         14    1    4    4    0    0  0.78440911885E+01 -0.39807986217E+02 -0.36128257501E+02  0.54327309185E+02  0.00000000000E+00 0. -1.
         -5    1    5    5    0  502  0.38893406411E+02 -0.30030202557E+02 -0.48966021474E+02  0.69528924822E+02  0.47000000000E+01 0.  1.
         11    1    6    6    0    0 -0.57738443783E+02  0.26932122368E+02 -0.48196921989E+01  0.63892852015E+02  0.00000000000E+00 0. -1.
        -12    1    6    6    0    0 -0.30820437807E+01  0.54348765855E+02 -0.57929860481E+02  0.79493119697E+02  0.00000000000E+00 0.  1.
</event>
<event>
12    1  0.8313893E-002  0.1969745E+03  0.7818608E-02  0.1152353E+00
         21   -1    0    0  503  502  0.00000000000E+00  0.00000000000E+00  0.12291466586E+03  0.12291466586E+03  0.00000000000E+00 0.  1.
         21   -1    0    0  501  503 -0.00000000000E+00 -0.00000000000E+00 -0.36152196674E+03  0.36152196674E+03  0.00000000000E+00 0.  1.
          6    2    1    2  501    0 -0.53850462418E+02 -0.79492270873E+02 -0.20578412907E+03  0.28474613464E+03  0.17179743882E+03 0.  0.
         24    2    3    3    0    0 -0.84730379782E+02 -0.84965293405E+02 -0.20805771962E+03  0.25295332907E+03  0.79366451691E+02 0.  0.
         -6    2    1    2    0  502  0.53850462418E+02  0.79492270873E+02 -0.32823171816E+02  0.19969049795E+03  0.17198849070E+03 0.  0.
        -24    2    5    5    0    0  0.60752414617E+02  0.94706866279E+02 -0.75848752360E+02  0.15329640955E+03  0.71319769660E+02 0.  0.
          5    1    3    3  501    0  0.30879917364E+02  0.54730225320E+01  0.22735905512E+01  0.31792805570E+02  0.47000000000E+01 0. -1.
        -13    1    4    4    0    0 -0.78341060475E+02 -0.25490472809E+02 -0.13910685384E+03  0.16167189844E+03  0.00000000000E+00 0.  1.
         14    1    4    4    0    0 -0.63893193068E+01 -0.59474820597E+02 -0.68950865776E+02  0.91281430628E+02  0.00000000000E+00 0. -1.
         -5    1    5    5    0  502 -0.69019521985E+01 -0.15214595406E+02  0.43025580544E+02  0.46394088402E+02  0.47000000000E+01 0.  1.
         11    1    6    6    0    0  0.16115474950E+02  0.84839027426E+02 -0.58949491720E+02  0.10455817367E+03  0.00000000000E+00 0. -1.
        -12    1    6    6    0    0  0.44636939667E+02  0.98678388529E+01 -0.16899260640E+02  0.48738235879E+02  0.00000000000E+00 0.  1.
</event>
<event>
12    1  0.8313893E-002  0.2002774E+03  0.7818608E-02  0.1149759E+00
         21   -1    0    0  503  502  0.00000000000E+00  0.00000000000E+00  0.59251183949E+03  0.59251183949E+03  0.00000000000E+00 0.  1.
         21   -1    0    0  501  503 -0.00000000000E+00 -0.00000000000E+00 -0.10418680688E+03  0.10418680688E+03  0.00000000000E+00 0.  1.
          6    2    1    2  501    0  0.37731584026E+02 -0.91607645229E+02  0.36387466346E+02  0.20237224907E+03  0.17266976107E+03 0.  0.
         24    2    3    3    0    0 -0.60268979002E+00 -0.88327745273E+02 -0.32864296283E+02  0.12301123270E+03  0.79054080091E+02 0.  0.
         -6    2    1    2    0  502 -0.37731584026E+02  0.91607645229E+02  0.45193756626E+03  0.49432639730E+03  0.17405570997E+03 0.  0.
        -24    2    5    5    0    0 -0.56224279411E+02  0.12127467834E+03  0.32936727480E+03  0.36678158562E+03  0.90427941719E+02 0.  0.
          5    1    3    3  501    0  0.38334273816E+02 -0.32798999557E+01  0.69251762629E+02  0.79361016375E+02  0.47000000000E+01 0. -1.
        -13    1    4    4    0    0  0.13251662922E+02 -0.44931011650E+02 -0.55098305624E+02  0.72320299092E+02  0.00000000000E+00 0.  1.
         14    1    4    4    0    0 -0.13854352712E+02 -0.43396733624E+02  0.22234009341E+02  0.50690933604E+02  0.00000000000E+00 0. -1.
         -5    1    5    5    0  502  0.18492695384E+02 -0.29667033110E+02  0.12257029147E+03  0.12754481168E+03  0.47000000000E+01 0.  1.
         11    1    6    6    0    0 -0.37102516146E+02  0.16743226743E+02  0.17299024953E+03  0.17771482431E+03  0.00000000000E+00 0. -1.
        -12    1    6    6    0    0 -0.19121763265E+02  0.10453145160E+03  0.15637702527E+03  0.18906676132E+03  0.00000000000E+00 0.  1.
</event>
<event>
12    1  0.8313893E-002  0.1735090E+03  0.7818608E-02  0.1174412E+00
         21   -1    0    0  501  502  0.00000000000E+00  0.00000000000E+00  0.13385050705E+03  0.13385050705E+03  0.00000000000E+00 0.  1.
         21   -1    0    0  502  503 -0.00000000000E+00 -0.00000000000E+00 -0.22576909661E+03  0.22576909661E+03  0.00000000000E+00 0.  1.
         -6    2    1    2    0  503  0.20397321138E+02 -0.27208031526E+01 -0.30082326345E+02  0.17542107815E+03  0.17159299176E+03 0.  0.
        -24    2    3    3    0    0 -0.43620765042E+02 -0.21774492559E+02 -0.48796608745E+02  0.10589645802E+03  0.80349555858E+02 0.  0.
          6    2    1    2  501    0 -0.20397321138E+02  0.27208031526E+01 -0.61836263212E+02  0.18419852552E+03  0.17228441565E+03 0.  0.
         24    2    5    5    0    0  0.15403429244E+02 -0.48248553838E+02 -0.39839107686E+02  0.11797516158E+03  0.98822040400E+02 0.  0.
          5    1    5    5  501    0 -0.35800750382E+02  0.50969356991E+02 -0.21997155525E+02  0.66223363938E+02  0.47000000000E+01 0. -1.
        -11    1    6    6    0    0  0.59500930642E+01  0.25792247272E+02  0.99205834956E+01  0.28267677721E+02  0.00000000000E+00 0.  1.
         12    1    6    6    0    0  0.94533361799E+01 -0.74040801111E+02 -0.49759691182E+02  0.89707483860E+02  0.00000000000E+00 0. -1.
         -5    1    3    3    0  503  0.64018086180E+02  0.19053689407E+02  0.18714282401E+02  0.69524620128E+02  0.47000000000E+01 0.  1.
         11    1    4    4    0    0 -0.61885209743E+01  0.20304514228E+02  0.10870136548E+02  0.23848080812E+02  0.00000000000E+00 0. -1.
        -12    1    4    4    0    0 -0.37432244068E+02 -0.42079006787E+02 -0.59666745293E+02  0.82048377205E+02  0.00000000000E+00 0.  1.
</event>
<event>
12    1  0.8313893E-002  0.1977296E+03  0.7818608E-02  0.1152576E+00
         21   -1    0    0  503  502  0.00000000000E+00  0.00000000000E+00  0.13083234014E+04  0.13083234014E+04  0.00000000000E+00 0.  1.
         21   -1    0    0  501  503 -0.00000000000E+00 -0.00000000000E+00 -0.42713137806E+02  0.42713137806E+02  0.00000000000E+00 0.  1.
          6    2    1    2  501    0  0.64792462219E+02 -0.61116354295E+02  0.25825517712E+03  0.32525793630E+03  0.17653248057E+03 0.  0.
         24    2    3    3    0    0  0.45948428580E+02 -0.11232138996E+03  0.19826715888E+03  0.24403167445E+03  0.74257922894E+02 0.  0.
         -6    2    1    2    0  502 -0.64792462219E+02  0.61116354295E+02  0.10073550864E+04  0.10257786029E+04  0.17182607488E+03 0.  0.
        -24    2    5    5    0    0 -0.28375018834E+02  0.29135361021E+02  0.23012255183E+03  0.24702221158E+03  0.80059810138E+02 0.  0.
          5    1    3    3  501    0  0.18844033639E+02  0.51205035669E+02  0.59988018238E+02  0.81226261848E+02  0.47000000000E+01 0. -1.
        -11    1    4    4    0    0  0.49547834414E+02 -0.71412397193E+02  0.77423761778E+02  0.11640084732E+03  0.00000000000E+00 0.  1.
         12    1    4    4    0    0 -0.35994058342E+01 -0.40908992771E+02  0.12084339711E+03  0.12763082714E+03  0.00000000000E+00 0. -1.
         -5    1    5    5    0  502 -0.36417443385E+02  0.31980993274E+02  0.77723253462E+03  0.77875639130E+03  0.47000000000E+01 0.  1.
         11    1    6    6    0    0  0.22697452325E+01  0.36578109749E+02  0.20027764077E+03  0.20360315138E+03  0.00000000000E+00 0. -1.
        -12    1    6    6    0    0 -0.30644764067E+02 -0.74427487282E+01  0.29844911053E+02  0.43419060205E+02  0.00000000000E+00 0.  1.
</event>
<event>
12    1  0.8313893E-002  0.1737366E+03  0.7818608E-02  0.1175129E+00
         21   -1    0    0  501  502  0.00000000000E+00  0.00000000000E+00  0.41124501735E+02  0.41124501735E+02  0.00000000000E+00 0.  1.
         21   -1    0    0  502  503 -0.00000000000E+00 -0.00000000000E+00 -0.73901595129E+03  0.73901595129E+03  0.00000000000E+00 0.  1.
         -6    2    1    2    0  503  0.17645972859E+02  0.94833887972E+01 -0.27525089669E+03  0.32318374355E+03  0.16817657669E+03 0.  0.
        -24    2    3    3    0    0  0.67429821686E+02 -0.14122151321E+02 -0.22404464925E+03  0.24781914374E+03  0.80449407308E+02 0.  0.
          6    2    1    2  501    0 -0.17645972859E+02 -0.94833887972E+01 -0.42264055286E+03  0.45695670947E+03  0.17257775750E+03 0.  0.
         24    2    5    5    0    0 -0.42009287215E+02 -0.25765138830E+02 -0.11799194216E+03  0.15086598358E+03  0.80061376432E+02 0.  0.
          5    1    5    5  501    0  0.24363314356E+02  0.16281750033E+02 -0.30464861070E+03  0.30609072589E+03  0.47000000000E+01 0. -1.
        -11    1    6    6    0    0 -0.67395196337E+01 -0.29749192638E+02 -0.11044318862E+03  0.11457806727E+03  0.00000000000E+00 0.  1.
         12    1    6    6    0    0 -0.35269767581E+02  0.39840538083E+01 -0.75487535394E+01  0.36287916308E+02  0.00000000000E+00 0. -1.
         -5    1    3    3    0  503 -0.49783848827E+02  0.23605540118E+02 -0.51206247443E+02  0.75364599817E+02  0.47000000000E+01 0.  1.
         11    1    4    4    0    0  0.91079404499E+00  0.62149526387E+00 -0.13828272922E+03  0.13828712523E+03  0.00000000000E+00 0. -1.
        -12    1    4    4    0    0  0.66519027641E+02 -0.14743646585E+02 -0.85761920024E+02  0.10953201851E+03  0.00000000000E+00 0.  1.
</event>
<event>
12    1  0.8313893E-002  0.2278406E+03  0.7818608E-02  0.1128640E+00
         21   -1    0    0  503  502  0.00000000000E+00  0.00000000000E+00  0.62307991968E+03  0.62307991968E+03  0.00000000000E+00 0. -1.
         21   -1    0    0  501  503 -0.00000000000E+00 -0.00000000000E+00 -0.10202265935E+03  0.10202265935E+03  0.00000000000E+00 0.  1.
          6    2    1    2  501    0 -0.65713213922E+02 -0.12929122094E+03  0.10013542956E+03  0.24647273531E+03  0.17229990917E+03 0.  0.
         24    2    3    3    0    0 -0.39591222374E+01 -0.51836044364E+02 -0.12177874386E+02  0.96642029306E+02  0.80552660165E+02 0.  0.
         -6    2    1    2    0  502  0.65713213922E+02  0.12929122094E+03  0.42092183077E+03  0.47862984372E+03  0.17571822156E+03 0.  0.
        -24    2    5    5    0    0  0.96585271641E+02  0.14016682404E+03  0.30399542352E+03  0.35711755051E+03  0.78385420195E+02 0.  0.
          5    1    3    3  501    0 -0.61754091684E+02 -0.77455176577E+02  0.11231330394E+03  0.14983070600E+03  0.47000000000E+01 0. -1.
        -11    1    4    4    0    0  0.26760862824E+02 -0.22104633549E+02 -0.34048176682E+02  0.48621362988E+02  0.00000000000E+00 0.  1.
         12    1    4    4    0    0 -0.30719985061E+02 -0.29731410814E+02  0.21870302296E+02  0.48020666319E+02  0.00000000000E+00 0. -1.
         -5    1    5    5    0  502 -0.30872057719E+02 -0.10875603103E+02  0.11692640725E+03  0.12151229322E+03  0.47000000000E+01 0.  1.
         11    1    6    6    0    0 -0.33560591537E+01 -0.58786358301E+01  0.31363583944E+02  0.32085758369E+02  0.00000000000E+00 0. -1.
        -12    1    6    6    0    0  0.99941330795E+02  0.14604545987E+03  0.27263183957E+03  0.32503179214E+03  0.00000000000E+00 0.  1.
</event>
<event>
12    1  0.8313893E-002  0.2796095E+03  0.7818608E-02  0.1096069E+00
         21   -1    0    0  501  502  0.00000000000E+00  0.00000000000E+00  0.81959599867E+03  0.81959599867E+03  0.00000000000E+00 0.  1.
         21   -1    0    0  502  503 -0.00000000000E+00 -0.00000000000E+00 -0.96373753707E+02  0.96373753707E+02  0.00000000000E+00 0. -1.
         -6    2    1    2    0  503  0.74782292656E+02 -0.20744503383E+03  0.41597171029E+03  0.50053701523E+03  0.16993824319E+03 0.  0.
        -24    2    3    3    0    0  0.39323210924E+02 -0.16949936359E+03  0.19314081807E+03  0.27168571657E+03  0.78951908212E+02 0.  0.
          6    2    1    2  501    0 -0.74782292656E+02  0.20744503383E+03  0.30725053467E+03  0.41543273714E+03  0.17191752291E+03 0.  0.
         24    2    5    5    0    0 -0.38846246574E+02  0.21034613469E+03  0.30217191928E+03  0.37872172887E+03  0.79798194637E+02 0.  0.
          5    1    5    5  501    0 -0.35936046081E+02 -0.29011008605E+01  0.50786153892E+01  0.36711008273E+02  0.47000000000E+01 0. -1.
        -11    1    6    6    0    0 -0.54933219523E+02  0.85874504942E+02  0.11926805140E+03  0.15689791997E+03  0.00000000000E+00 0.  1.
         12    1    6    6    0    0  0.16086972949E+02  0.12447162975E+03  0.18290386788E+03  0.22182380890E+03  0.00000000000E+00 0. -1.
         -5    1    3    3    0  503  0.35459081731E+02 -0.37945670234E+02  0.22283089223E+03  0.22885129866E+03  0.47000000000E+01 0.  1.
         11    1    4    4    0    0  0.11946042698E+02 -0.14614173100E+03  0.18260173919E+03  0.23418690960E+03  0.00000000000E+00 0. -1.
        -12    1    4    4    0    0  0.27377168226E+02 -0.23357632598E+02  0.10539078880E+02  0.37498806972E+02  0.00000000000E+00 0.  1.
</event>
<event>
12    1  0.8313893E-002  0.2601042E+03  0.7818608E-02  0.1107195E+00
         21   -1    0    0  503  502  0.00000000000E+00  0.00000000000E+00  0.86210098601E+02  0.86210098601E+02  0.00000000000E+00 0.  1.
         21   -1    0    0  501  503 -0.00000000000E+00 -0.00000000000E+00 -0.78326635551E+03  0.78326635551E+03  0.00000000000E+00 0. -1.
          6    2    1    2  501    0 -0.15557933301E+03 -0.11368875437E+03 -0.36295956858E+03  0.44653537079E+03  0.17471155433E+03 0.  0.
         24    2    3    3    0    0 -0.86949453141E+02  0.58241181569E+01 -0.12736708656E+03  0.17355314665E+03  0.79398943455E+02 0.  0.
         -6    2    1    2    0  502  0.15557933301E+03  0.11368875437E+03 -0.33409668833E+03  0.42294108332E+03  0.17357563504E+03 0.  0.
        -24    2    5    5    0    0  0.11529634238E+03  0.79506208390E+02 -0.11815427446E+03  0.20058015624E+03  0.81593399036E+02 0.  0.
          5    1    3    3  501    0 -0.68629879865E+02 -0.11951287252E+03 -0.23559248203E+03  0.27298222414E+03  0.47000000000E+01 0. -1.
        -13    1    4    4    0    0 -0.86670376270E+02 -0.21964500880E+02 -0.88777796563E+02  0.12599877215E+03  0.00000000000E+00 0.  1.
         14    1    4    4    0    0 -0.27907687121E+00  0.27788619037E+02 -0.38589289993E+02  0.47554374500E+02  0.00000000000E+00 0. -1.
         -5    1    5    5    0  502  0.40282990629E+02  0.34182545977E+02 -0.21594241387E+03  0.22236092708E+03  0.47000000000E+01 0.  1.
         13    1    6    6    0    0 -0.67434000445E+00  0.27035076849E+02 -0.48371534948E+02  0.55418007072E+02  0.00000000000E+00 0. -1.
        -14    1    6    6    0    0  0.11597068238E+03  0.52471131541E+02 -0.69782739509E+02  0.14516214917E+03  0.00000000000E+00 0.  1.
</event>
<event>
12    1  0.8313893E-002  0.2007421E+03  0.7818608E-02  0.1152345E+00
         21   -1    0    0  503  502  0.00000000000E+00  0.00000000000E+00  0.56439328331E+03  0.56439328331E+03  0.00000000000E+00 0. -1.
         21   -1    0    0  501  503 -0.00000000000E+00 -0.00000000000E+00 -0.66913774109E+02  0.66913774109E+02  0.00000000000E+00 0. -1.
          6    2    1    2  501    0  0.62768965540E+02 -0.28800702030E+02  0.28977317379E+03  0.35251367573E+03  0.18848866239E+03 0.  0.
         24    2    3    3    0    0 -0.71684908407E+01 -0.37303057764E+02  0.26214658969E+03  0.27669246492E+03  0.79968620602E+02 0.  0.
         -6    2    1    2    0  502 -0.62768965540E+02  0.28800702030E+02  0.20770633541E+03  0.27879338169E+03  0.17266848130E+03 0.  0.
        -24    2    5    5    0    0 -0.30354245238E+02  0.14310441573E+02  0.21787994369E+02  0.89456641268E+02  0.80010030786E+02 0.  0.
          5    1    3    3  501    0  0.69937456381E+02  0.85023557346E+01  0.27626584105E+02  0.75821210801E+02  0.47000000000E+01 0. -1.
        -11    1    4    4    0    0  0.35295984010E+02 -0.75215370587E+01  0.92355409084E+02  0.99155945833E+02  0.00000000000E+00 0.  1.
         12    1    4    4    0    0 -0.42464474851E+02 -0.29781520706E+02  0.16979118060E+03  0.17753651909E+03  0.00000000000E+00 0. -1.
         -5    1    5    5    0  502 -0.32414720302E+02  0.14490260457E+02  0.18591834104E+03  0.18933674043E+03  0.47000000000E+01 0.  1.
         13    1    6    6    0    0 -0.32084215597E+02 -0.25870874780E+02  0.26444418081E+02  0.48969442513E+02  0.00000000000E+00 0. -1.
        -14    1    6    6    0    0  0.17299703592E+01  0.40181316353E+02 -0.46564237114E+01  0.40487198755E+02  0.00000000000E+00 0.  1.
</event>
<event>
12    1  0.8313893E-002  0.3031621E+03  0.7818608E-02  0.1083844E+00
         21   -1    0    0  503  502  0.00000000000E+00  0.00000000000E+00  0.25830119356E+03  0.25830119356E+03  0.00000000000E+00 0.  1.
         21   -1    0    0  501  503 -0.00000000000E+00 -0.00000000000E+00 -0.41039959543E+03  0.41039959543E+03  0.00000000000E+00 0. -1.
          6    2    1    2  501    0  0.62569286346E+02 -0.24058127388E+03  0.47560056228E+02  0.30686999761E+03  0.17353089509E+03 0.  0.
         24    2    3    3    0    0  0.38871632902E+02 -0.21051034268E+03  0.93675075023E+02  0.24674908078E+03  0.79274718337E+02 0.  0.
         -6    2    1    2    0  502 -0.62569286346E+02  0.24058127388E+03 -0.19965845810E+03  0.36183079138E+03  0.17106652732E+03 0.  0.
        -24    2    5    5    0    0 -0.23265860349E+02  0.61236577536E+02 -0.13992896885E+03  0.16870134959E+03  0.67740758374E+02 0.  0.
          5    1    3    3  501    0  0.23697653443E+02 -0.30070931201E+02 -0.46115018794E+02  0.60120916829E+02  0.47000000000E+01 0. -1.
        -11    1    4    4    0    0  0.22944304831E+02 -0.58481754871E+02 -0.77537641351E+01  0.63298322531E+02  0.00000000000E+00 0.  1.
         12    1    4    4    0    0  0.15927328072E+02 -0.15202858780E+03  0.10142883916E+03  0.18345075825E+03  0.00000000000E+00 0. -1.
         -5    1    5    5    0  502 -0.39303425997E+02  0.17934469634E+03 -0.59729489248E+02  0.19312944179E+03  0.47000000000E+01 0.  1.
         13    1    6    6    0    0 -0.38346305774E+02  0.60913228525E+02 -0.83261098542E+02  0.11006030668E+03  0.00000000000E+00 0. -1.
        -14    1    6    6    0    0  0.15080445426E+02  0.32334901077E+00 -0.56667870307E+02  0.58641042913E+02  0.00000000000E+00 0.  1.
</event>
<event>
12    1  0.8313893E-002  0.2281445E+03  0.7818608E-02  0.1128190E+00
         21   -1    0    0  501  502  0.00000000000E+00  0.00000000000E+00  0.18723018640E+03  0.18723018640E+03  0.00000000000E+00 0. -1.
         21   -1    0    0  502  503 -0.00000000000E+00 -0.00000000000E+00 -0.53993499304E+03  0.53993499304E+03  0.00000000000E+00 0.  1.
         -6    2    1    2    0  503 -0.14889276439E+03 -0.24126298687E+00 -0.43010816849E+03  0.48624773877E+03  0.17109854869E+03 0.  0.
        -24    2    3    3    0    0 -0.29300577661E+02 -0.19022643458E+02 -0.86200164988E+02  0.12162487025E+03  0.78369354999E+02 0.  0.
          6    2    1    2  501    0  0.14889276439E+03  0.24126298687E+00  0.77403361850E+02  0.24091744067E+03  0.17286069333E+03 0.  0.
         24    2    5    5    0    0  0.46847528933E+02 -0.60159003432E+01  0.10009648665E+03  0.13608686266E+03  0.79179830293E+02 0.  0.
          5    1    5    5  501    0  0.10204523545E+03  0.62571633301E+01 -0.22693124802E+02  0.10483057801E+03  0.47000000000E+01 0. -1.
        -11    1    6    6    0    0 -0.18739184321E+02 -0.14266521716E+02  0.13510362820E+02  0.27151806098E+02  0.00000000000E+00 0.  1.
         12    1    6    6    0    0  0.65586713253E+02  0.82506213724E+01  0.86586123832E+02  0.10893505656E+03  0.00000000000E+00 0. -1.
         -5    1    3    3    0  503 -0.11959218673E+03  0.18781380471E+02 -0.34390800351E+03  0.36462286853E+03  0.47000000000E+01 0.  1.
         13    1    4    4    0    0  0.20080976064E+02  0.94647062468E+01 -0.48326647041E+02  0.53181679911E+02  0.00000000000E+00 0. -1.
        -14    1    4    4    0    0 -0.49381553724E+02 -0.28487349705E+02 -0.37873517947E+02  0.68443190334E+02  0.00000000000E+00 0.  1.
</event>
<event>
12    1  0.8313893E-002  0.1879024E+03  0.7818608E-02  0.1160458E+00
         21   -1    0    0  503  502  0.00000000000E+00  0.00000000000E+00  0.10086774089E+04  0.10086774089E+04  0.00000000000E+00 0. -1.
         21   -1    0    0  501  503 -0.00000000000E+00 -0.00000000000E+00 -0.43110674252E+02  0.43110674252E+02  0.00000000000E+00 0.  1.
          6    2    1    2  501    0  0.66443901463E+02  0.34609621172E+02  0.25327260223E+03  0.31512651891E+03  0.17188686383E+03 0.  0.
         24    2    3    3    0    0 -0.23606774091E+02 -0.10552198558E+02  0.86876385389E+02  0.12055389722E+03  0.79480230999E+02 0.  0.
         -6    2    1    2    0  502 -0.66443901463E+02 -0.34609621172E+02  0.71229413241E+03  0.73666156424E+03  0.17232153448E+03 0.  0.
        -24    2    5    5    0    0 -0.10570169403E+03 -0.49647054271E+02  0.55123136552E+03  0.57013648039E+03  0.86959242325E+02 0.  0.
          5    1    3    3  501    0  0.90050675554E+02  0.45161819730E+02  0.16639621684E+03  0.19457262168E+03  0.47000000000E+01 0. -1.
        -11    1    4    4    0    0 -0.45999446299E+02 -0.26028336237E+02  0.72646961952E+02  0.89838769069E+02  0.00000000000E+00 0.  1.
         12    1    4    4    0    0  0.22392672208E+02  0.15476137679E+02  0.14229423437E+02  0.30715128152E+02  0.00000000000E+00 0. -1.
         -5    1    5    5    0  502  0.39257792567E+02  0.15037433099E+02  0.16106276690E+03  0.16652508385E+03  0.47000000000E+01 0.  1.
         13    1    6    6    0    0 -0.21885688545E+02  0.73534047102E+01  0.27374097617E+03  0.27471290097E+03  0.00000000000E+00 0. -1.
        -14    1    6    6    0    0 -0.83816005486E+02 -0.57000458981E+02  0.27749038934E+03  0.29542357942E+03  0.00000000000E+00 0.  1.
</event>
<event>
12    1  0.8313893E-002  0.1968250E+03  0.7818608E-02  0.1152529E+00
         21   -1    0    0  503  502  0.00000000000E+00  0.00000000000E+00  0.49632351176E+02  0.49632351176E+02  0.00000000000E+00 0.  1.
         21   -1    0    0  501  503 -0.00000000000E+00 -0.00000000000E+00 -0.80304182343E+03  0.80304182343E+03  0.00000000000E+00 0.  1.
          6    2    1    2  501    0 -0.48019105406E+02 -0.81823938502E+02 -0.45082067032E+03  0.49191399161E+03  0.17245030284E+03 0.  0.
         24    2    3    3    0    0 -0.11900332937E+02 -0.66768500895E+02 -0.12314273091E+03  0.16187436686E+03  0.80246668673E+02 0.  0.
         -6    2    1    2    0  502  0.48019105406E+02  0.81823938502E+02 -0.30258880193E+03  0.36076018300E+03  0.17200853232E+03 0.  0.
        -24    2    5    5    0    0  0.27742284507E+02  0.81311867343E+01 -0.25836021629E+03  0.27232925562E+03  0.81101612568E+02 0.  0.
          5    1    3    3  501    0 -0.36118772469E+02 -0.15055437607E+02 -0.32767793941E+03  0.33003962475E+03  0.47000000000E+01 0. -1.
        -13    1    4    4    0    0  0.16481649106E+02 -0.50993420961E+01 -0.79083064471E+02  0.80943061057E+02  0.00000000000E+00 0.  1.
         14    1    4    4    0    0 -0.28381982042E+02 -0.61669158799E+02 -0.44059666439E+02  0.80931305799E+02  0.00000000000E+00 0. -1.
         -5    1    5    5    0  502  0.20276820899E+02  0.73692751768E+02 -0.44228585643E+02  0.88430927378E+02  0.47000000000E+01 0.  1.
         13    1    6    6    0    0  0.23184949850E+02  0.17374885624E+02 -0.26024453062E+03  0.26185233294E+03  0.00000000000E+00 0. -1.
        -14    1    6    6    0    0  0.45573346563E+01 -0.92436988894E+01  0.18843143338E+01  0.10476922680E+02  0.00000000000E+00 0.  1.
</event>
<event>
12    1  0.8313893E-002  0.2093928E+03  0.7818608E-02  0.1142199E+00
         21   -1    0    0  501  502  0.00000000000E+00  0.00000000000E+00  0.35923739047E+03  0.35923739047E+03  0.00000000000E+00 0.  1.
         21   -1    0    0  502  503 -0.00000000000E+00 -0.00000000000E+00 -0.12699530717E+03  0.12699530717E+03  0.00000000000E+00 0. -1.
         -6    2    1    2    0  503  0.53593631844E+02 -0.10508369269E+03  0.65848413608E+02  0.21877761984E+03  0.17208362364E+03 0.  0.
        -24    2    3    3    0    0 -0.31697047096E+02 -0.56115043459E+02  0.63419136503E+02  0.12028691008E+03  0.79330655893E+02 0.  0.
          6    2    1    2  501    0 -0.53593631844E+02  0.10508369269E+03  0.16639366969E+03  0.26745507780E+03  0.17300435106E+03 0.  0.
         24    2    5    5    0    0 -0.10243162092E+03  0.77599781233E+02  0.12030958826E+03  0.19474780769E+03  0.83296749999E+02 0.  0.
          5    1    5    5  501    0  0.48837989078E+02  0.27483911457E+02  0.46084081429E+02  0.72707270113E+02  0.47000000000E+01 0. -1.
        -13    1    6    6    0    0 -0.11736691184E+02  0.58510936226E+02  0.56859420129E+02  0.82427381587E+02  0.00000000000E+00 0.  1.
         14    1    6    6    0    0 -0.90694929737E+02  0.19088845008E+02  0.63450168129E+02  0.11232042610E+03  0.00000000000E+00 0. -1.
         -5    1    3    3    0  503  0.85290678940E+02 -0.48968649231E+02  0.24292771043E+01  0.98490709759E+02  0.47000000000E+01 0.  1.
         11    1    4    4    0    0 -0.20929108244E+01  0.17739345440E+02 -0.10309948038E+01  0.17892110066E+02  0.00000000000E+00 0. -1.
        -12    1    4    4    0    0 -0.29604136272E+02 -0.73854388899E+02  0.64450131307E+02  0.10239480001E+03  0.00000000000E+00 0.  1.
</event>
<event>
12    1  0.8313893E-002  0.2074599E+03  0.7818608E-02  0.1144056E+00
         21   -1    0    0  501  502  0.00000000000E+00  0.00000000000E+00  0.48826436784E+03  0.48826436784E+03  0.00000000000E+00 0.  1.
         21   -1    0    0  502  503 -0.00000000000E+00 -0.00000000000E+00 -0.89281430479E+02  0.89281430479E+02  0.00000000000E+00 0.  1.
         -6    2    1    2    0  503 -0.58119396888E+02  0.10114171229E+03  0.15626161962E+03  0.25972545602E+03  0.17155788668E+03 0.  0.
        -24    2    3    3    0    0 -0.93528953159E+02  0.33799391425E+02  0.11827806174E+03  0.17455700222E+03  0.81181175129E+02 0.  0.
          6    2    1    2  501    0  0.58119396888E+02 -0.10114171229E+03  0.24272131774E+03  0.31782034229E+03  0.16878572697E+03 0.  0.
         24    2    5    5    0    0  0.19726413092E+02 -0.61958924851E+02  0.39108102578E+02  0.10689442301E+03  0.75292325250E+02 0.  0.
          5    1    5    5  501    0  0.38392983797E+02 -0.39182787435E+02  0.20361321516E+03  0.21092591928E+03  0.47000000000E+01 0. -1.
        -13    1    6    6    0    0  0.51967863301E+01 -0.38190385336E+02  0.60525374574E+02  0.71755369748E+02  0.00000000000E+00 0.  1.
         14    1    6    6    0    0  0.14529626761E+02 -0.23768539515E+02 -0.21417271996E+02  0.35139053263E+02  0.00000000000E+00 0. -1.
         -5    1    3    3    0  503  0.35409556271E+02  0.67342320861E+02  0.37983557881E+02  0.85168453805E+02  0.47000000000E+01 0.  1.
         13    1    4    4    0    0 -0.63297580745E+02 -0.20078971518E+02  0.66008983798E+02  0.93631911053E+02  0.00000000000E+00 0. -1.
        -14    1    4    4    0    0 -0.30231372414E+02  0.53878362943E+02  0.52269077938E+02  0.80925091164E+02  0.00000000000E+00 0.  1.
</event>
<event>
12    1  0.8313893E-002  0.1828272E+03  0.7818608E-02  0.1165845E+00
         21   -1    0    0  501  502  0.00000000000E+00  0.00000000000E+00  0.16743073684E+03  0.16743073684E+03  0.00000000000E+00 0.  1.
         21   -1    0    0  502  503 -0.00000000000E+00 -0.00000000000E+00 -0.33960873328E+03  0.33960873328E+03  0.00000000000E+00 0.  1.
         -6    2    1    2    0  503  0.39218775473E+02  0.31533408249E+02 -0.25124401675E+03  0.31072391866E+03  0.17576498368E+03 0.  0.
        -24    2    3    3    0    0  0.29574556786E+02 -0.42856436552E+02 -0.81532142725E+02  0.12511392392E+03  0.79338988509E+02 0.  0.
          6    2    1    2  501    0 -0.39218775473E+02 -0.31533408249E+02  0.79066020301E+02  0.19631555147E+03  0.17249896230E+03 0.  0.
         24    2    5    5    0    0 -0.56703159970E+02  0.37695929817E+02  0.64826881831E+02  0.12335495926E+03  0.79860440089E+02 0.  0.
          5    1    5    5  501    0  0.17484384497E+02 -0.69229338067E+02  0.14239138471E+02  0.72960592204E+02  0.47000000000E+01 0. -1.
        -11    1    6    6    0    0 -0.32285956019E+02  0.51087692099E+02  0.72580561266E+02  0.94447197490E+02  0.00000000000E+00 0.  1.
         12    1    6    6    0    0 -0.24417203951E+02 -0.13391762282E+02 -0.77536794356E+01  0.28907761771E+02  0.00000000000E+00 0. -1.
         -5    1    3    3    0  503  0.96442186871E+01  0.74389844801E+02 -0.16971187402E+03  0.18560999474E+03  0.47000000000E+01 0.  1.
         11    1    4    4    0    0  0.30189644622E+02 -0.10719451061E+02  0.53470228887E+01  0.32479407741E+02  0.00000000000E+00 0. -1.
        -12    1    4    4    0    0 -0.61508783586E+00 -0.32136985490E+02 -0.86879165614E+02  0.92634516176E+02  0.00000000000E+00 0.  1.
</event>
<event>
12    1  0.8313893E-002  0.1822406E+03  0.7818608E-02  0.1167245E+00
         21   -1    0    0  501  502  0.00000000000E+00  0.00000000000E+00  0.22668930191E+03  0.22668930191E+03  0.00000000000E+00 0. -1.
         21   -1    0    0  502  503 -0.00000000000E+00 -0.00000000000E+00 -0.15634443661E+03  0.15634443661E+03  0.00000000000E+00 0. -1.
         -6    2    1    2    0  503 -0.32806458443E+02  0.17554153554E+02 -0.24851645042E+02  0.17742727317E+03  0.17169280993E+03 0.  0.
        -24    2    3    3    0    0 -0.87984200209E+01 -0.47748382408E+02 -0.46672179308E+02  0.10435858748E+03  0.79718895144E+02 0.  0.
          6    2    1    2  501    0  0.32806458443E+02 -0.17554153554E+02  0.95196510335E+02  0.20560646535E+03  0.17840188057E+03 0.  0.
         24    2    5    5    0    0  0.13100955833E+02  0.59792930178E+02  0.34601095783E+02  0.10528312580E+03  0.78361158777E+02 0.  0.
          5    1    5    5  501    0  0.19705502610E+02 -0.77347083732E+02  0.60595414552E+02  0.10032333956E+03  0.47000000000E+01 0. -1.
        -11    1    6    6    0    0  0.45208557188E+02  0.37685683270E+02  0.11497019454E+02  0.59968373522E+02  0.00000000000E+00 0.  1.
         12    1    6    6    0    0 -0.32107601355E+02  0.22107246908E+02  0.23104076330E+02  0.45314752274E+02  0.00000000000E+00 0. -1.
         -5    1    3    3    0  503 -0.24008038422E+02  0.65302535963E+02  0.21820534267E+02  0.73068685685E+02  0.47000000000E+01 0.  1.
         13    1    4    4    0    0 -0.63851606621E+01 -0.19526644394E+01 -0.56967850326E+02  0.57357816781E+02  0.00000000000E+00 0. -1.
        -14    1    4    4    0    0 -0.24132593588E+01 -0.45795717969E+02  0.10295671018E+02  0.47000770704E+02  0.00000000000E+00 0.  1.
</event>
<event>
12    1  0.8313893E-002  0.2078898E+03  0.7818608E-02  0.1143756E+00
         21   -1    0    0  503  502  0.00000000000E+00  0.00000000000E+00  0.88146043438E+03  0.88146043438E+03  0.00000000000E+00 0. -1.
         21   -1    0    0  501  503 -0.00000000000E+00 -0.00000000000E+00 -0.48639271683E+02  0.48639271683E+02  0.00000000000E+00 0. -1.
          6    2    1    2  501    0  0.20793364795E+02 -0.11137310175E+03  0.38904316573E+03  0.44110402240E+03  0.17430387821E+03 0.  0.
         24    2    3    3    0    0 -0.13787918877E+02 -0.13893326903E+03  0.27238740646E+03  0.31625978276E+03  0.79578835388E+02 0.  0.
         -6    2    1    2    0  502 -0.20793364795E+02  0.11137310175E+03  0.44377799697E+03  0.48899568367E+03  0.17129371336E+03 0.  0.
        -24    2    5    5    0    0 -0.38601309751E+02  0.67966241734E+02  0.12773231599E+03  0.16945188250E+03  0.79302741466E+02 0.  0.
          5    1    3    3  501    0  0.34581283672E+02  0.27560167274E+02  0.11665575927E+03  0.12484423964E+03  0.47000000000E+01 0. -1.
        -11    1    4    4    0    0 -0.35258658890E+02 -0.33109933916E+02  0.53086056517E+02  0.71816224819E+02  0.00000000000E+00 0.  1.
         12    1    4    4    0    0  0.21470740013E+02 -0.10582333511E+03  0.21930134994E+03  0.24444355794E+03  0.00000000000E+00 0. -1.
         -5    1    5    5    0  502  0.17807944956E+02  0.43406860021E+02  0.31604568098E+03  0.31954380117E+03  0.47000000000E+01 0.  1.
         11    1    6    6    0    0 -0.59220784804E+02  0.63132638220E+02  0.82834641630E+02  0.11980988780E+03  0.00000000000E+00 0. -1.
        -12    1    6    6    0    0  0.20619475052E+02  0.48336035138E+01  0.44897674361E+02  0.49641994696E+02  0.00000000000E+00 0.  1.
</event>
<event>
12    1  0.8313893E-002  0.1906719E+03  0.7818608E-02  0.1160363E+00
         21   -1    0    0  501  502  0.00000000000E+00  0.00000000000E+00  0.38479176788E+03  0.38479176788E+03  0.00000000000E+00 0. -1.
         21   -1    0    0  502  503 -0.00000000000E+00 -0.00000000000E+00 -0.14205929738E+04  0.14205929738E+04  0.00000000000E+00 0. -1.
         -6    2    1    2    0  503 -0.73560209087E+01  0.53500718132E+02 -0.13927214041E+04  0.14057128751E+04  0.18286426609E+03 0.  0.
        -24    2    3    3    0    0  0.33527954289E+02 -0.35231432245E+02 -0.61870613103E+03  0.62554197912E+03  0.78358876537E+02 0.  0.
          6    2    1    2  501    0  0.73560209087E+01 -0.53500718132E+02  0.35692019812E+03  0.39967186667E+03  0.17154922121E+03 0.  0.
         24    2    5    5    0    0  0.42693573167E+01 -0.10976727073E+02  0.60879483514E+02  0.10053976874E+03  0.79140493023E+02 0.  0.
          5    1    5    5  501    0  0.30866635920E+01 -0.42523991059E+02  0.29604071461E+03  0.29913209793E+03  0.47000000000E+01 0. -1.
        -11    1    6    6    0    0  0.41675453498E+02 -0.60670499492E+01  0.28831334793E+02  0.51038205153E+02  0.00000000000E+00 0.  1.
         12    1    6    6    0    0 -0.37406096181E+02 -0.49096771236E+01  0.32048148721E+02  0.49501563585E+02  0.00000000000E+00 0. -1.
         -5    1    3    3    0  503 -0.40883975198E+02  0.88732150377E+02 -0.77401527306E+03  0.78017089593E+03  0.47000000000E+01 0.  1.
         13    1    4    4    0    0  0.40411264504E+01  0.17658284940E+02 -0.42998535497E+02  0.46658544607E+02  0.00000000000E+00 0. -1.
        -14    1    4    4    0    0  0.29486827839E+02 -0.52889717185E+02 -0.57570759553E+03  0.57888343451E+03  0.00000000000E+00 0.  1.
</event>
<event>
12    1  0.8313893E-002  0.2032628E+03  0.7818608E-02  0.1147082E+00
         21   -1    0    0  503  502  0.00000000000E+00  0.00000000000E+00  0.56113225132E+03  0.56113225132E+03  0.00000000000E+00 0.  1.
         21   -1    0    0  501  503 -0.00000000000E+00 -0.00000000000E+00 -0.99823806693E+02  0.99823806693E+02  0.00000000000E+00 0. -1.
          6    2    1    2  501    0  0.10151880426E+03 -0.32890796621E+02  0.61121228755E+02  0.21225358244E+03  0.17299683966E+03 0.  0.
         24    2    3    3    0    0  0.11176029344E+03 -0.13864033153E+02  0.99217095217E+02  0.16820484954E+03  0.75935925749E+02 0.  0.
         -6    2    1    2    0  502 -0.10151880426E+03  0.32890796621E+02  0.40018721588E+03  0.44870247558E+03  0.17261585014E+03 0.  0.
        -24    2    5    5    0    0  0.14511975156E+02 -0.13838481481E+01  0.18142659550E+03  0.19867009352E+03  0.79634691242E+02 0.  0.
          5    1    3    3  501    0 -0.10241489178E+02 -0.19026763468E+02 -0.38095866462E+02  0.44048732901E+02  0.47000000000E+01 0. -1.
        -11    1    4    4    0    0  0.86032353312E+01  0.22277705632E+02  0.31844855076E+02  0.39804605528E+02  0.00000000000E+00 0.  1.
         12    1    4    4    0    0  0.10315705811E+03 -0.36141738785E+02  0.67372240141E+02  0.12840024401E+03  0.00000000000E+00 0. -1.
         -5    1    5    5    0  502 -0.11603077942E+03  0.34274644769E+02  0.21876062038E+03  0.25003238205E+03  0.47000000000E+01 0.  1.
         13    1    6    6    0    0  0.51626954432E+01 -0.36515567503E+02  0.48899171655E+02  0.61246788348E+02  0.00000000000E+00 0. -1.
        -14    1    6    6    0    0  0.93492797130E+01  0.35131719355E+02  0.13252742384E+03  0.13742330518E+03  0.00000000000E+00 0.  1.
</event>
<event>
12    1  0.8313893E-002  0.2557603E+03  0.7818608E-02  0.1109974E+00
         21   -1    0    0  503  502  0.00000000000E+00  0.00000000000E+00  0.11337667107E+04  0.11337667107E+04  0.00000000000E+00 0. -1.
         21   -1    0    0  501  503 -0.00000000000E+00 -0.00000000000E+00 -0.11701640718E+03  0.11701640718E+03  0.00000000000E+00 0. -1.
          6    2    1    2  501    0 -0.46198207659E+02  0.18323505318E+03  0.62504710851E+02  0.26328726867E+03  0.17234844896E+03 0.  0.
         24    2    3    3    0    0 -0.59295952783E+02  0.20584794703E+03  0.68757794672E+02  0.23600934806E+03  0.71297901299E+02 0.  0.
         -6    2    1    2    0  502  0.46198207659E+02 -0.18323505318E+03  0.95424559268E+03  0.98749584922E+03  0.16986477554E+03 0.  0.
        -24    2    5    5    0    0  0.79010671179E+02 -0.18884919174E+03  0.79806616938E+03  0.82773891330E+03  0.79595191359E+02 0.  0.
          5    1    3    3  501    0  0.13097745123E+02 -0.22612893850E+02 -0.62530838206E+01  0.27277920611E+02  0.47000000000E+01 0. -1.
        -13    1    4    4    0    0 -0.24945515073E+02  0.98930528553E+02  0.69949367028E+02  0.12370304018E+03  0.00000000000E+00 0.  1.
         14    1    4    4    0    0 -0.34350437710E+02  0.10691741847E+03 -0.11915723560E+01  0.11230630788E+03  0.00000000000E+00 0. -1.
         -5    1    5    5    0  502 -0.32812463519E+02  0.56141385624E+01  0.15617942330E+03  0.15975693592E+03  0.47000000000E+01 0. -1.
         11    1    6    6    0    0  0.52423779875E+02 -0.12996488422E+03  0.38628319021E+03  0.41091827273E+03  0.00000000000E+00 0. -1.
        -12    1    6    6    0    0  0.26586891304E+02 -0.58884307516E+02  0.41178297918E+03  0.41682064056E+03  0.00000000000E+00 0.  1.
</event>
<event>
12    1  0.8313893E-002  0.2181252E+03  0.7818608E-02  0.1135447E+00
         21   -1    0    0  501  502  0.00000000000E+00  0.00000000000E+00  0.75778173143E+02  0.75778173143E+02  0.00000000000E+00 0. -1.
         21   -1    0    0  502  503 -0.00000000000E+00 -0.00000000000E+00 -0.80869738986E+03  0.80869738986E+03  0.00000000000E+00 0. -1.
         -6    2    1    2    0  503 -0.78584844625E+01  0.13299813303E+03 -0.57752307539E+03  0.61734228758E+03  0.17270882505E+03 0.  0.
        -24    2    3    3    0    0 -0.26943107306E+02  0.13954832787E+03 -0.57477942344E+03  0.59644383051E+03  0.71931846262E+02 0.  0.
          6    2    1    2  501    0  0.78584844625E+01 -0.13299813303E+03 -0.15539614132E+03  0.26713327543E+03  0.17164488613E+03 0.  0.
         24    2    5    5    0    0 -0.31027354858E+02 -0.15226348210E+03 -0.13022149468E+03  0.21674364348E+03  0.76637488099E+02 0.  0.
          5    1    5    5  501    0  0.38885839320E+02  0.19265349065E+02 -0.25174646638E+02  0.50389631945E+02  0.47000000000E+01 0. -1.
        -13    1    6    6    0    0  0.17257534768E+02 -0.64838355862E+02 -0.81664090734E+02  0.10569228265E+03  0.00000000000E+00 0.  1.
         14    1    6    6    0    0 -0.48284889625E+02 -0.87425126234E+02 -0.48557403950E+02  0.11105136083E+03  0.00000000000E+00 0. -1.
         -5    1    3    3    0  503  0.19084622844E+02 -0.65501948403E+01 -0.27436519556E+01  0.20898457062E+02  0.47000000000E+01 0.  1.
         13    1    4    4    0    0  0.49122999406E+01  0.50417701987E+02 -0.33241264057E+03  0.33625026241E+03  0.00000000000E+00 0. -1.
        -14    1    4    4    0    0 -0.31855407247E+02  0.89130625884E+02 -0.24236678287E+03  0.26019356810E+03  0.00000000000E+00 0.  1.
</event>
<event>
12    1  0.8313893E-002  0.1838748E+03  0.7818608E-02  0.1164569E+00
         21   -1    0    0  503  502  0.00000000000E+00  0.00000000000E+00  0.21729479473E+03  0.21729479473E+03  0.00000000000E+00 0. -1.
         21   -1    0    0  501  503 -0.00000000000E+00 -0.00000000000E+00 -0.28292553064E+03  0.28292553064E+03  0.00000000000E+00 0. -1.
          6    2    1    2  501    0  0.54252192579E+01 -0.59521576647E+02 -0.20178463154E+03  0.27299630038E+03  0.17388988298E+03 0.  0.
         24    2    3    3    0    0 -0.13164255742E+02 -0.10320387305E+03 -0.13217874339E+03  0.18861157863E+03  0.85315709848E+02 0.  0.
         -6    2    1    2    0  502 -0.54252192579E+01  0.59521576647E+02  0.13615389564E+03  0.22722402499E+03  0.17181566618E+03 0.  0.
        -24    2    5    5    0    0 -0.17122363320E+02  0.42332098758E+02  0.16651409517E+03  0.19012775773E+03  0.79601749104E+02 0.  0.
          5    1    3    3  501    0  0.18589475000E+02  0.43682296398E+02 -0.69605888150E+02  0.84384721749E+02  0.47000000000E+01 0. -1.
        -13    1    4    4    0    0  0.34265635889E+02 -0.28656497828E+02 -0.58251098292E+02  0.73406533244E+02  0.00000000000E+00 0.  1.
         14    1    4    4    0    0 -0.47429891630E+02 -0.74547375217E+02 -0.73927645100E+02  0.11520504538E+03  0.00000000000E+00 0. -1.
         -5    1    5    5    0  502  0.11697144062E+02  0.17189477889E+02 -0.30360199527E+02  0.37096267260E+02  0.47000000000E+01 0.  1.
         13    1    6    6    0    0  0.12254695527E+02 -0.61308029798E+00  0.11910872637E+03  0.11973905849E+03  0.00000000000E+00 0. -1.
        -14    1    6    6    0    0 -0.29377058847E+02  0.42945179056E+02  0.47405368796E+02  0.70388699244E+02  0.00000000000E+00 0.  1.
</event>
<event>
12    1  0.8313893E-002  0.1965804E+03  0.7818608E-02  0.1152671E+00
         21   -1    0    0  501  502  0.00000000000E+00  0.00000000000E+00  0.84003450197E+02  0.84003450197E+02  0.00000000000E+00 0. -1.
         21   -1    0    0  502  503 -0.00000000000E+00 -0.00000000000E+00 -0.86294640754E+03  0.86294640754E+03  0.00000000000E+00 0.  1.
         -6    2    1    2    0  503  0.78287253078E+02 -0.55025315395E+02 -0.71302906788E+03  0.73961320878E+03  0.17164080990E+03 0.  0.
        -24    2    3    3    0    0 -0.24541689905E+02 -0.11612396503E+02 -0.34692589601E+03  0.35684422428E+03  0.79013168395E+02 0.  0.
          6    2    1    2  501    0 -0.78287253078E+02  0.55025315395E+02 -0.65913889463E+02  0.20733664896E+03  0.17171827465E+03 0.  0.
         24    2    5    5    0    0  0.25501045388E+02  0.25153150800E+02 -0.42531001144E+02  0.96732821804E+02  0.79154080405E+02 0.  0.
          5    1    5    5  501    0 -0.10378829847E+03  0.29872164595E+02 -0.23382888319E+02  0.11060382716E+03  0.47000000000E+01 0. -1.
        -13    1    6    6    0    0  0.39071673004E+02  0.24861411156E+02 -0.59247490097E+02  0.75199404777E+02  0.00000000000E+00 0.  1.
         14    1    6    6    0    0 -0.13570627616E+02  0.29173964439E+00  0.16716488953E+02  0.21533417027E+02  0.00000000000E+00 0. -1.
         -5    1    3    3    0  503  0.10282894298E+03 -0.43412918892E+02 -0.36610317187E+03  0.38276898450E+03  0.47000000000E+01 0.  1.
         13    1    4    4    0    0 -0.92680158217E+01 -0.42403725015E+02 -0.25570513659E+03  0.25936285179E+03  0.00000000000E+00 0. -1.
        -14    1    4    4    0    0 -0.15273674083E+02  0.30791328511E+02 -0.91220759426E+02  0.97481372486E+02  0.00000000000E+00 0.  1.
</event>
<event>
12    1  0.8313893E-002  0.2496869E+03  0.7818608E-02  0.1113534E+00
         21   -1    0    0  501  502  0.00000000000E+00  0.00000000000E+00  0.18837571152E+04  0.18837571152E+04  0.00000000000E+00 0. -1.
         21   -1    0    0  502  503 -0.00000000000E+00 -0.00000000000E+00 -0.34950257246E+02  0.34950257246E+02  0.00000000000E+00 0.  1.
         -6    2    1    2    0  503 -0.17594483782E+03 -0.43483271605E+02  0.11466129576E+04  0.11734424296E+04  0.17145985020E+03 0.  0.
        -24    2    3    3    0    0 -0.19720024685E+03 -0.28657821412E+02  0.10863201967E+04  0.11076481031E+04  0.84163783421E+02 0.  0.
          6    2    1    2  501    0  0.17594483782E+03  0.43483271605E+02  0.70219390034E+03  0.74526494281E+03  0.17174452085E+03 0.  0.
         24    2    5    5    0    0  0.10135403778E+03  0.10164346492E+02  0.21433429834E+03  0.25059028257E+03  0.80500579866E+02 0.  0.
          5    1    5    5  501    0  0.74590800037E+02  0.33318925112E+02  0.48785960200E+03  0.49467466024E+03  0.47000000000E+01 0. -1.
        -13    1    6    6    0    0 -0.68855519118E+01  0.18826367448E+02  0.22327956209E+02  0.30006342078E+02  0.00000000000E+00 0.  1.
         14    1    6    6    0    0  0.10823958970E+03 -0.86620209557E+01  0.19200634213E+03  0.22058394049E+03  0.00000000000E+00 0. -1.
         -5    1    3    3    0  503  0.21255409028E+02 -0.14825450192E+02  0.60292760896E+02  0.65794326524E+02  0.47000000000E+01 0.  1.
         11    1    4    4    0    0 -0.16539567531E+03 -0.52600236655E+02  0.80279485010E+03  0.82134163759E+03  0.00000000000E+00 0. -1.
        -12    1    4    4    0    0 -0.31804571541E+02  0.23942415243E+02  0.28352534658E+03  0.28630646547E+03  0.00000000000E+00 0.  1.
</event>
<event>
12    1  0.8313893E-002  0.1989951E+03  0.7818608E-02  0.1151000E+00
         21   -1    0    0  503  502  0.00000000000E+00  0.00000000000E+00  0.12413731884E+03  0.12413731884E+03  0.00000000000E+00 0. -1.
         21   -1    0    0  501  503 -0.00000000000E+00 -0.00000000000E+00 -0.31614094887E+03  0.31614094887E+03  0.00000000000E+00 0. -1.
          6    2    1    2  501    0 -0.32404161777E+02  0.94539493050E+02 -0.90605467191E+02  0.21865135894E+03  0.17207940212E+03 0.  0.
         24    2    3    3    0    0  0.11648294608E+02  0.10778579437E+03 -0.23032454038E+02  0.13677165743E+03  0.80140701905E+02 0.  0.
         -6    2    1    2    0  502  0.32404161777E+02 -0.94539493050E+02 -0.10139816284E+03  0.22162690877E+03  0.16985038657E+03 0.  0.
        -24    2    5    5    0    0  0.50862028602E+02 -0.12131254063E+03 -0.10816090485E+03  0.18808121451E+03  0.79825330855E+02 0.  0.
          5    1    3    3  501    0 -0.44052456384E+02 -0.13246301324E+02 -0.67573013153E+02  0.81879701507E+02  0.47000000000E+01 0. -1.
        -13    1    4    4    0    0  0.40207850904E+02  0.25862576085E+02 -0.12199162852E+02  0.49339271279E+02  0.00000000000E+00 0.  1.
         14    1    4    4    0    0 -0.28559556296E+02  0.81923218289E+02 -0.10833291186E+02  0.87432386154E+02  0.00000000000E+00 0. -1.
         -5    1    5    5    0  502 -0.18457866825E+02  0.26773047579E+02  0.67627420011E+01  0.33545694266E+02  0.47000000000E+01 0.  1.
         13    1    6    6    0    0  0.23589290712E+02 -0.22622865926E+02  0.75800415525E+01  0.33551538399E+02  0.00000000000E+00 0. -1.
        -14    1    6    6    0    0  0.27272737890E+02 -0.98689674703E+02 -0.11574094640E+03  0.15452967611E+03  0.00000000000E+00 0.  1.
</event>
<event>
12    1  0.8313893E-002  0.2034250E+03  0.7818608E-02  0.1146941E+00
         21   -1    0    0  501  502  0.00000000000E+00  0.00000000000E+00  0.31064116079E+03  0.31064116079E+03  0.00000000000E+00 0. -1.
         21   -1    0    0  502  503 -0.00000000000E+00 -0.00000000000E+00 -0.19826388136E+03  0.19826388136E+03  0.00000000000E+00 0.  1.
         -6    2    1    2    0  503 -0.10062514133E+03  0.40214602823E+02 -0.89800766065E+02  0.22209904112E+03  0.17181726669E+03 0.  0.
        -24    2    3    3    0    0 -0.10129354452E+02 -0.29305463625E+02 -0.59149595198E+02  0.10384460629E+03  0.79521152051E+02 0.  0.
          6    2    1    2  501    0  0.10062514133E+03 -0.40214602823E+02  0.20217804549E+03  0.28680600103E+03  0.17216006158E+03 0.  0.
         24    2    5    5    0    0 -0.72885925930E+01 -0.59409598505E+01  0.41614702881E+02  0.90279327114E+02  0.79562270093E+02 0.  0.
          5    1    5    5  501    0  0.10791373392E+03 -0.34273642972E+02  0.16056334261E+03  0.19652667392E+03  0.47000000000E+01 0. -1.
        -11    1    6    6    0    0  0.22736175909E+02 -0.31448326920E+02  0.10853029931E+02  0.40295399486E+02  0.00000000000E+00 0.  1.
         12    1    6    6    0    0 -0.30024768502E+02  0.25507367069E+02  0.30761672950E+02  0.49983927628E+02  0.00000000000E+00 0. -1.
         -5    1    3    3    0  503 -0.90495786876E+02  0.69520066448E+02 -0.30651170868E+02  0.11825443483E+03  0.47000000000E+01 0.  1.
         13    1    4    4    0    0 -0.44641575502E+02 -0.20157013067E+02 -0.27740634477E+02  0.56291369145E+02  0.00000000000E+00 0. -1.
        -14    1    4    4    0    0  0.34512221049E+02 -0.91484505582E+01 -0.31408960720E+02  0.47553237144E+02  0.00000000000E+00 0.  1.
</event>
<event>
12    1  0.8313893E-002  0.1954347E+03  0.7818608E-02  0.1153679E+00
         21   -1    0    0  503  502  0.00000000000E+00  0.00000000000E+00  0.20489871226E+03  0.20489871226E+03  0.00000000000E+00 0.  1.
         21   -1    0    0  501  503 -0.00000000000E+00 -0.00000000000E+00 -0.20083270920E+03  0.20083270920E+03  0.00000000000E+00 0. -1.
          6    2    1    2  501    0  0.80890862702E+02 -0.43761734197E+02  0.56647882282E+02  0.20334671952E+03  0.17228605493E+03 0.  0.
         24    2    3    3    0    0  0.62595474873E+02  0.39032042971E+02  0.32134386631E+02  0.11495818959E+03  0.82104035811E+02 0.  0.
         -6    2    1    2    0  502 -0.80890862702E+02  0.43761734197E+02 -0.52581879221E+02  0.20238470195E+03  0.17244214251E+03 0.  0.
        -24    2    5    5    0    0 -0.50152620238E+02  0.38504218262E+02 -0.10115329158E+03  0.14447310448E+03  0.81502327440E+02 0.  0.
          5    1    3    3  501    0  0.18295387829E+02 -0.82793777167E+02  0.24513495651E+02  0.88388529926E+02  0.47000000000E+01 0. -1.
        -13    1    4    4    0    0  0.38649790080E+02 -0.68986609438E+01  0.46835612896E+02  0.61114420814E+02  0.00000000000E+00 0.  1.
         14    1    4    4    0    0  0.23945684793E+02  0.45930703915E+02 -0.14701226265E+02  0.53843768776E+02  0.00000000000E+00 0. -1.
         -5    1    5    5    0  502 -0.30738242464E+02  0.52575159346E+01  0.48571412360E+02  0.57911597477E+02  0.47000000000E+01 0.  1.
         13    1    6    6    0    0 -0.24221255470E+02 -0.19848546008E+02 -0.62297254265E+02  0.69725044885E+02  0.00000000000E+00 0. -1.
        -14    1    6    6    0    0 -0.25931364767E+02  0.58352764270E+02 -0.38856037316E+02  0.74748059590E+02  0.00000000000E+00 0.  1.
</event>
<event>
12    1  0.8313893E-002  0.2029450E+03  0.7818608E-02  0.1148890E+00
         21   -1    0    0  501  502  0.00000000000E+00  0.00000000000E+00  0.55251813393E+02  0.55251813393E+02  0.00000000000E+00 0. -1.
         21   -1    0    0  502  503 -0.00000000000E+00 -0.00000000000E+00 -0.77213146801E+03  0.77213146801E+03  0.00000000000E+00 0. -1.
         -6    2    1    2    0  503  0.73162946315E+02  0.59724922684E+02 -0.47468382129E+03  0.51624743182E+03  0.17962961216E+03 0.  0.
        -24    2    3    3    0    0  0.79239818682E+02  0.83662313907E+02 -0.23083219257E+03  0.27110332338E+03  0.83277723223E+02 0.  0.
          6    2    1    2  501    0 -0.73162946315E+02 -0.59724922684E+02 -0.24219583333E+03  0.31113584959E+03  0.17095850991E+03 0.  0.
         24    2    5    5    0    0 -0.59110888073E+02 -0.49233503835E+02 -0.26186464903E+03  0.28436865845E+03  0.79839867905E+02 0.  0.
          5    1    5    5  501    0 -0.14052058243E+02 -0.10491418849E+02  0.19668815700E+02  0.26767191137E+02  0.47000000000E+01 0. -1.
        -11    1    6    6    0    0  0.56761872586E+01  0.16827206522E+02 -0.32331787864E+02  0.36887917909E+02  0.00000000000E+00 0.  1.
         12    1    6    6    0    0 -0.64787075331E+02 -0.66060710357E+02 -0.22953286117E+03  0.24748074054E+03  0.00000000000E+00 0. -1.
         -5    1    3    3    0  503 -0.60768723669E+01 -0.23937391223E+02 -0.24385162871E+03  0.24514410844E+03  0.47000000000E+01 0.  1.
         11    1    4    4    0    0  0.24828122164E+02  0.22862588759E+02 -0.15853855706E+03  0.16209135600E+03  0.00000000000E+00 0. -1.
        -12    1    4    4    0    0  0.54411696519E+02  0.60799725147E+02 -0.72293635513E+02  0.10901196738E+03  0.00000000000E+00 0.  1.
</event>
<event>
12    1  0.8313893E-002  0.2649322E+03  0.7818608E-02  0.1104676E+00
         21   -1    0    0  503  502  0.00000000000E+00  0.00000000000E+00  0.14657737714E+04  0.14657737714E+04  0.00000000000E+00 0.  1.
         21   -1    0    0  501  503 -0.00000000000E+00 -0.00000000000E+00 -0.93376583972E+02  0.93376583972E+02  0.00000000000E+00 0. -1.
          6    2    1    2  501    0  0.45002340634E+02  0.19168373700E+03  0.14078139474E+03  0.30001411109E+03  0.17726026079E+03 0.  0.
         24    2    3    3    0    0  0.56211800529E+02  0.53686293961E+02  0.14988399956E+02  0.11289138715E+03  0.80484958111E+02 0.  0.
         -6    2    1    2    0  502 -0.45002340634E+02 -0.19168373700E+03  0.12316157927E+04  0.12591362443E+04  0.17256522005E+03 0.  0.
        -24    2    5    5    0    0 -0.11178539000E+01 -0.14928777605E+02  0.32178382739E+03  0.33124376186E+03  0.77158798633E+02 0.  0.
          5    1    3    3  501    0 -0.11209459895E+02  0.13799744304E+03  0.12579299478E+03  0.18712272393E+03  0.47000000000E+01 0. -1.
        -11    1    4    4    0    0  0.49391874645E+02  0.58436198678E+02  0.40139089246E+02  0.86403084912E+02  0.00000000000E+00 0.  1.
         12    1    4    4    0    0  0.68199258841E+01 -0.47499047164E+01 -0.25150689290E+02  0.26488302241E+02  0.00000000000E+00 0. -1.
         -5    1    5    5    0  502 -0.43884486734E+02 -0.17675495940E+03  0.90983196534E+03  0.92789248246E+03  0.47000000000E+01 0.  1.
         13    1    6    6    0    0  0.26138359528E+02  0.12469190076E+02  0.60009676225E+02  0.66632242801E+02  0.00000000000E+00 0. -1.
        -14    1    6    6    0    0 -0.27256213428E+02 -0.27397967681E+02  0.26177415116E+03  0.26461151906E+03  0.00000000000E+00 0.  1.
</event>
<event>
12    1  0.8313893E-002  0.1795379E+03  0.7818608E-02  0.1169454E+00
         21   -1    0    0  501  502  0.00000000000E+00  0.00000000000E+00  0.28208770867E+03  0.28208770867E+03  0.00000000000E+00 0.  1.
         21   -1    0    0  502  503 -0.00000000000E+00 -0.00000000000E+00 -0.11118710270E+03  0.11118710270E+03  0.00000000000E+00 0.  1.
         -6    2    1    2    0  503  0.26915539785E+02  0.11257949517E+02  0.87818589213E+02  0.19986485443E+03  0.17715153885E+03 0.  0.
        -24    2    3    3    0    0  0.23026047791E+01  0.65866844893E+02  0.92407004889E+02  0.13960648089E+03  0.81284510873E+02 0.  0.
          6    2    1    2  501    0 -0.26915539785E+02 -0.11257949517E+02  0.83082016758E+02  0.19340995695E+03  0.17220221319E+03 0.  0.
         24    2    5    5    0    0 -0.78883168170E+02  0.12665690879E+02  0.77482611070E+02  0.13573484695E+03  0.77700834688E+02 0.  0.
          5    1    5    5  501    0  0.51967628386E+02 -0.23923640395E+02  0.55994056876E+01  0.57675110003E+02  0.47000000000E+01 0. -1.
        -11    1    6    6    0    0 -0.13105232791E+02 -0.67666102266E+01  0.64199831265E+02  0.65872243585E+02  0.00000000000E+00 0.  1.
         12    1    6    6    0    0 -0.65777935380E+02  0.19432301105E+02  0.13282779805E+02  0.69862603361E+02  0.00000000000E+00 0. -1.
         -5    1    3    3    0  503  0.24612935006E+02 -0.54608895377E+02 -0.45884156758E+01  0.60258373545E+02  0.47000000000E+01 0.  1.
         11    1    4    4    0    0 -0.14573105907E+02 -0.15544858118E+02  0.22403361940E+02  0.30918095930E+02  0.00000000000E+00 0. -1.
        -12    1    4    4    0    0  0.16875710686E+02  0.81411703011E+02  0.70003642948E+02  0.10868838496E+03  0.00000000000E+00 0.  1.
</event>
<event>
12    1  0.8313893E-002  0.2277978E+03  0.7818608E-02  0.1128366E+00
         21   -1    0    0  503  502  0.00000000000E+00  0.00000000000E+00  0.77364902783E+03  0.77364902783E+03  0.00000000000E+00 0.  1.
         21   -1    0    0  501  503 -0.00000000000E+00 -0.00000000000E+00 -0.18025286091E+03  0.18025286091E+03  0.00000000000E+00 0.  1.
          6    2    1    2  501    0  0.10120535709E+03 -0.10721626132E+03 -0.81466854754E+02  0.24192699073E+03  0.17364898337E+03 0.  0.
         24    2    3    3    0    0  0.25992584664E+02  0.83909192889E+01 -0.57375064050E+02  0.10183956901E+03  0.79582522314E+02 0.  0.
         -6    2    1    2    0  502 -0.10120535709E+03  0.10721626132E+03  0.67486302168E+03  0.71197489801E+03  0.17242478466E+03 0.  0.
        -24    2    5    5    0    0 -0.88024260130E+02  0.81553991118E+00  0.34112895763E+03  0.36141053824E+03  0.80620567715E+02 0.  0.
          5    1    3    3  501    0  0.75212772431E+02 -0.11560718061E+03 -0.24091790704E+02  0.14008742172E+03  0.47000000000E+01 0. -1.
        -11    1    4    4    0    0  0.41221584195E+02 -0.15026209442E+02 -0.72686854969E+01  0.44472910435E+02  0.00000000000E+00 0.  1.
         12    1    4    4    0    0 -0.15228999531E+02  0.23417128731E+02 -0.50106378553E+02  0.57366658578E+02  0.00000000000E+00 0. -1.
         -5    1    5    5    0  502 -0.13181096965E+02  0.10640072141E+03  0.33373406405E+03  0.35056435977E+03  0.47000000000E+01 0.  1.
         13    1    6    6    0    0  0.29429059836E+01 -0.24357127817E+02  0.83803106526E+02  0.87320622047E+02  0.00000000000E+00 0. -1.
        -14    1    6    6    0    0 -0.90967166113E+02  0.25172667729E+02  0.25732585110E+03  0.27408991619E+03  0.00000000000E+00 0.  1.
</event>
<event>
12    1  0.8313893E-002  0.1938017E+03  0.7818608E-02  0.1155087E+00
         21   -1    0    0  503  502  0.00000000000E+00  0.00000000000E+00  0.53620936685E+03  0.53620936685E+03  0.00000000000E+00 0.  1.
         21   -1    0    0  501  503 -0.00000000000E+00 -0.00000000000E+00 -0.87619196240E+02  0.87619196240E+02  0.00000000000E+00 0. -1.
          6    2    1    2  501    0  0.57515726682E+02 -0.68977221136E+02  0.84557585059E+02  0.21144521881E+03  0.17173578402E+03 0.  0.
         24    2    3    3    0    0  0.69648120101E+02 -0.52315431081E+02  0.12123627055E+03  0.16911052633E+03  0.79450436480E+02 0.  0.
         -6    2    1    2    0  502 -0.57515726682E+02  0.68977221136E+02  0.36403258555E+03  0.41238334428E+03  0.17168105151E+03 0.  0.
        -24    2    5    5    0    0 -0.10154964345E+03  0.70784714333E+02  0.30353692571E+03  0.33738955976E+03  0.79838862086E+02 0.  0.
          5    1    3    3  501    0 -0.12132393419E+02 -0.16661790055E+02 -0.36678685488E+02  0.42334692476E+02  0.47000000000E+01 0. -1.
        -11    1    4    4    0    0  0.31000936405E+02 -0.42969440189E+02  0.11784055734E+03  0.12920459668E+03  0.00000000000E+00 0.  1.
         12    1    4    4    0    0  0.38647183697E+02 -0.93459908925E+01  0.33957132077E+01  0.39905929655E+02  0.00000000000E+00 0. -1.
         -5    1    5    5    0  502  0.44033916764E+02 -0.18074931975E+01  0.60495659834E+02  0.74993784516E+02  0.47000000000E+01 0.  1.
         13    1    6    6    0    0 -0.25987599327E+02  0.16260598123E+02  0.14899963104E+02  0.34084765961E+02  0.00000000000E+00 0. -1.
        -14    1    6    6    0    0 -0.75562044119E+02  0.54524116211E+02  0.28863696261E+03  0.30330479380E+03  0.00000000000E+00 0.  1.
</event>
<event>
12    1  0.8313893E-002  0.1785908E+03  0.7818608E-02  0.1169419E+00
         21   -1    0    0  503  502  0.00000000000E+00  0.00000000000E+00  0.49600123450E+03  0.49600123450E+03  0.00000000000E+00 0. -1.
         21   -1    0    0  501  503 -0.00000000000E+00 -0.00000000000E+00 -0.11370338244E+03  0.11370338244E+03  0.00000000000E+00 0. -1.
          6    2    1    2  501    0  0.33121951764E+02  0.29634491653E+02 -0.10217930796E+02  0.17888288073E+03  0.17297228716E+03 0.  0.
         24    2    3    3    0    0  0.26915474925E+02  0.47613231903E+02  0.55013108428E+02  0.11077316091E+03  0.79074575162E+02 0.  0.
         -6    2    1    2    0  502 -0.33121951764E+02 -0.29634491653E+02  0.39251578286E+03  0.43082173620E+03  0.17194028559E+03 0.  0.
        -24    2    5    5    0    0 -0.29175146580E+02  0.49153455328E+02  0.22651950866E+03  0.24697405221E+03  0.80111443090E+02 0.  0.
          5    1    3    3  501    0  0.62064768387E+01 -0.17978740250E+02 -0.65231039223E+02  0.68109719819E+02  0.47000000000E+01 0. -1.
        -11    1    4    4    0    0  0.48069004107E+02  0.48866227706E+01  0.30822181320E+02  0.57310689223E+02  0.00000000000E+00 0.  1.
         12    1    4    4    0    0 -0.21153529182E+02  0.42726609132E+02  0.24190927108E+02  0.53462471689E+02  0.00000000000E+00 0. -1.
         -5    1    5    5    0  502 -0.39468051836E+01 -0.78787946981E+02  0.16599627420E+03  0.18384768399E+03  0.47000000000E+01 0.  1.
         11    1    6    6    0    0  0.31205167393E+01  0.25550505313E+02  0.19321807319E+03  0.19492508755E+03  0.00000000000E+00 0. -1.
        -12    1    6    6    0    0 -0.32295663320E+02  0.23602950015E+02  0.33301435468E+02  0.52048964667E+02  0.00000000000E+00 0.  1.
</event>
<event>
12    1  0.8313893E-002  0.2622515E+03  0.7818608E-02  0.1105845E+00
         21   -1    0    0  501  502  0.00000000000E+00  0.00000000000E+00  0.24992076447E+03  0.24992076447E+03  0.00000000000E+00 0. -1.
         21   -1    0    0  502  503 -0.00000000000E+00 -0.00000000000E+00 -0.30075956084E+03  0.30075956084E+03  0.00000000000E+00 0.  1.
         -6    2    1    2    0  503 -0.16165495781E+03  0.11483059571E+03 -0.10620444296E+03  0.28264821890E+03  0.17114976147E+03 0.  0.
        -24    2    3    3    0    0 -0.11646519177E+02  0.67811598548E+02 -0.34425142663E+02  0.10976769454E+03  0.78293052116E+02 0.  0.
          6    2    1    2  501    0  0.16165495781E+03 -0.11483059571E+03  0.55365646593E+02  0.26803210640E+03  0.17163176904E+03 0.  0.
         24    2    5    5    0    0  0.12146476956E+03 -0.14776796086E+03  0.25851541012E+02  0.20808801843E+03  0.77738412248E+02 0.  0.
          5    1    5    5  501    0  0.40190188253E+02  0.32937365154E+02  0.29514105580E+02  0.59944087976E+02  0.47000000000E+01 0. -1.
        -11    1    6    6    0    0  0.87040825492E+02 -0.58198571670E+02 -0.11036486343E+02  0.10528524625E+03  0.00000000000E+00 0.  1.
         12    1    6    6    0    0  0.34423944065E+02 -0.89569389192E+02  0.36888027355E+02  0.10280277218E+03  0.00000000000E+00 0. -1.
         -5    1    3    3    0  503 -0.15000843863E+03  0.47018997160E+02 -0.71779300295E+02  0.17288052437E+03  0.47000000000E+01 0.  1.
         13    1    4    4    0    0 -0.44932731566E+02  0.43023374927E+02 -0.15255608697E+02  0.64052281402E+02  0.00000000000E+00 0. -1.
        -14    1    4    4    0    0  0.33286212389E+02  0.24788223621E+02 -0.19169533966E+02  0.45715413134E+02  0.00000000000E+00 0.  1.
</event>
<event>
12    1  0.8313893E-002  0.3389292E+03  0.7818608E-02  0.1067373E+00
         21   -1    0    0  503  502  0.00000000000E+00  0.00000000000E+00  0.97878844830E+03  0.97878844830E+03  0.00000000000E+00 0.  1.
         21   -1    0    0  501  503 -0.00000000000E+00 -0.00000000000E+00 -0.15829834246E+03  0.15829834246E+03  0.00000000000E+00 0.  1.
          6    2    1    2  501    0 -0.77436450446E+02  0.28056167435E+03  0.11926126663E+03  0.35824475627E+03  0.17147827473E+03 0.  0.
         24    2    3    3    0    0 -0.43508328895E+02  0.88804715207E+02  0.99245073232E+02  0.16242701752E+03  0.82180893962E+02 0.  0.
         -6    2    1    2    0  502  0.77436450446E+02 -0.28056167435E+03  0.70122883921E+03  0.77884203449E+03  0.17367145066E+03 0.  0.
        -24    2    5    5    0    0  0.18232932858E+02 -0.20541720529E+03  0.60029815359E+03  0.63969879526E+03  0.79548773584E+02 0.  0.
          5    1    3    3  501    0 -0.33928121552E+02  0.19175695914E+03  0.20016193396E+02  0.19581773875E+03  0.47000000000E+01 0. -1.
        -11    1    4    4    0    0 -0.54204057458E+02  0.85047017318E+02  0.51279619415E+02  0.11314006526E+03  0.00000000000E+00 0.  1.
         12    1    4    4    0    0  0.10695728564E+02  0.37576978893E+01  0.47965453817E+02  0.49286952257E+02  0.00000000000E+00 0. -1.
         -5    1    5    5    0  502  0.59203517588E+02 -0.75144469054E+02  0.10093068562E+03  0.13914323923E+03  0.47000000000E+01 0.  1.
         11    1    6    6    0    0 -0.30889966045E+02 -0.61584254069E+02  0.19824653347E+03  0.20987734129E+03  0.00000000000E+00 0. -1.
        -12    1    6    6    0    0  0.49122898903E+02 -0.14383295123E+03  0.40205162011E+03  0.42982145397E+03  0.00000000000E+00 0.  1.
</event>
<event>
12    1  0.8313893E-002  0.1741984E+03  0.7818608E-02  0.1173587E+00
         21   -1    0    0  501  502  0.00000000000E+00  0.00000000000E+00  0.34420670715E+03  0.34420670715E+03  0.00000000000E+00 0.  1.
         21   -1    0    0  502  503 -0.00000000000E+00 -0.00000000000E+00 -0.12134304831E+03  0.12134304831E+03  0.00000000000E+00 0.  1.
         -6    2    1    2    0  503 -0.15836296111E+02  0.85769444126E+01 -0.10518836515E+02  0.17432392530E+03  0.17307175610E+03 0.  0.
        -24    2    3    3    0    0 -0.77465464077E+02  0.90735378364E+01 -0.62616343873E+01  0.11236737021E+03  0.80647322387E+02 0.  0.
          6    2    1    2  501    0  0.15836296111E+02 -0.85769444126E+01  0.23338249535E+03  0.29122583016E+03  0.17326494961E+03 0.  0.
         24    2    5    5    0    0  0.50154095229E+01  0.55334883809E+02  0.80846529148E+02  0.12542135386E+03  0.78148902942E+02 0.  0.
          5    1    5    5  501    0  0.10820886588E+02 -0.63911828221E+02  0.15253596620E+03  0.16580447629E+03  0.47000000000E+01 0. -1.
        -11    1    6    6    0    0 -0.33083095136E+02  0.36416233739E+02  0.24904996000E+02  0.55144284285E+02  0.00000000000E+00 0.  1.
         12    1    6    6    0    0  0.38098504659E+02  0.18918650070E+02  0.55941533149E+02  0.70277069580E+02  0.00000000000E+00 0. -1.
         -5    1    3    3    0  503  0.61629167966E+02 -0.49659342380E+00 -0.42572021272E+01  0.61956555095E+02  0.47000000000E+01 0.  1.
         13    1    4    4    0    0  0.14110978365E+02  0.54021284546E+01  0.11530017948E+02  0.19006420393E+02  0.00000000000E+00 0. -1.
        -14    1    4    4    0    0 -0.91576442443E+02  0.36714093818E+01 -0.17791652335E+02  0.93360949814E+02  0.00000000000E+00 0.  1.
</event>
<event>
12    1  0.8313893E-002  0.2479645E+03  0.7818608E-02  0.1115664E+00
         21   -1    0    0  501  502  0.00000000000E+00  0.00000000000E+00  0.60140365217E+03  0.60140365217E+03  0.00000000000E+00 0. -1.
         21   -1    0    0  502  503 -0.00000000000E+00 -0.00000000000E+00 -0.11092227114E+03  0.11092227114E+03  0.00000000000E+00 0.  1.
         -6    2    1    2    0  503  0.13983244487E+03 -0.93834881398E+02  0.12821010794E+03  0.27331922442E+03  0.17293776065E+03 0.  0.
        -24    2    3    3    0    0  0.43295540588E+02 -0.21093821313E+02 -0.54124717358E+01  0.93075723822E+02  0.79462836486E+02 0.  0.
          6    2    1    2  501    0 -0.13983244487E+03  0.93834881398E+02  0.36227127310E+03  0.43900669889E+03  0.18201183686E+03 0.  0.
         24    2    5    5    0    0 -0.81570512789E+02  0.10839950005E+03  0.14316820990E+03  0.21177372781E+03  0.77115337617E+02 0.  0.
          5    1    5    5  501    0 -0.58261932078E+02 -0.14564618652E+02  0.21910306319E+03  0.22723297108E+03  0.47000000000E+01 0. -1.
        -13    1    6    6    0    0 -0.68904156038E+02  0.88261453569E+02  0.14984912214E+03  0.18706316129E+03  0.00000000000E+00 0.  1.
         14    1    6    6    0    0 -0.12666356751E+02  0.20138046481E+02 -0.66809122372E+01  0.24710566519E+02  0.00000000000E+00 0. -1.
         -5    1    3    3    0  503  0.96536904278E+02 -0.72741060086E+02  0.13362257968E+03  0.18024350060E+03  0.47000000000E+01 0.  1.
         11    1    4    4    0    0 -0.99223600524E+01  0.93357448865E+01  0.22036344946E+02  0.25907718158E+02  0.00000000000E+00 0. -1.
        -12    1    4    4    0    0  0.53217900640E+02 -0.30429566199E+02 -0.27448816682E+02  0.67168005664E+02  0.00000000000E+00 0.  1.
</event>
<event>
12    1  0.8313893E-002  0.2612895E+03  0.7818608E-02  0.1107095E+00
         21   -1    0    0  503  502  0.00000000000E+00  0.00000000000E+00  0.26706450588E+03  0.26706450588E+03  0.00000000000E+00 0. -1.
         21   -1    0    0  501  503 -0.00000000000E+00 -0.00000000000E+00 -0.59369461171E+03  0.59369461171E+03  0.00000000000E+00 0.  1.
          6    2    1    2  501    0  0.15535298423E+03 -0.12079332439E+03 -0.48966998197E+03  0.55277504052E+03  0.16449309179E+03 0.  0.
         24    2    3    3    0    0  0.89615531359E+02 -0.24479906843E+02 -0.21868214724E+03  0.25772558079E+03  0.99851811068E+02 0.  0.
         -6    2    1    2    0  502 -0.15535298423E+03  0.12079332439E+03  0.16303987615E+03  0.30798407707E+03  0.17189128422E+03 0.  0.
        -24    2    5    5    0    0 -0.71740072401E+02  0.30807567942E+02  0.14488193293E+03  0.18372484687E+03  0.81659663479E+02 0.  0.
          5    1    3    3  501    0  0.65737452867E+02 -0.96313417546E+02 -0.27098783473E+03  0.29504945972E+03  0.47000000000E+01 0. -1.
        -11    1    4    4    0    0  0.89749879445E+02 -0.32912907032E+02 -0.22673582293E+03  0.24606388136E+03  0.00000000000E+00 0.  1.
         12    1    4    4    0    0 -0.13434808573E+00  0.84330001890E+01  0.80536756889E+01  0.11661699434E+02  0.00000000000E+00 0. -1.
         -5    1    5    5    0  502 -0.83612911825E+02  0.89985756447E+02  0.18157943225E+02  0.12425923020E+03  0.47000000000E+01 0.  1.
         13    1    6    6    0    0  0.15951510169E+02  0.24104675517E+01  0.63661553551E+01  0.17343268564E+02  0.00000000000E+00 0. -1.
        -14    1    6    6    0    0 -0.87691582571E+02  0.28397100390E+02  0.13851577757E+03  0.16638157831E+03  0.00000000000E+00 0.  1.
</event>
<event>
12    1  0.8313893E-002  0.2620642E+03  0.7818608E-02  0.1105961E+00
         21   -1    0    0  503  502  0.00000000000E+00  0.00000000000E+00  0.21661471150E+03  0.21661471150E+03  0.00000000000E+00 0.  1.
         21   -1    0    0  501  503 -0.00000000000E+00 -0.00000000000E+00 -0.36492449918E+03  0.36492449918E+03  0.00000000000E+00 0.  1.
          6    2    1    2  501    0 -0.17947274288E+03  0.82400704047E+02  0.31665698453E+02  0.26362597215E+03  0.17174281723E+03 0.  0.
         24    2    3    3    0    0 -0.95623443345E+02  0.40547969650E+01  0.69263881192E+02  0.14277689465E+03  0.80171516837E+02 0.  0.
         -6    2    1    2    0  502  0.17947274288E+03 -0.82400704047E+02 -0.17997548614E+03  0.31791323854E+03  0.17227103692E+03 0.  0.
        -24    2    5    5    0    0  0.92568331609E+02 -0.79636674348E+02 -0.17841502165E+03  0.23082396476E+03  0.80851016312E+02 0.  0.
          5    1    3    3  501    0 -0.83849299530E+02  0.78345907082E+02 -0.37598182738E+02  0.12084907750E+03  0.47000000000E+01 0. -1.
        -11    1    4    4    0    0 -0.16194476293E+02  0.35074631448E+02  0.13652946813E+02  0.40974306465E+02  0.00000000000E+00 0.  1.
         12    1    4    4    0    0 -0.79428967052E+02 -0.31019834483E+02  0.55610934379E+02  0.10180258818E+03  0.00000000000E+00 0. -1.
         -5    1    5    5    0  502  0.86904411266E+02 -0.27640296984E+01 -0.15604644886E+01  0.87089273777E+02  0.47000000000E+01 0.  1.
         11    1    6    6    0    0  0.14550366963E+02 -0.22045126176E+02 -0.10747619740E+03  0.11067444951E+03  0.00000000000E+00 0. -1.
        -12    1    6    6    0    0  0.78017964646E+02 -0.57591548172E+02 -0.70938824247E+02  0.12014951525E+03  0.00000000000E+00 0.  1.
</event>
<event>
12    1  0.8313893E-002  0.2084389E+03  0.7818608E-02  0.1143089E+00
         21   -1    0    0  503  502  0.00000000000E+00  0.00000000000E+00  0.14260016055E+04  0.14260016055E+04  0.00000000000E+00 0. -1.
         21   -1    0    0  501  503 -0.00000000000E+00 -0.00000000000E+00 -0.32435624351E+02  0.32435624351E+02  0.00000000000E+00 0. -1.
          6    2    1    2  501    0 -0.77307509492E+02 -0.87788552485E+02  0.50589047918E+03  0.54661784752E+03  0.17082919342E+03 0.  0.
         24    2    3    3    0    0 -0.95560446367E+02 -0.11224495113E+03  0.47106558326E+03  0.50007594688E+03  0.80264817635E+02 0.  0.
         -6    2    1    2    0  502  0.77307509492E+02  0.87788552485E+02  0.88767550201E+03  0.91181938237E+03  0.17252103710E+03 0.  0.
        -24    2    5    5    0    0  0.58021439812E+02  0.11606328033E+03  0.83566487840E+03  0.84938055081E+03  0.79210848990E+02 0.  0.
          5    1    3    3  501    0  0.18252936875E+02  0.24456398643E+02  0.34824895925E+02  0.46541900641E+02  0.47000000000E+01 0. -1.
        -13    1    4    4    0    0 -0.43876290689E+02 -0.43987152265E+01  0.18163870890E+03  0.18691468148E+03  0.00000000000E+00 0.  1.
         14    1    4    4    0    0 -0.51684155678E+02 -0.10784623590E+03  0.28942687435E+03  0.31316126540E+03  0.00000000000E+00 0. -1.
         -5    1    5    5    0  502  0.19286069680E+02 -0.28274727844E+02  0.52010623609E+02  0.62438831560E+02  0.47000000000E+01 0.  1.
         13    1    6    6    0    0  0.10884696351E+02  0.56985480410E+02  0.57674424356E+03  0.57965484909E+03  0.00000000000E+00 0. -1.
        -14    1    6    6    0    0  0.47136743461E+02  0.59077799919E+02  0.25892063483E+03  0.26972570172E+03  0.00000000000E+00 0.  1.
</event>
<event>
12    1  0.8313893E-002  0.1733845E+03  0.7818608E-02  0.1174647E+00
         21   -1    0    0  503  502  0.00000000000E+00  0.00000000000E+00  0.45118850961E+03  0.45118850961E+03  0.00000000000E+00 0. -1.
         21   -1    0    0  501  503 -0.00000000000E+00 -0.00000000000E+00 -0.12897896668E+03  0.12897896668E+03  0.00000000000E+00 0. -1.
          6    2    1    2  501    0  0.27317205771E+01  0.11769723765E+02 -0.41007119431E+02  0.17816781519E+03  0.17296299555E+03 0.  0.
         24    2    3    3    0    0  0.68708071264E+02 -0.90029081188E+00 -0.38374195002E+01  0.10124522610E+03  0.74258066490E+02 0.  0.
         -6    2    1    2    0  502 -0.27317205771E+01 -0.11769723765E+02  0.36321666236E+03  0.40199966110E+03  0.17184701049E+03 0.  0.
        -24    2    5    5    0    0  0.48577293818E+02 -0.18183841246E+01  0.31353759020E+03  0.32973802308E+03  0.89767941943E+02 0.  0.
          5    1    3    3  501    0 -0.65976350687E+02  0.12670014577E+02 -0.37169699931E+02  0.76922589090E+02  0.47000000000E+01 0. -1.
        -13    1    4    4    0    0  0.50625733847E+02 -0.15118761173E+02 -0.34360208589E+02  0.63025120399E+02  0.00000000000E+00 0.  1.
         14    1    4    4    0    0  0.18082337417E+02  0.14218470361E+02  0.30522789089E+02  0.38220105699E+02  0.00000000000E+00 0. -1.
         -5    1    5    5    0  502 -0.51309014395E+02 -0.99513396406E+01  0.49679072167E+02  0.72261638026E+02  0.47000000000E+01 0.  1.
         11    1    6    6    0    0  0.69235069970E+02  0.14492167934E+02  0.17559826298E+03  0.18930997810E+03  0.00000000000E+00 0. -1.
        -12    1    6    6    0    0 -0.20657776153E+02 -0.16310552058E+02  0.13793932722E+03  0.14042804498E+03  0.00000000000E+00 0.  1.
</event>
<event>
12    1  0.8313893E-002  0.1844016E+03  0.7818608E-02  0.1163966E+00
         21   -1    0    0  503  502  0.00000000000E+00  0.00000000000E+00  0.54025941645E+03  0.54025941645E+03  0.00000000000E+00 0. -1.
         21   -1    0    0  501  503 -0.00000000000E+00 -0.00000000000E+00 -0.28703797610E+03  0.28703797610E+03  0.00000000000E+00 0. -1.
          6    2    1    2  501    0  0.64686021982E+02 -0.13328087242E+02 -0.23918988774E+03  0.30201948241E+03  0.17216865572E+03 0.  0.
         24    2    3    3    0    0  0.95972843004E+02 -0.26759381449E+02 -0.11227570601E+03  0.17053349701E+03  0.80925820061E+02 0.  0.
         -6    2    1    2    0  502 -0.64686021982E+02  0.13328087242E+02  0.49241132809E+03  0.52527791015E+03  0.17054632070E+03 0.  0.
        -24    2    5    5    0    0 -0.48940814045E+01  0.10581678473E+02  0.43521580707E+03  0.44235604003E+03  0.78295232754E+02 0.  0.
          5    1    3    3  501    0 -0.31286821022E+02  0.13431294207E+02 -0.12691418173E+03  0.13148598540E+03  0.47000000000E+01 0. -1.
        -13    1    4    4    0    0  0.60844592913E+02 -0.19898543440E+02 -0.11803909905E+03  0.13428047297E+03  0.00000000000E+00 0.  1.
         14    1    4    4    0    0  0.35128250091E+02 -0.68608380095E+01  0.57633930359E+01  0.36253024039E+02  0.00000000000E+00 0. -1.
         -5    1    5    5    0  502 -0.59791940578E+02  0.27464087690E+01  0.57195521020E+02  0.82921870118E+02  0.47000000000E+01 0.  1.
         11    1    6    6    0    0 -0.23120199759E+02 -0.28078353391E+02  0.20756991161E+03  0.21073254559E+03  0.00000000000E+00 0. -1.
        -12    1    6    6    0    0  0.18226118355E+02  0.38660031864E+02  0.22764589546E+03  0.23162349443E+03  0.00000000000E+00 0.  1.
</event>
<event>
12    1  0.8313893E-002  0.2084741E+03  0.7818608E-02  0.1144036E+00
         21   -1    0    0  503  502  0.00000000000E+00  0.00000000000E+00  0.69668306362E+02  0.69668306362E+02  0.00000000000E+00 0.  1.
         21   -1    0    0  501  503 -0.00000000000E+00 -0.00000000000E+00 -0.64010997391E+03  0.64010997391E+03  0.00000000000E+00 0. -1.
          6    2    1    2  501    0  0.10122998756E+03 -0.24809041990E+02 -0.36371249371E+03  0.41618264004E+03  0.17337304532E+03 0.  0.
         24    2    3    3    0    0 -0.39930905508E+01  0.20831163962E+02 -0.12186606005E+03  0.14847624856E+03  0.82121724468E+02 0.  0.
         -6    2    1    2    0  502 -0.10122998756E+03  0.24809041990E+02 -0.20672917384E+03  0.29359564023E+03  0.18055040764E+03 0.  0.
        -24    2    5    5    0    0 -0.71648859669E+02 -0.28236292715E+02 -0.39205383745E+02  0.11533975419E+03  0.76389459112E+02 0.  0.
          5    1    3    3  501    0  0.10522307811E+03 -0.45640205952E+02 -0.24184643366E+03  0.26770639148E+03  0.47000000000E+01 0. -1.
        -11    1    4    4    0    0 -0.33278548430E+01  0.29133198443E+01  0.12323982336E+02  0.13093608784E+02  0.00000000000E+00 0.  1.
         12    1    4    4    0    0 -0.66523570778E+00  0.17917844118E+02 -0.13419004239E+03  0.13538263977E+03  0.00000000000E+00 0. -1.
         -5    1    5    5    0  502 -0.29581127895E+02  0.53045334705E+02 -0.16752379009E+03  0.17825588604E+03  0.47000000000E+01 0.  1.
         13    1    6    6    0    0 -0.36762086071E+02  0.51436557342E+01 -0.53380516064E+02  0.65018364036E+02  0.00000000000E+00 0. -1.
        -14    1    6    6    0    0 -0.34886773599E+02 -0.33379948449E+02  0.14175132320E+02  0.50321390152E+02  0.00000000000E+00 0.  1.
</event>
<event>
12    1  0.8313893E-002  0.1854911E+03  0.7818608E-02  0.1164992E+00
         21   -1    0    0  503  502  0.00000000000E+00  0.00000000000E+00  0.14497063567E+03  0.14497063567E+03  0.00000000000E+00 0.  1.
         21   -1    0    0  501  503 -0.00000000000E+00 -0.00000000000E+00 -0.23852895318E+03  0.23852895318E+03  0.00000000000E+00 0.  1.
          6    2    1    2  501    0  0.34392919839E+02  0.89671201015E+00  0.59774275973E+00  0.17547963705E+03  0.17207285868E+03 0.  0.
         24    2    3    3    0    0 -0.19093359622E+02  0.22665913903E+02  0.49719917397E+02  0.99520712081E+02  0.80956790404E+02 0.  0.
         -6    2    1    2    0  502 -0.34392919839E+02 -0.89671201015E+00 -0.94156060268E+02  0.20801995181E+03  0.18227248733E+03 0.  0.
        -24    2    5    5    0    0 -0.25675998401E+01  0.40156109336E+01  0.23257038077E+02  0.86180272010E+02  0.82845831298E+02 0.  0.
          5    1    3    3  501    0  0.53486279461E+02 -0.21769201893E+02 -0.49122174637E+02  0.75958924971E+02  0.47000000000E+01 0. -1.
        -11    1    4    4    0    0  0.19631433260E+02  0.28938663854E+02  0.49108152134E+02  0.60286400154E+02  0.00000000000E+00 0.  1.
         12    1    4    4    0    0 -0.38724792882E+02 -0.62727499512E+01  0.61176526282E+00  0.39234311927E+02  0.00000000000E+00 0. -1.
         -5    1    5    5    0  502 -0.31825319999E+02 -0.49123229438E+01 -0.11741309834E+03  0.12183967980E+03  0.47000000000E+01 0.  1.
         11    1    6    6    0    0  0.37413777483E+02 -0.11625057645E+02  0.48812657982E+01  0.39481127980E+02  0.00000000000E+00 0. -1.
        -12    1    6    6    0    0 -0.39981377323E+02  0.15640668579E+02  0.18375772278E+02  0.46699144029E+02  0.00000000000E+00 0.  1.
</event>
<event>
12    1  0.8313893E-002  0.1802166E+03  0.7818608E-02  0.1168753E+00
         21   -1    0    0  501  502  0.00000000000E+00  0.00000000000E+00  0.85216966581E+03  0.85216966581E+03  0.00000000000E+00 0.  1.
         21   -1    0    0  502  503 -0.00000000000E+00 -0.00000000000E+00 -0.10497935027E+03  0.10497935027E+03  0.00000000000E+00 0.  1.
         -6    2    1    2    0  503 -0.23230816595E+02  0.40042751277E+02 -0.94119612449E+01  0.18046219453E+03  0.17416924490E+03 0.  0.
        -24    2    3    3    0    0  0.34852696779E+02 -0.21167178498E+02 -0.38791625338E+02  0.90988149736E+02  0.71493309321E+02 0.  0.
          6    2    1    2  501    0  0.23230816595E+02 -0.40042751277E+02  0.75660227678E+03  0.77668682156E+03  0.16926996420E+03 0.  0.
         24    2    5    5    0    0  0.75398055241E+02 -0.50037716903E+02  0.57057893362E+03  0.58317172053E+03  0.79625977453E+02 0.  0.
          5    1    5    5  501    0 -0.52167238645E+02  0.99949656263E+01  0.18602334316E+03  0.19351510103E+03  0.47000000000E+01 0. -1.
        -11    1    6    6    0    0  0.41684774578E+02 -0.63573722415E+01  0.89465646167E+02  0.98904693810E+02  0.00000000000E+00 0.  1.
         12    1    6    6    0    0  0.33713280663E+02 -0.43680344661E+02  0.48111328746E+03  0.48426702672E+03  0.00000000000E+00 0. -1.
         -5    1    3    3    0  503 -0.58083513374E+02  0.61209929775E+02  0.29379664093E+02  0.89474044791E+02  0.47000000000E+01 0.  1.
         11    1    4    4    0    0  0.39701497592E+02 -0.38611210640E+02 -0.89726596369E+01  0.56102968897E+02  0.00000000000E+00 0. -1.
        -12    1    4    4    0    0 -0.48488008131E+01  0.17444032141E+02 -0.29818965701E+02  0.34885180839E+02  0.00000000000E+00 0.  1.
</event>
<event>
12    1  0.8313893E-002  0.1906659E+03  0.7818608E-02  0.1158300E+00
         21   -1    0    0  503  502  0.00000000000E+00  0.00000000000E+00  0.16931170791E+03  0.16931170791E+03  0.00000000000E+00 0. -1.
         21   -1    0    0  501  503 -0.00000000000E+00 -0.00000000000E+00 -0.21362450634E+03  0.21362450634E+03  0.00000000000E+00 0. -1.
          6    2    1    2  501    0  0.33929827541E+02 -0.71029080300E+02 -0.35945225216E+02  0.19402464338E+03  0.17365811118E+03 0.  0.
         24    2    3    3    0    0  0.57812487633E+02 -0.87051605751E+02  0.18296505064E+02  0.13245063849E+03  0.79297816790E+02 0.  0.
         -6    2    1    2    0  502 -0.33929827541E+02  0.71029080300E+02 -0.83675732092E+01  0.18891157087E+03  0.17152609680E+03 0.  0.
        -24    2    5    5    0    0 -0.33309510995E+02  0.22029621344E+02  0.61006038822E+02  0.10384618533E+03  0.73942313298E+02 0.  0.
          5    1    3    3  501    0 -0.23882660091E+02  0.16022525450E+02 -0.54241730280E+02  0.61574004894E+02  0.47000000000E+01 0. -1.
        -11    1    4    4    0    0  0.55311002568E+02 -0.13364017899E+02  0.13977837063E+02  0.58594231016E+02  0.00000000000E+00 0.  1.
         12    1    4    4    0    0  0.25014850650E+01 -0.73687587852E+02  0.43186680010E+01  0.73856407470E+02  0.00000000000E+00 0. -1.
         -5    1    5    5    0  502 -0.62031654592E+00  0.48999458957E+02 -0.69373612031E+02  0.85065385539E+02  0.47000000000E+01 0.  1.
         13    1    6    6    0    0  0.32205894164E+01  0.42190474080E+02  0.30769779121E+02  0.52318138407E+02  0.00000000000E+00 0. -1.
        -14    1    6    6    0    0 -0.36530100412E+02 -0.20160852736E+02  0.30236259701E+02  0.51528046925E+02  0.00000000000E+00 0.  1.
</event>
<event>
12    1  0.8313893E-002  0.2952793E+03  0.7818608E-02  0.1087941E+00
         21   -1    0    0  501  502  0.00000000000E+00  0.00000000000E+00  0.11387119565E+04  0.11387119565E+04  0.00000000000E+00 0.  1.
         21   -1    0    0  502  503 -0.00000000000E+00 -0.00000000000E+00 -0.12448116423E+03  0.12448116423E+03  0.00000000000E+00 0.  1.
         -6    2    1    2    0  503  0.56919880606E+02 -0.22993455174E+03  0.11137222083E+03  0.31327549707E+03  0.17212784377E+03 0.  0.
        -24    2    3    3    0    0  0.37779131056E+02 -0.23080964123E+03  0.54166032951E+02  0.25276291981E+03  0.79087175182E+02 0.  0.
          6    2    1    2  501    0 -0.56919880606E+02  0.22993455174E+03  0.90285857148E+03  0.94991762369E+03  0.17629554961E+03 0.  0.
         24    2    5    5    0    0  0.16650782153E+02  0.19702629197E+03  0.66962696887E+03  0.70310865619E+03  0.82854672205E+02 0.  0.
          5    1    5    5  501    0 -0.73570662760E+02  0.32908259770E+02  0.23323160261E+03  0.24680896750E+03  0.47000000000E+01 0. -1.
        -11    1    6    6    0    0 -0.78245728030E+01  0.16403925480E+03  0.43610644067E+03  0.46600314231E+03  0.00000000000E+00 0.  1.
         12    1    6    6    0    0  0.24475354956E+02  0.32987037172E+02  0.23352052820E+03  0.23710551388E+03  0.00000000000E+00 0. -1.
         -5    1    3    3    0  503  0.19140749550E+02  0.87508948913E+00  0.57206187878E+02  0.60512577259E+02  0.47000000000E+01 0.  1.
         13    1    4    4    0    0 -0.13707742749E+02 -0.29670146814E+02 -0.12051286293E+02  0.34834656945E+02  0.00000000000E+00 0. -1.
        -14    1    4    4    0    0  0.51486873805E+02 -0.20113949442E+03  0.66217319244E+02  0.21792826287E+03  0.00000000000E+00 0.  1.
</event>
<event>
12    1  0.8313893E-002  0.2303885E+03  0.7818608E-02  0.1126929E+00
         21   -1    0    0  501  502  0.00000000000E+00  0.00000000000E+00  0.73838977040E+02  0.73838977040E+02  0.00000000000E+00 0.  1.
         21   -1    0    0  502  503 -0.00000000000E+00 -0.00000000000E+00 -0.83262083623E+03  0.83262083623E+03  0.00000000000E+00 0. -1.
         -6    2    1    2    0  503 -0.54672128429E+01  0.15108708280E+03 -0.20697296418E+03  0.30970418865E+03  0.17384383670E+03 0.  0.
        -24    2    3    3    0    0 -0.24429107283E+02  0.17746226040E+03 -0.19167376197E+03  0.27349149719E+03  0.77260163481E+02 0.  0.
          6    2    1    2  501    0  0.54672128429E+01 -0.15108708280E+03 -0.55180889501E+03  0.59675562462E+03  0.16960843699E+03 0.  0.
         24    2    5    5    0    0  0.10120398992E+02 -0.13557045273E+03 -0.55720246390E+03  0.57904691108E+03  0.79617644539E+02 0.  0.
          5    1    5    5  501    0 -0.46531861490E+01 -0.15516630072E+02  0.53935688873E+01  0.17708713546E+02  0.47000000000E+01 0. -1.
        -13    1    6    6    0    0  0.26036420443E+02 -0.82164768701E+02 -0.20378482360E+03  0.22126273689E+03  0.00000000000E+00 0.  1.
         14    1    6    6    0    0 -0.15916021451E+02 -0.53405684032E+02 -0.35341764030E+03  0.35778417419E+03  0.00000000000E+00 0. -1.
         -5    1    3    3    0  503  0.18961894440E+02 -0.26375177598E+02 -0.15299202214E+02  0.36212691456E+02  0.47000000000E+01 0.  1.
         13    1    4    4    0    0  0.22173408237E+02  0.10675314579E+03 -0.12376306899E+03  0.16493996306E+03  0.00000000000E+00 0. -1.
        -14    1    4    4    0    0 -0.46602515520E+02  0.70709114610E+02 -0.67910692980E+02  0.10855153413E+03  0.00000000000E+00 0.  1.
</event>
<event>
12    1  0.8313893E-002  0.1809399E+03  0.7818608E-02  0.1167187E+00
         21   -1    0    0  503  502  0.00000000000E+00  0.00000000000E+00  0.17496081489E+03  0.17496081489E+03  0.00000000000E+00 0. -1.
         21   -1    0    0  501  503 -0.00000000000E+00 -0.00000000000E+00 -0.35434181212E+03  0.35434181212E+03  0.00000000000E+00 0. -1.
          6    2    1    2  501    0  0.54204938166E+02 -0.35758407103E+01 -0.27232610970E+03  0.32695683408E+03  0.17259287173E+03 0.  0.
         24    2    3    3    0    0  0.82923805547E+02 -0.50087013167E+01 -0.10139447638E+03  0.15355977615E+03  0.79989501774E+02 0.  0.
         -6    2    1    2    0  502 -0.54204938166E+02  0.35758407103E+01  0.92945112474E+02  0.20234579293E+03  0.17133027761E+03 0.  0.
        -24    2    5    5    0    0 -0.91591923296E+02 -0.32123219313E+01  0.24716044410E+02  0.12410794059E+03  0.79953102767E+02 0.  0.
          5    1    3    3  501    0 -0.28718867380E+02  0.14328606064E+01 -0.17093163331E+03  0.17339705793E+03  0.47000000000E+01 0. -1.
        -13    1    4    4    0    0  0.26679240951E+02  0.13242128307E+02  0.65351446868E+01  0.30493343141E+02  0.00000000000E+00 0.  1.
         14    1    4    4    0    0  0.56244564596E+02 -0.18250829624E+02 -0.10792962107E+03  0.12306643301E+03  0.00000000000E+00 0. -1.
         -5    1    5    5    0  502  0.37386985130E+02  0.67881626415E+01  0.68229068065E+02  0.78237852336E+02  0.47000000000E+01 0.  1.
         11    1    6    6    0    0 -0.73059645637E+02  0.32119457682E+02  0.26714579109E+02  0.84160799184E+02  0.00000000000E+00 0. -1.
        -12    1    6    6    0    0 -0.18532277659E+02 -0.35331779614E+02 -0.19985346991E+01  0.39947141410E+02  0.00000000000E+00 0.  1.
</event>
<event>
12    1  0.8313893E-002  0.1789205E+03  0.7818608E-02  0.1169089E+00
         21   -1    0    0  501  502  0.00000000000E+00  0.00000000000E+00  0.19731476884E+03  0.19731476884E+03  0.00000000000E+00 0.  1.
         21   -1    0    0  502  503 -0.00000000000E+00 -0.00000000000E+00 -0.19196769824E+03  0.19196769824E+03  0.00000000000E+00 0.  1.
         -6    2    1    2    0  503  0.46889679571E+02 -0.76097924346E+01  0.80383982767E+02  0.19526420746E+03  0.17149336733E+03 0.  0.
        -24    2    3    3    0    0  0.97401544733E+02 -0.42416349510E+01  0.48546057936E+02  0.13527640483E+03  0.80236734593E+02 0.  0.
          6    2    1    2  501    0 -0.46889679571E+02  0.76097924346E+01 -0.75036912166E+02  0.19401825962E+03  0.17249926344E+03 0.  0.
         24    2    5    5    0    0 -0.10713380120E+02 -0.35974437578E+02  0.12818012651E+02  0.89381327501E+02  0.80098586660E+02 0.  0.
          5    1    5    5  501    0 -0.36176299451E+02  0.43584230012E+02 -0.87854924816E+02  0.10463693211E+03  0.47000000000E+01 0. -1.
        -11    1    6    6    0    0  0.34033123148E+02 -0.83438788869E+01 -0.82444907446E+00  0.35050727558E+02  0.00000000000E+00 0.  1.
         12    1    6    6    0    0 -0.44746503268E+02 -0.27630558691E+02  0.13642461725E+02  0.54330599943E+02  0.00000000000E+00 0. -1.
         -5    1    3    3    0  503 -0.50511865162E+02 -0.33681574836E+01  0.31837924831E+02  0.59987802631E+02  0.47000000000E+01 0.  1.
         13    1    4    4    0    0  0.35992419637E+02  0.37192921371E+02  0.25475075920E+02  0.57686628993E+02  0.00000000000E+00 0. -1.
        -14    1    4    4    0    0  0.61409125095E+02 -0.41434556322E+02  0.23070982017E+02  0.77589775833E+02  0.00000000000E+00 0.  1.
</event>
<event>
12    1  0.8313893E-002  0.1815169E+03  0.7818608E-02  0.1167125E+00
         21   -1    0    0  503  502  0.00000000000E+00  0.00000000000E+00  0.77832090287E+02  0.77832090287E+02  0.00000000000E+00 0.  1.
         21   -1    0    0  501  503 -0.00000000000E+00 -0.00000000000E+00 -0.60007350032E+03  0.60007350032E+03  0.00000000000E+00 0.  1.
          6    2    1    2  501    0  0.33889955596E+02  0.44389053319E+02 -0.44731223982E+03  0.48153156795E+03  0.16930887129E+03 0.  0.
         24    2    3    3    0    0  0.55122196780E+02 -0.31813101997E+02 -0.23087990055E+03  0.25104811080E+03  0.75293395596E+02 0.  0.
         -6    2    1    2    0  502 -0.33889955596E+02 -0.44389053319E+02 -0.74929170209E+02  0.19637402265E+03  0.17271206987E+03 0.  0.
        -24    2    5    5    0    0  0.61037216956E+01 -0.98368214554E+01  0.16790348886E+02  0.90412184552E+02  0.88081943808E+02 0.  0.
          5    1    3    3  501    0 -0.21232241184E+02  0.76202155315E+02 -0.21643233927E+03  0.23048345716E+03  0.47000000000E+01 0. -1.
        -11    1    4    4    0    0  0.12400418998E+02  0.24562960363E+02 -0.74337294395E+02  0.79266277515E+02  0.00000000000E+00 0.  1.
         12    1    4    4    0    0  0.42721777782E+02 -0.56376062360E+02 -0.15654260615E+03  0.17178183328E+03  0.00000000000E+00 0. -1.
         -5    1    5    5    0  502 -0.39993677292E+02 -0.34552231863E+02 -0.91719519094E+02  0.10596183810E+03  0.47000000000E+01 0.  1.
         13    1    6    6    0    0 -0.17269444812E+02 -0.10014620018E+02 -0.31195551951E+02  0.37036317308E+02  0.00000000000E+00 0. -1.
        -14    1    6    6    0    0  0.23373166507E+02  0.17779856311E+00  0.47985900837E+02  0.53375867244E+02  0.00000000000E+00 0.  1.
</event>
<event>
12    1  0.8313893E-002  0.1757590E+03  0.7818608E-02  0.1172788E+00
         21   -1    0    0  501  502  0.00000000000E+00  0.00000000000E+00  0.83802815459E+02  0.83802815459E+02  0.00000000000E+00 0.  1.
         21   -1    0    0  502  503 -0.00000000000E+00 -0.00000000000E+00 -0.90861164344E+03  0.90861164344E+03  0.00000000000E+00 0.  1.
         -6    2    1    2    0  503 -0.13373851491E+02 -0.74201483994E+01 -0.79884173719E+03  0.81794825710E+03  0.17509229481E+03 0.  0.
        -24    2    3    3    0    0  0.66457144771E+00 -0.24249550907E+02 -0.78838238289E+03  0.79321378318E+03  0.83981199107E+02 0.  0.
          6    2    1    2  501    0  0.13373851491E+02  0.74201483994E+01 -0.25967090794E+02  0.17446620181E+03  0.17184367100E+03 0.  0.
         24    2    5    5    0    0  0.37316610901E+02 -0.94168020076E+01  0.43529337333E+02  0.98911042157E+02  0.80046145709E+02 0.  0.
          5    1    5    5  501    0 -0.23942759411E+02  0.16836950407E+02 -0.69496428127E+02  0.75555159649E+02  0.47000000000E+01 0. -1.
        -13    1    6    6    0    0 -0.11863740169E+02  0.20007367490E+02  0.33416888612E+02  0.40715249345E+02  0.00000000000E+00 0.  1.
         14    1    6    6    0    0  0.49180351070E+02 -0.29424169498E+02  0.10112448721E+02  0.58195792813E+02  0.00000000000E+00 0. -1.
         -5    1    3    3    0  503 -0.14038422938E+02  0.16829402508E+02 -0.10459354298E+02  0.24734473912E+02  0.47000000000E+01 0.  1.
         13    1    4    4    0    0  0.37988684993E+02 -0.43607530408E+01 -0.22324427599E+03  0.22649539314E+03  0.00000000000E+00 0. -1.
        -14    1    4    4    0    0 -0.37324113546E+02 -0.19888797866E+02 -0.56513810691E+03  0.56671839004E+03  0.00000000000E+00 0.  1.
</event>
<event>
12    1  0.8313893E-002  0.1815895E+03  0.7818608E-02  0.1166699E+00
         21   -1    0    0  501  502  0.00000000000E+00  0.00000000000E+00  0.32033609967E+03  0.32033609967E+03  0.00000000000E+00 0.  1.
         21   -1    0    0  502  503 -0.00000000000E+00 -0.00000000000E+00 -0.15710523869E+03  0.15710523869E+03  0.00000000000E+00 0.  1.
         -6    2    1    2    0  503  0.44668834562E+02  0.11825245792E+02 -0.60105538835E+02  0.18959778551E+03  0.17378004273E+03 0.  0.
        -24    2    3    3    0    0 -0.26985470958E+02  0.33168087276E+02 -0.24701560567E+02  0.10674014820E+03  0.94630621299E+02 0.  0.
          6    2    1    2  501    0 -0.44668834562E+02 -0.11825245792E+02  0.22333639981E+03  0.28784355285E+03  0.17561213572E+03 0.  0.
         24    2    5    5    0    0  0.42245137407E+02  0.13643608047E+00  0.83463058442E+02  0.12266558221E+03  0.79347921742E+02 0.  0.
          5    1    5    5  501    0 -0.86913971970E+02 -0.11961681873E+02  0.13987334137E+03  0.16517797064E+03  0.47000000000E+01 0. -1.
        -13    1    6    6    0    0  0.16294017544E+02 -0.24443570001E+02  0.81764019133E+02  0.86881171417E+02  0.00000000000E+00 0.  1.
         14    1    6    6    0    0  0.25951119864E+02  0.24580006081E+02  0.16990393092E+01  0.35784410792E+02  0.00000000000E+00 0. -1.
         -5    1    3    3    0  503  0.71654305520E+02 -0.21342841483E+02 -0.35403978269E+02  0.82857637303E+02  0.47000000000E+01 0.  1.
         11    1    4    4    0    0 -0.50341902356E+02 -0.11641694942E+02 -0.30352525962E+01  0.51759530062E+02  0.00000000000E+00 0. -1.
        -12    1    4    4    0    0  0.23356431398E+02  0.44809782217E+02 -0.21666307970E+02  0.54980618140E+02  0.00000000000E+00 0.  1.
</event>
<event>
12    1  0.8313893E-002  0.2703040E+03  0.7818608E-02  0.1101226E+00
         21   -1    0    0  503  502  0.00000000000E+00  0.00000000000E+00  0.18986778800E+03  0.18986778800E+03  0.00000000000E+00 0.  1.
         21   -1    0    0  501  503 -0.00000000000E+00 -0.00000000000E+00 -0.60068105519E+03  0.60068105519E+03  0.00000000000E+00 0.  1.
          6    2    1    2  501    0 -0.15045373844E+03  0.14344758843E+03 -0.44281415711E+03  0.51835720012E+03  0.17145340808E+03 0.  0.
         24    2    3    3    0    0 -0.84622390454E+02  0.53055794309E+01 -0.20041320176E+03  0.23165649524E+03  0.79436655298E+02 0.  0.
         -6    2    1    2    0  502  0.15045373844E+03 -0.14344758843E+03  0.32000889922E+02  0.27219164306E+03  0.17277353837E+03 0.  0.
        -24    2    5    5    0    0  0.13977902071E+03 -0.12237298908E+03  0.81796474038E+02  0.21687637814E+03  0.76363454235E+02 0.  0.
          5    1    3    3  501    0 -0.65831347986E+02  0.13814200900E+03 -0.24240095535E+03  0.28670070488E+03  0.47000000000E+01 0. -1.
        -11    1    4    4    0    0 -0.19956975075E+02  0.26117097236E+02 -0.19055160321E+02  0.37993193562E+02  0.00000000000E+00 0.  1.
         12    1    4    4    0    0 -0.64665415379E+02 -0.20811517805E+02 -0.18135804144E+03  0.19366330168E+03  0.00000000000E+00 0. -1.
         -5    1    5    5    0  502  0.10674717734E+02 -0.21074599349E+02 -0.49795584117E+02  0.55315264927E+02  0.47000000000E+01 0.  1.
         11    1    6    6    0    0  0.57251595780E+02 -0.88964175163E+02  0.17923910823E+02  0.10730161351E+03  0.00000000000E+00 0. -1.
        -12    1    6    6    0    0  0.82527424925E+02 -0.33408813919E+02  0.63872563216E+02  0.10957476463E+03  0.00000000000E+00 0.  1.
</event>
<event>
12    1  0.8313893E-002  0.3019641E+03  0.7818608E-02  0.1084269E+00
         21   -1    0    0  501  502  0.00000000000E+00  0.00000000000E+00  0.16716189023E+04  0.16716189023E+04  0.00000000000E+00 0.  1.
         21   -1    0    0  502  503 -0.00000000000E+00 -0.00000000000E+00 -0.75893458227E+02  0.75893458227E+02  0.00000000000E+00 0. -1.
         -6    2    1    2    0  503  0.21008144526E+03 -0.13168808009E+03  0.33441850905E+03  0.45057525306E+03  0.17235531729E+03 0.  0.
        -24    2    3    3    0    0  0.51914801839E+02 -0.75157634091E+02  0.79066155516E+02  0.14489683892E+03  0.79998877306E+02 0.  0.
          6    2    1    2  501    0 -0.21008144526E+03  0.13168808009E+03  0.12613069351E+04  0.12969371075E+04  0.17226349671E+03 0.  0.
         24    2    5    5    0    0 -0.21510264828E+03  0.70208465927E+02  0.10002267634E+04  0.10286277683E+04  0.80144429787E+02 0.  0.
          5    1    5    5  501    0  0.50212030261E+01  0.61479614162E+02  0.26108017166E+03  0.26830933914E+03  0.47000000000E+01 0. -1.
        -11    1    6    6    0    0 -0.21232204428E+03  0.81711505273E+02  0.93078514155E+03  0.95818495099E+03  0.00000000000E+00 0.  1.
         12    1    6    6    0    0 -0.27806040043E+01 -0.11503039346E+02  0.69441621843E+02  0.70442817356E+02  0.00000000000E+00 0. -1.
         -5    1    3    3    0  503  0.15816664342E+03 -0.56530445998E+02  0.25535235353E+03  0.30567841414E+03  0.47000000000E+01 0.  1.
         11    1    4    4    0    0  0.27856295132E+02  0.16189923475E+01 -0.52050410785E+01  0.28384622022E+02  0.00000000000E+00 0. -1.
        -12    1    4    4    0    0  0.24058506708E+02 -0.76776626439E+02  0.84271196594E+02  0.11651221690E+03  0.00000000000E+00 0.  1.
</event>
<event>
12    1  0.8313893E-002  0.2087964E+03  0.7818608E-02  0.1142673E+00
         21   -1    0    0  503  502  0.00000000000E+00  0.00000000000E+00  0.19963766896E+03  0.19963766896E+03  0.00000000000E+00 0. -1.
         21   -1    0    0  501  503 -0.00000000000E+00 -0.00000000000E+00 -0.41044991109E+03  0.41044991109E+03  0.00000000000E+00 0.  1.
          6    2    1    2  501    0  0.11399730065E+02 -0.11764011862E+03 -0.31440506881E+03  0.37700519482E+03  0.17121103432E+03 0.  0.
         24    2    3    3    0    0 -0.51688954469E+02 -0.10790793558E+03 -0.21883448737E+03  0.26198031256E+03  0.80182795718E+02 0.  0.
         -6    2    1    2    0  502 -0.11399730065E+02  0.11764011862E+03  0.10359282668E+03  0.23308238523E+03  0.17212429582E+03 0.  0.
        -24    2    5    5    0    0  0.29268580232E+02  0.13683040565E+03  0.62895165302E+02  0.17225008936E+03  0.78326762783E+02 0.  0.
          5    1    3    3  501    0  0.63088684534E+02 -0.97321830350E+01 -0.95570581445E+02  0.11502488227E+03  0.47000000000E+01 0. -1.
        -13    1    4    4    0    0 -0.17774588616E+01 -0.60097801559E+02 -0.16099722893E+03  0.17185753645E+03  0.00000000000E+00 0.  1.
         14    1    4    4    0    0 -0.49911495608E+02 -0.47810134024E+02 -0.57837258442E+02  0.90122776107E+02  0.00000000000E+00 0. -1.
         -5    1    5    5    0  502 -0.40668310296E+02 -0.19190287032E+02  0.40697661373E+02  0.60832295863E+02  0.47000000000E+01 0.  1.
         13    1    6    6    0    0 -0.21163558805E+02  0.76383534086E+02  0.16789755919E+02  0.81019975343E+02  0.00000000000E+00 0. -1.
        -14    1    6    6    0    0  0.50432139037E+02  0.60446871564E+02  0.46105409383E+02  0.91230114020E+02  0.00000000000E+00 0.  1.
</event>
<event>
12    1  0.8313893E-002  0.1882911E+03  0.7818608E-02  0.1160515E+00
         21   -1    0    0  503  502  0.00000000000E+00  0.00000000000E+00  0.37160956665E+03  0.37160956665E+03  0.00000000000E+00 0.  1.
         21   -1    0    0  501  503 -0.00000000000E+00 -0.00000000000E+00 -0.96881547765E+02  0.96881547765E+02  0.00000000000E+00 0.  1.
          6    2    1    2  501    0  0.71707596067E+02 -0.22137662585E-02  0.98329088336E+02  0.21047924905E+03  0.17172922095E+03 0.  0.
         24    2    3    3    0    0  0.97584598278E+02  0.12784610815E+01  0.12179863134E+03  0.17520647172E+03  0.79611637670E+02 0.  0.
         -6    2    1    2    0  502 -0.71707596067E+02  0.22137662585E-02  0.17639893055E+03  0.25801186537E+03  0.17410215574E+03 0.  0.
        -24    2    5    5    0    0  0.27177794811E+02  0.21907187001E+02  0.66959042812E+02  0.10882296695E+03  0.78360496099E+02 0.  0.
          5    1    3    3  501    0 -0.25877002211E+02 -0.12806748478E+01 -0.23469543008E+02  0.35272777329E+02  0.47000000000E+01 0. -1.
        -11    1    4    4    0    0  0.65981884675E+02 -0.54578455290E+01  0.21158123556E+02  0.69505851376E+02  0.00000000000E+00 0.  1.
         12    1    4    4    0    0  0.31602713603E+02  0.67363066106E+01  0.10064050779E+03  0.10570062035E+03  0.00000000000E+00 0. -1.
         -5    1    5    5    0  502 -0.98885390879E+02 -0.21904973235E+02  0.10943988774E+03  0.14918889841E+03  0.47000000000E+01 0.  1.
         13    1    6    6    0    0  0.24332716467E+02  0.44674184992E+02  0.16645944080E+02  0.53525240305E+02  0.00000000000E+00 0. -1.
        -14    1    6    6    0    0  0.28450783444E+01 -0.22766997992E+02  0.50313098733E+02  0.55297726648E+02  0.00000000000E+00 0.  1.
</event>
<event>
12    1  0.8313893E-002  0.2497492E+03  0.7818608E-02  0.1113783E+00
         21   -1    0    0  501  502  0.00000000000E+00  0.00000000000E+00  0.23844453198E+03  0.23844453198E+03  0.00000000000E+00 0. -1.
         21   -1    0    0  502  503 -0.00000000000E+00 -0.00000000000E+00 -0.42859631024E+03  0.42859631024E+03  0.00000000000E+00 0. -1.
         -6    2    1    2    0  503  0.17803208872E+03  0.25654523795E+02 -0.30433954421E+03  0.39242560160E+03  0.17035761038E+03 0.  0.
        -24    2    3    3    0    0  0.15529908371E+03 -0.32623793268E+02 -0.16425936543E+03  0.23894042888E+03  0.70208775347E+02 0.  0.
          6    2    1    2  501    0 -0.17803208872E+03 -0.25654523795E+02  0.11418776596E+03  0.27461524061E+03  0.17326599573E+03 0.  0.
         24    2    5    5    0    0 -0.83506792346E+02  0.49910177232E+02  0.70448966921E+02  0.14585100553E+03  0.82734809561E+02 0.  0.
          5    1    5    5  501    0 -0.94525296378E+02 -0.75564701028E+02  0.43738799036E+02  0.12876423509E+03  0.47000000000E+01 0. -1.
        -13    1    6    6    0    0  0.24253691331E+01  0.17421936491E+02  0.48224724237E+02  0.51332546344E+02  0.00000000000E+00 0.  1.
         14    1    6    6    0    0 -0.85932161479E+02  0.32488240742E+02  0.22224242685E+02  0.94518459181E+02  0.00000000000E+00 0. -1.
         -5    1    3    3    0  503  0.22733005018E+02  0.58278317063E+02 -0.14008017878E+03  0.15348517272E+03  0.47000000000E+01 0.  1.
         11    1    4    4    0    0  0.76485222693E+02 -0.51349676690E+02 -0.95415653494E+02  0.13263078647E+03  0.00000000000E+00 0. -1.
        -12    1    4    4    0    0  0.78813861014E+02  0.18725883422E+02 -0.68843711935E+02  0.10630964242E+03  0.00000000000E+00 0.  1.
</event>
<event>
12    1  0.8313893E-002  0.1763474E+03  0.7818608E-02  0.1171828E+00
         21   -1    0    0  503  502  0.00000000000E+00  0.00000000000E+00  0.19945010583E+03  0.19945010583E+03  0.00000000000E+00 0.  1.
         21   -1    0    0  501  503 -0.00000000000E+00 -0.00000000000E+00 -0.30872397515E+03  0.30872397515E+03  0.00000000000E+00 0.  1.
          6    2    1    2  501    0  0.29358134930E+02  0.17719806410E+02 -0.23416578804E+03  0.29208062243E+03  0.17117704895E+03 0.  0.
         24    2    3    3    0    0 -0.46255778349E+02  0.19890375719E+02 -0.11791319672E+03  0.15330407455E+03  0.84043995842E+02 0.  0.
         -6    2    1    2    0  502 -0.29358134930E+02 -0.17719806410E+02  0.12489191872E+03  0.21609345855E+03  0.17298121239E+03 0.  0.
        -24    2    5    5    0    0 -0.43801300909E+02 -0.66992916643E+02  0.11838362712E+03  0.16412334892E+03  0.80716699924E+02 0.  0.
          5    1    3    3  501    0  0.75613913279E+02 -0.21705693093E+01 -0.11625259132E+03  0.13877654788E+03  0.47000000000E+01 0. -1.
        -11    1    4    4    0    0 -0.37541647840E+02  0.52276728951E+02 -0.74659993230E+02  0.98571528858E+02  0.00000000000E+00 0.  1.
         12    1    4    4    0    0 -0.87141305089E+01 -0.32386353231E+02 -0.43253203491E+02  0.54732545696E+02  0.00000000000E+00 0. -1.
         -5    1    5    5    0  502  0.14443165979E+02  0.49273110233E+02  0.65082915975E+01  0.51970109631E+02  0.47000000000E+01 0.  1.
         11    1    6    6    0    0 -0.81991694321E+01  0.18480389986E+02  0.29583528496E+02  0.35832057598E+02  0.00000000000E+00 0. -1.
        -12    1    6    6    0    0 -0.35602131477E+02 -0.85473306629E+02  0.88800098628E+02  0.12829129132E+03  0.00000000000E+00 0.  1.
</event>
<event>
12    1  0.8313893E-002  0.2519870E+03  0.7818608E-02  0.1112470E+00
         21   -1    0    0  501  502  0.00000000000E+00  0.00000000000E+00  0.83859093133E+03  0.83859093133E+03  0.00000000000E+00 0. -1.
         21   -1    0    0  502  503 -0.00000000000E+00 -0.00000000000E+00 -0.13235370453E+03  0.13235370453E+03  0.00000000000E+00 0.  1.
         -6    2    1    2    0  503 -0.15249537343E+03 -0.88540342439E+02  0.34395866175E+02  0.25432361380E+03  0.18000887136E+03 0.  0.
        -24    2    3    3    0    0 -0.11168503417E+03 -0.14958291971E+02  0.78169016561E+02  0.15936056500E+03  0.81167094144E+02 0.  0.
          6    2    1    2  501    0  0.15249537343E+03  0.88540342439E+02  0.67184136063E+03  0.71662102206E+03  0.17629703416E+03 0.  0.
         24    2    5    5    0    0  0.16265800635E+03  0.94394497898E+02  0.67356584457E+03  0.70386899913E+03  0.79829021694E+02 0.  0.
          5    1    5    5  501    0 -0.10162632919E+02 -0.58541554587E+01 -0.17244839403E+01  0.12752022931E+02  0.47000000000E+01 0. -1.
        -13    1    6    6    0    0  0.37597713211E+01  0.12353524110E+02  0.15101071586E+03  0.15156180833E+03  0.00000000000E+00 0.  1.
         14    1    6    6    0    0  0.15889823503E+03  0.82040973788E+02  0.52255512871E+03  0.55230719081E+03  0.00000000000E+00 0. -1.
         -5    1    3    3    0  503 -0.40810339265E+02 -0.73582050467E+02 -0.43773150386E+02  0.94963048796E+02  0.47000000000E+01 0.  1.
         11    1    4    4    0    0 -0.45341486776E+02 -0.72781543473E+01  0.80340421308E+02  0.92538668943E+02  0.00000000000E+00 0. -1.
        -12    1    4    4    0    0 -0.66343547389E+02 -0.76801376241E+01 -0.21714047469E+01  0.66821896057E+02  0.00000000000E+00 0.  1.
</event>
<event>
12    1  0.8313893E-002  0.1790371E+03  0.7818608E-02  0.1169722E+00
         21   -1    0    0  501  502  0.00000000000E+00  0.00000000000E+00  0.16394387810E+03  0.16394387810E+03  0.00000000000E+00 0.  1.
         21   -1    0    0  502  503 -0.00000000000E+00 -0.00000000000E+00 -0.19119972061E+03  0.19119972061E+03  0.00000000000E+00 0. -1.
         -6    2    1    2    0  503 -0.35502311582E+02 -0.35750105112E+02 -0.15288243146E+02  0.17968867590E+03  0.17180164646E+03 0.  0.
        -24    2    3    3    0    0 -0.28839721866E+01 -0.72553418472E+02 -0.51080813171E+02  0.11868344655E+03  0.78766713676E+02 0.  0.
          6    2    1    2  501    0  0.35502311582E+02  0.35750105112E+02 -0.11967599369E+02  0.17545492281E+03  0.16763866606E+03 0.  0.
         24    2    5    5    0    0  0.73516434163E+02  0.41374999470E+02 -0.45164887501E+02  0.12445626703E+03  0.79579762916E+02 0.  0.
          5    1    5    5  501    0 -0.38014122581E+02 -0.56248943584E+01  0.33197288132E+02  0.50998655781E+02  0.47000000000E+01 0. -1.
        -11    1    6    6    0    0  0.52030555188E+02  0.59633334724E+02 -0.10596982102E+02  0.79847412689E+02  0.00000000000E+00 0.  1.
         12    1    6    6    0    0  0.21485878975E+02 -0.18258335254E+02 -0.34567905399E+02  0.44608854337E+02  0.00000000000E+00 0. -1.
         -5    1    3    3    0  503 -0.32618339395E+02  0.36803313360E+02  0.35792570025E+02  0.61005229351E+02  0.47000000000E+01 0.  1.
         11    1    4    4    0    0  0.31894632973E+02 -0.28789708088E+02 -0.97714896979E-02  0.42966440390E+02  0.00000000000E+00 0. -1.
        -12    1    4    4    0    0 -0.34778605160E+02 -0.43763710383E+02 -0.51071041681E+02  0.75717006160E+02  0.00000000000E+00 0.  1.
</event>
<event>
12    1  0.8313893E-002  0.1847454E+03  0.7818608E-02  0.1163546E+00
         21   -1    0    0  501  502  0.00000000000E+00  0.00000000000E+00  0.25246481854E+03  0.25246481854E+03  0.00000000000E+00 0. -1.
         21   -1    0    0  502  503 -0.00000000000E+00 -0.00000000000E+00 -0.14068342349E+03  0.14068342349E+03  0.00000000000E+00 0. -1.
         -6    2    1    2    0  503 -0.62265598063E+01  0.64731197890E+02  0.14142031324E+02  0.18418815541E+03  0.17174510624E+03 0.  0.
        -24    2    3    3    0    0  0.41740204168E+02  0.41712162133E+02 -0.39119834885E+02  0.10875869933E+03  0.82558731120E+02 0.  0.
          6    2    1    2  501    0  0.62265598063E+01 -0.64731197890E+02  0.97639363729E+02  0.20896008662E+03  0.17292187375E+03 0.  0.
         24    2    5    5    0    0 -0.29152076033E+02 -0.57305384080E+02  0.13272636418E+03  0.15836385963E+03  0.57698125695E+02 0.  0.
          5    1    5    5  501    0  0.35378635840E+02 -0.74258138102E+01 -0.35087000447E+02  0.50596226983E+02  0.47000000000E+01 0. -1.
        -13    1    6    6    0    0 -0.18292467640E+02 -0.18192090547E+02  0.77155332465E+01  0.26927606357E+02  0.00000000000E+00 0.  1.
         14    1    6    6    0    0 -0.10859608393E+02 -0.39113293533E+02  0.12501083093E+03  0.13143625328E+03  0.00000000000E+00 0. -1.
         -5    1    3    3    0  503 -0.47966763975E+02  0.23019035757E+02  0.53261866210E+02  0.75429456086E+02  0.47000000000E+01 0.  1.
         13    1    4    4    0    0  0.56086601410E+02 -0.12617524534E+01 -0.23694808930E+02  0.60899448661E+02  0.00000000000E+00 0. -1.
        -14    1    4    4    0    0 -0.14346397241E+02  0.42973914586E+02 -0.15425025955E+02  0.47859250667E+02  0.00000000000E+00 0.  1.
</event>
<event>
12    1  0.8313893E-002  0.1782287E+03  0.7818608E-02  0.1169600E+00
         21   -1    0    0  503  502  0.00000000000E+00  0.00000000000E+00  0.30676084169E+03  0.30676084169E+03  0.00000000000E+00 0.  1.
         21   -1    0    0  501  503 -0.00000000000E+00 -0.00000000000E+00 -0.15781564027E+03  0.15781564027E+03  0.00000000000E+00 0.  1.
          6    2    1    2  501    0  0.35870031853E+02 -0.30298495777E+02 -0.61910175653E+02  0.18867518331E+03  0.17193253594E+03 0.  0.
         24    2    3    3    0    0  0.57046198974E+02 -0.18779427396E+02  0.23892992002E+02  0.99426135302E+02  0.75549623451E+02 0.  0.
         -6    2    1    2    0  502 -0.35870031853E+02  0.30298495777E+02  0.21085537707E+03  0.27590129865E+03  0.17163006300E+03 0.  0.
        -24    2    5    5    0    0  0.21797124777E+02  0.21593013538E+02  0.38916744474E+02  0.94280072595E+02  0.80205026063E+02 0.  0.
          5    1    3    3  501    0 -0.21176167122E+02 -0.11519068381E+02 -0.85803167654E+02  0.89249048005E+02  0.47000000000E+01 0. -1.
        -11    1    4    4    0    0  0.50653933251E+02 -0.12570122373E+02 -0.19057454402E+02  0.55560917005E+02  0.00000000000E+00 0.  1.
         12    1    4    4    0    0  0.63922657235E+01 -0.62093050239E+01  0.42950446403E+02  0.43865218297E+02  0.00000000000E+00 0. -1.
         -5    1    5    5    0  502 -0.57667156630E+02  0.87054822395E+01  0.17193863260E+03  0.18162122606E+03  0.47000000000E+01 0.  1.
         11    1    6    6    0    0  0.10804088477E+02 -0.86896299991E+01 -0.21632059695E+02  0.25694046080E+02  0.00000000000E+00 0. -1.
        -12    1    6    6    0    0  0.10993036301E+02  0.30282643537E+02  0.60548804169E+02  0.68586026514E+02  0.00000000000E+00 0.  1.
</event>
<event>
12    1  0.8313893E-002  0.2577215E+03  0.7818608E-02  0.1108687E+00
         21   -1    0    0  501  502  0.00000000000E+00  0.00000000000E+00  0.11774811142E+03  0.11774811142E+03  0.00000000000E+00 0. -1.
         21   -1    0    0  502  503 -0.00000000000E+00 -0.00000000000E+00 -0.10952908509E+04  0.10952908509E+04  0.00000000000E+00 0.  1.
         -6    2    1    2    0  503  0.12823506074E+03  0.14141331057E+03 -0.91264880730E+03  0.94833972794E+03  0.17314282808E+03 0.  0.
        -24    2    3    3    0    0  0.14271535733E+03  0.60032770602E+02 -0.62328251423E+03  0.64736229882E+03  0.81395617986E+02 0.  0.
          6    2    1    2  501    0 -0.12823506074E+03 -0.14141331057E+03 -0.64893932207E+02  0.26469923440E+03  0.17150074940E+03 0.  0.
         24    2    5    5    0    0 -0.10335697149E+03 -0.13576310824E+03 -0.10557359148E+03  0.21645227812E+03  0.81188178771E+02 0.  0.
          5    1    5    5  501    0 -0.24878089251E+02 -0.56502023249E+01  0.40679659274E+02  0.48246956274E+02  0.47000000000E+01 0. -1.
        -11    1    6    6    0    0 -0.24948719931E+02 -0.46755390711E+02 -0.78614966588E+02  0.94809378009E+02  0.00000000000E+00 0.  1.
         12    1    6    6    0    0 -0.78408251560E+02 -0.89007717529E+02 -0.26958624893E+02  0.12164290012E+03  0.00000000000E+00 0. -1.
         -5    1    3    3    0  503 -0.14480296583E+02  0.81380539963E+02 -0.28936629307E+03  0.30097742912E+03  0.47000000000E+01 0.  1.
         13    1    4    4    0    0  0.15714260158E+02  0.22052502232E+02 -0.34582894024E+02  0.43922971053E+02  0.00000000000E+00 0. -1.
        -14    1    4    4    0    0  0.12700109717E+03  0.37980268370E+02 -0.58869962021E+03  0.60343932777E+03  0.00000000000E+00 0.  1.
</event>
<event>
12    1  0.8313893E-002  0.3606343E+03  0.7818608E-02  0.1058346E+00
         21   -1    0    0  501  502  0.00000000000E+00  0.00000000000E+00  0.15858108692E+04  0.15858108692E+04  0.00000000000E+00 0.  1.
         21   -1    0    0  502  503 -0.00000000000E+00 -0.00000000000E+00 -0.34969545324E+03  0.34969545324E+03  0.00000000000E+00 0.  1.
         -6    2    1    2    0  503  0.17365647669E+03  0.26511050359E+03 -0.22866242261E+03  0.42701713085E+03  0.17209583235E+03 0.  0.
        -24    2    3    3    0    0  0.51317056655E+02  0.63858660009E+02 -0.11646802664E+03  0.16609777409E+03  0.85511990790E+02 0.  0.
          6    2    1    2  501    0 -0.17365647669E+03 -0.26511050359E+03  0.14647778385E+04  0.15084891915E+04  0.17182949037E+03 0.  0.
         24    2    5    5    0    0 -0.91894685807E+02 -0.15367670163E+03  0.11180983127E+04  0.11352449467E+04  0.81093096386E+02 0.  0.
          5    1    5    5  501    0 -0.81761790886E+02 -0.11143380197E+03  0.34667952580E+03  0.37324424481E+03  0.47000000000E+01 0. -1.
        -13    1    6    6    0    0 -0.71440437963E+02 -0.14214258199E+03  0.76497841146E+03  0.78134513487E+03  0.00000000000E+00 0.  1.
         14    1    6    6    0    0 -0.20454247845E+02 -0.11534119636E+02  0.35311990127E+03  0.35389981187E+03  0.00000000000E+00 0. -1.
         -5    1    3    3    0  503  0.12233942004E+03  0.20125184358E+03 -0.11219439598E+03  0.26091935676E+03  0.47000000000E+01 0.  1.
         11    1    4    4    0    0  0.39105673402E+02  0.41754166021E+02 -0.12657080672E+03  0.13889864358E+03  0.00000000000E+00 0. -1.
        -12    1    4    4    0    0  0.12211383253E+02  0.22104493988E+02  0.10102780090E+02  0.27199130518E+02  0.00000000000E+00 0.  1.
</event>
<event>
12    1  0.8313893E-002  0.2061837E+03  0.7818608E-02  0.1144791E+00
         21   -1    0    0  501  502  0.00000000000E+00  0.00000000000E+00  0.96532137528E+02  0.96532137528E+02  0.00000000000E+00 0.  1.
         21   -1    0    0  502  503 -0.00000000000E+00 -0.00000000000E+00 -0.47762237819E+03  0.47762237819E+03  0.00000000000E+00 0.  1.
         -6    2    1    2    0  503 -0.10685377774E+03 -0.36157698034E+02 -0.27220879043E+03  0.34098740603E+03  0.17160908059E+03 0.  0.
        -24    2    3    3    0    0 -0.77848474742E+02  0.42037901971E+02 -0.13470603069E+03  0.18009937541E+03  0.80389676551E+02 0.  0.
          6    2    1    2  501    0  0.10685377774E+03  0.36157698034E+02 -0.10888145023E+03  0.23316710968E+03  0.17258801201E+03 0.  0.
         24    2    5    5    0    0  0.61360483015E+02  0.87421072389E+02 -0.48520110112E+02  0.14171682376E+03  0.79510403579E+02 0.  0.
          5    1    5    5  501    0  0.45493294725E+02 -0.51263374354E+02 -0.60361340118E+02  0.91450285926E+02  0.47000000000E+01 0. -1.
        -11    1    6    6    0    0  0.17223619657E+02  0.76996207926E+02 -0.53123138846E+01  0.79077745212E+02  0.00000000000E+00 0.  1.
         12    1    6    6    0    0  0.44136863359E+02  0.10424864463E+02 -0.43207796228E+02  0.62639078546E+02  0.00000000000E+00 0. -1.
         -5    1    3    3    0  503 -0.29005302999E+02 -0.78195600006E+02 -0.13750275974E+03  0.16088803062E+03  0.47000000000E+01 0.  1.
         11    1    4    4    0    0 -0.63114395306E+02  0.13382418024E+02 -0.13301190640E+03  0.14783329548E+03  0.00000000000E+00 0. -1.
        -12    1    4    4    0    0 -0.14734079437E+02  0.28655483948E+02 -0.16941242919E+01  0.32266079933E+02  0.00000000000E+00 0.  1.
</event>
<event>
12    1  0.8313893E-002  0.1751713E+03  0.7818608E-02  0.1173586E+00
         21   -1    0    0  503  502  0.00000000000E+00  0.00000000000E+00  0.17393627425E+03  0.17393627425E+03  0.00000000000E+00 0. -1.
         21   -1    0    0  501  503 -0.00000000000E+00 -0.00000000000E+00 -0.21008503181E+03  0.21008503181E+03  0.00000000000E+00 0. -1.
          6    2    1    2  501    0 -0.22106421843E+02 -0.28486063693E+02  0.63104256004E+02  0.18619116001E+03  0.17142010159E+03 0.  0.
         24    2    3    3    0    0  0.48381975787E+02 -0.37048523415E+02  0.56309767899E+02  0.11470560213E+03  0.79203387119E+02 0.  0.
         -6    2    1    2    0  502  0.22106421843E+02  0.28486063693E+02 -0.99253013567E+02  0.19783014605E+03  0.16728854196E+03 0.  0.
        -24    2    5    5    0    0  0.51998722315E+02  0.69730073502E+02 -0.48135263269E+02  0.12551325751E+03  0.76618692023E+02 0.  0.
          5    1    3    3  501    0 -0.70488397630E+02  0.85624597221E+01  0.67944881053E+01  0.71485557881E+02  0.47000000000E+01 0. -1.
        -13    1    4    4    0    0 -0.68743684069E+01 -0.18608926712E+02 -0.13340687473E+02  0.23906547986E+02  0.00000000000E+00 0.  1.
         14    1    4    4    0    0  0.55256344193E+02 -0.18439596703E+02  0.69650455371E+02  0.90799054145E+02  0.00000000000E+00 0. -1.
         -5    1    5    5    0  502 -0.29892300472E+02 -0.41244009809E+02 -0.51117750299E+02  0.72316888541E+02  0.47000000000E+01 0.  1.
         13    1    6    6    0    0  0.77869719608E+01  0.71187867253E+02 -0.31836465273E+02  0.78370338122E+02  0.00000000000E+00 0. -1.
        -14    1    6    6    0    0  0.44211750355E+02 -0.14577937514E+01 -0.16298797996E+02  0.47142919385E+02  0.00000000000E+00 0.  1.
</event>
<event>
12    1  0.8313893E-002  0.1864581E+03  0.7818608E-02  0.1161999E+00
         21   -1    0    0  501  502  0.00000000000E+00  0.00000000000E+00  0.54567117302E+03  0.54567117302E+03  0.00000000000E+00 0.  1.
         21   -1    0    0  502  503 -0.00000000000E+00 -0.00000000000E+00 -0.63961306225E+02  0.63961306225E+02  0.00000000000E+00 0.  1.
         -6    2    1    2    0  503 -0.33161116077E+02 -0.57911497824E+02  0.27347367989E+03  0.33099012100E+03  0.17410687926E+03 0.  0.
        -24    2    3    3    0    0 -0.56161801604E+01  0.63202172052E+01  0.28340441754E+02  0.76045360023E+02  0.70058757604E+02 0.  0.
          6    2    1    2  501    0  0.33161116077E+02  0.57911497824E+02  0.20823618690E+03  0.27864235824E+03  0.17270163019E+03 0.  0.
         24    2    5    5    0    0  0.72506013228E+02  0.67124156657E+02  0.20043086070E+03  0.23721884883E+03  0.79608278203E+02 0.  0.
          5    1    5    5  501    0 -0.39344897151E+02 -0.92126588333E+01  0.78053261969E+01  0.41423509408E+02  0.47000000000E+01 0. -1.
        -13    1    6    6    0    0  0.18829714980E+02 -0.60480892000E+01  0.30965727395E+01  0.20018149563E+02  0.00000000000E+00 0.  1.
         14    1    6    6    0    0  0.53676298249E+02  0.73172245857E+02  0.19733428796E+03  0.21720069927E+03  0.00000000000E+00 0. -1.
         -5    1    3    3    0  503 -0.27544935916E+02 -0.64231715029E+02  0.24513323814E+03  0.25494476098E+03  0.47000000000E+01 0.  1.
         11    1    4    4    0    0 -0.25562479482E+02 -0.17051477252E+02 -0.45190841193E+01  0.31058257437E+02  0.00000000000E+00 0. -1.
        -12    1    4    4    0    0  0.19946299321E+02  0.23371694458E+02  0.32859525874E+02  0.44987102586E+02  0.00000000000E+00 0.  1.
</event>
<event>
12    1  0.8313893E-002  0.2319270E+03  0.7818608E-02  0.1125383E+00
         21   -1    0    0  501  502  0.00000000000E+00  0.00000000000E+00  0.60488761536E+02  0.60488761536E+02  0.00000000000E+00 0. -1.
         21   -1    0    0  502  503 -0.00000000000E+00 -0.00000000000E+00 -0.88724304894E+03  0.88724304894E+03  0.00000000000E+00 0. -1.
         -6    2    1    2    0  503  0.70849593135E+02  0.13870270139E+03 -0.41104718731E+03  0.47170396824E+03  0.17113368821E+03 0.  0.
        -24    2    3    3    0    0  0.54958494584E+02  0.13697713210E+03 -0.20552383892E+03  0.26550638985E+03  0.80438944803E+02 0.  0.
          6    2    1    2  501    0 -0.70849593135E+02 -0.13870270139E+03 -0.41570710009E+03  0.47602784223E+03  0.17184879776E+03 0.  0.
         24    2    5    5    0    0  0.11687443740E+02 -0.36991337184E+02 -0.10739451673E+03  0.14101097232E+03  0.82737879615E+02 0.  0.
          5    1    5    5  501    0 -0.82537036875E+02 -0.10171136421E+03 -0.30831258336E+03  0.33501686991E+03  0.47000000000E+01 0. -1.
        -11    1    6    6    0    0  0.13383858330E+02  0.18538514872E+02 -0.71011577646E+02  0.74601932664E+02  0.00000000000E+00 0.  1.
         12    1    6    6    0    0 -0.16964145901E+01 -0.55529852055E+02 -0.36382939087E+02  0.66409039658E+02  0.00000000000E+00 0. -1.
         -5    1    3    3    0  503  0.15891098551E+02  0.17255692905E+01 -0.20552334839E+03  0.20619757839E+03  0.47000000000E+01 0.  1.
         13    1    4    4    0    0 -0.17079975137E+02  0.21827970555E+02 -0.61934248869E+02  0.67853054701E+02  0.00000000000E+00 0. -1.
        -14    1    4    4    0    0  0.72038469722E+02  0.11514916155E+03 -0.14358959005E+03  0.19765333515E+03  0.00000000000E+00 0.  1.
</event>
<event>
12    1  0.8313893E-002  0.2581070E+03  0.7818608E-02  0.1108369E+00
         21   -1    0    0  503  502  0.00000000000E+00  0.00000000000E+00  0.11910409109E+04  0.11910409109E+04  0.00000000000E+00 0. -1.
         21   -1    0    0  501  503 -0.00000000000E+00 -0.00000000000E+00 -0.56870987335E+02  0.56870987335E+02  0.00000000000E+00 0. -1.
          6    2    1    2  501    0 -0.15067729506E+03 -0.11919716091E+03  0.48149983992E+03  0.54605903779E+03  0.17154231691E+03 0.  0.
         24    2    3    3    0    0 -0.18053755529E+03 -0.95459237577E+02  0.40423884935E+03  0.45976607858E+03  0.79180330744E+02 0.  0.
         -6    2    1    2    0  502  0.15067729506E+03  0.11919716091E+03  0.65267008360E+03  0.70185286040E+03  0.17235889653E+03 0.  0.
        -24    2    5    5    0    0  0.13210013586E+03  0.13561980848E+03  0.41709656017E+03  0.46493137733E+03  0.79677266392E+02 0.  0.
          5    1    3    3  501    0  0.29860260234E+02 -0.23737923336E+02  0.77260990570E+02  0.86292959211E+02  0.47000000000E+01 0. -1.
        -11    1    4    4    0    0 -0.10139441629E+01 -0.25840950730E+02  0.59981342464E+02  0.65318789495E+02  0.00000000000E+00 0.  1.
         12    1    4    4    0    0 -0.17952361113E+03 -0.69618286848E+02  0.34425750689E+03  0.39444728908E+03  0.00000000000E+00 0. -1.
         -5    1    5    5    0  502  0.18577159203E+02 -0.16422647569E+02  0.23557352343E+03  0.23692148307E+03  0.47000000000E+01 0.  1.
         13    1    6    6    0    0  0.58787299090E+02  0.13131331191E+02  0.93188907365E+02  0.11096193423E+03  0.00000000000E+00 0. -1.
        -14    1    6    6    0    0  0.73312836765E+02  0.12248847729E+03  0.32390765280E+03  0.35396944310E+03  0.00000000000E+00 0.  1.
</event>
<event>
12    1  0.8313893E-002  0.2713160E+03  0.7818608E-02  0.1100548E+00
         21   -1    0    0  501  502  0.00000000000E+00  0.00000000000E+00  0.10615387959E+03  0.10615387959E+03  0.00000000000E+00 0. -1.
         21   -1    0    0  502  503 -0.00000000000E+00 -0.00000000000E+00 -0.10221362434E+04  0.10221362434E+04  0.00000000000E+00 0. -1.
         -6    2    1    2    0  503  0.16948737160E+03  0.12450640451E+03 -0.77799350305E+03  0.82390005265E+03  0.17120044412E+03 0.  0.
        -24    2    3    3    0    0  0.19653048852E+03  0.10746563542E+03 -0.70785433136E+03  0.74667757283E+03  0.79350788486E+02 0.  0.
          6    2    1    2  501    0 -0.16948737160E+03 -0.12450640451E+03 -0.13798886077E+03  0.30439007034E+03  0.17141929684E+03 0.  0.
         24    2    5    5    0    0 -0.18789423505E+03 -0.13847185911E+03 -0.11679900483E+03  0.27268917857E+03  0.78985323007E+02 0.  0.
          5    1    5    5  501    0  0.18406863451E+02  0.13965454596E+02 -0.21189855939E+02  0.31700891767E+02  0.47000000000E+01 0. -1.
        -11    1    6    6    0    0  0.63901800961E+01 -0.82652660511E+01  0.15630179184E+01  0.10563713815E+02  0.00000000000E+00 0.  1.
         12    1    6    6    0    0 -0.19428441515E+03 -0.13020659305E+03 -0.11836202274E+03  0.26212546476E+03  0.00000000000E+00 0. -1.
         -5    1    3    3    0  503 -0.27043116912E+02  0.17040769090E+02 -0.70139171692E+02  0.77222479817E+02  0.47000000000E+01 0.  1.
         13    1    4    4    0    0  0.13829293377E+03  0.10123440800E+03 -0.59937055988E+03  0.62339266033E+03  0.00000000000E+00 0. -1.
        -14    1    4    4    0    0  0.58237554746E+02  0.62312274216E+01 -0.10848377148E+03  0.12328491251E+03  0.00000000000E+00 0.  1.
</event>
<event>
12    1  0.8313893E-002  0.1936675E+03  0.7818608E-02  0.1155416E+00
         21   -1    0    0  501  502  0.00000000000E+00  0.00000000000E+00  0.49327716976E+03  0.49327716976E+03  0.00000000000E+00 0.  1.
         21   -1    0    0  502  503 -0.00000000000E+00 -0.00000000000E+00 -0.31806632452E+03  0.31806632452E+03  0.00000000000E+00 0.  1.
         -6    2    1    2    0  503 -0.81623487985E+02 -0.32753406465E+02 -0.26650376203E+03  0.32944099530E+03  0.17254545715E+03 0.  0.
        -24    2    3    3    0    0 -0.19945632626E+02 -0.33630259270E+02 -0.27817438097E+02  0.82868129917E+02  0.67561042726E+02 0.  0.
          6    2    1    2  501    0  0.81623487985E+02  0.32753406465E+02  0.44171460726E+03  0.48190249898E+03  0.17141483258E+03 0.  0.
         24    2    5    5    0    0  0.65964256421E+02 -0.41670014077E+02  0.31484611582E+03  0.33391006276E+03  0.79247587754E+02 0.  0.
          5    1    5    5  501    0  0.15659231564E+02  0.74423420542E+02  0.12686849144E+03  0.14799243622E+03  0.47000000000E+01 0. -1.
        -13    1    6    6    0    0  0.22855521061E+02  0.20476443157E+02  0.51809321160E+02  0.60215158610E+02  0.00000000000E+00 0.  1.
         14    1    6    6    0    0  0.43108735360E+02 -0.62146457233E+02  0.26303679466E+03  0.27369490415E+03  0.00000000000E+00 0. -1.
         -5    1    3    3    0  503 -0.61677855359E+02  0.87685280494E+00 -0.23868632393E+03  0.24657286538E+03  0.47000000000E+01 0.  1.
         11    1    4    4    0    0  0.21229554899E+02 -0.29327187912E+02 -0.85282945682E+01  0.37195561029E+02  0.00000000000E+00 0. -1.
        -12    1    4    4    0    0 -0.41175187525E+02 -0.43030713588E+01 -0.19289143528E+02  0.45672568888E+02  0.00000000000E+00 0.  1.
</event>
<event>
12    1  0.8313893E-002  0.1952930E+03  0.7818608E-02  0.1153790E+00
         21   -1    0    0  503  502  0.00000000000E+00  0.00000000000E+00  0.22355601063E+03  0.22355601063E+03  0.00000000000E+00 0. -1.
         21   -1    0    0  501  503 -0.00000000000E+00 -0.00000000000E+00 -0.25926703585E+03  0.25926703585E+03  0.00000000000E+00 0.  1.
          6    2    1    2  501    0  0.46205586544E+02 -0.79736264905E+02 -0.15908912733E+03  0.25189024157E+03  0.17218163431E+03 0.  0.
         24    2    3    3    0    0 -0.20455687096E+02 -0.29902015307E+02 -0.14415712952E+03  0.16720120807E+03  0.76566313311E+02 0.  0.
         -6    2    1    2    0  502 -0.46205586544E+02  0.79736264905E+02  0.12337810211E+03  0.23093280491E+03  0.17209002335E+03 0.  0.
        -24    2    5    5    0    0 -0.19339574912E+02  0.94233117654E+02  0.23422120136E+02  0.12631335332E+03  0.78438306290E+02 0.  0.
          5    1    3    3  501    0  0.66661273640E+02 -0.49834249597E+02 -0.14931997805E+02  0.84689033497E+02  0.47000000000E+01 0. -1.
        -13    1    4    4    0    0  0.16425194731E+02  0.16918985115E+02 -0.56259554712E+02  0.61001447325E+02  0.00000000000E+00 0.  1.
         14    1    4    4    0    0 -0.36880881827E+02 -0.46821000423E+02 -0.87897574811E+02  0.10619976075E+03  0.00000000000E+00 0. -1.
         -5    1    5    5    0  502 -0.26866011633E+02 -0.14496852749E+02  0.99955981972E+02  0.10461945160E+03  0.47000000000E+01 0.  1.
         11    1    6    6    0    0  0.11443471808E+02  0.27300498808E+02  0.41003697220E+02  0.50572457602E+02  0.00000000000E+00 0. -1.
        -12    1    6    6    0    0 -0.30783046719E+02  0.66932618846E+02 -0.17581577083E+02  0.75740895715E+02  0.00000000000E+00 0.  1.
</event>
<event>
12    1  0.8313893E-002  0.2026428E+03  0.7818608E-02  0.1148142E+00
         21   -1    0    0  501  502  0.00000000000E+00  0.00000000000E+00  0.51229179974E+02  0.51229179974E+02  0.00000000000E+00 0. -1.
         21   -1    0    0  502  503 -0.00000000000E+00 -0.00000000000E+00 -0.81355777052E+03  0.81355777052E+03  0.00000000000E+00 0. -1.
         -6    2    1    2    0  503  0.99252541243E+02  0.19656234166E+02 -0.30488465227E+03  0.36446799770E+03  0.17217675707E+03 0.  0.
        -24    2    3    3    0    0  0.12063680911E+02 -0.21244742292E+02 -0.65411603536E+02  0.10631258267E+03  0.80167424083E+02 0.  0.
          6    2    1    2  501    0 -0.99252541243E+02 -0.19656234166E+02 -0.45744393828E+03  0.50031895279E+03  0.17557523565E+03 0.  0.
         24    2    5    5    0    0 -0.26494277747E+02  0.43377362002E+02 -0.30976086064E+03  0.32396878814E+03  0.80127664492E+02 0.  0.
          5    1    5    5  501    0 -0.72758263496E+02 -0.63033596167E+02 -0.14768307764E+03  0.17635016465E+03  0.47000000000E+01 0. -1.
        -11    1    6    6    0    0  0.20300181645E+02 -0.10517974302E+02 -0.59963296825E+02  0.64174154645E+02  0.00000000000E+00 0.  1.
         12    1    6    6    0    0 -0.46794459391E+02  0.53895336304E+02 -0.24979756381E+03  0.25979463349E+03  0.00000000000E+00 0. -1.
         -5    1    3    3    0  503  0.87188860332E+02  0.40900976458E+02 -0.23947304873E+03  0.25815541503E+03  0.47000000000E+01 0.  1.
         11    1    4    4    0    0  0.44101125483E+02 -0.40323188903E+01 -0.21298279796E+02  0.49140467913E+02  0.00000000000E+00 0. -1.
        -12    1    4    4    0    0 -0.32037444572E+02 -0.17212423402E+02 -0.44113323740E+02  0.57172114754E+02  0.00000000000E+00 0.  1.
</event>
<event>
12    1  0.8313893E-002  0.3268652E+03  0.7818608E-02  0.1072629E+00
         21   -1    0    0  503  502  0.00000000000E+00  0.00000000000E+00  0.38488424948E+03  0.38488424948E+03  0.00000000000E+00 0.  1.
         21   -1    0    0  501  503 -0.00000000000E+00 -0.00000000000E+00 -0.48650121263E+03  0.48650121263E+03  0.00000000000E+00 0. -1.
          6    2    1    2  501    0 -0.27518366220E+03  0.10752059035E+02 -0.33677627418E+03  0.46871841723E+03  0.17446214800E+03 0.  0.
         24    2    3    3    0    0 -0.17220486248E+03 -0.56431973865E+02 -0.24928250609E+03  0.31773637551E+03  0.77301708531E+02 0.  0.
         -6    2    1    2    0  502  0.27518366220E+03 -0.10752059035E+02  0.23515931103E+03  0.40266704488E+03  0.17606587618E+03 0.  0.
        -24    2    5    5    0    0  0.28616917319E+03 -0.11863075341E+02  0.18283168491E+03  0.34898104797E+03  0.79541301210E+02 0.  0.
          5    1    3    3  501    0 -0.10297879972E+03  0.67184032900E+02 -0.87493768084E+02  0.15098204172E+03  0.47000000000E+01 0. -1.
        -13    1    4    4    0    0  0.68396530705E+01 -0.29861137976E+01 -0.18698573826E+01  0.76937699711E+01  0.00000000000E+00 0.  1.
         14    1    4    4    0    0 -0.17904451555E+03 -0.53445860067E+02 -0.24741264871E+03  0.31004260554E+03  0.00000000000E+00 0. -1.
         -5    1    5    5    0  502 -0.10985510988E+02  0.11110163055E+01  0.52327626119E+02  0.53685996910E+02  0.47000000000E+01 0.  1.
         11    1    6    6    0    0  0.21058740943E+03 -0.43517864850E+02  0.12559964292E+03  0.24903038344E+03  0.00000000000E+00 0. -1.
        -12    1    6    6    0    0  0.75581763756E+02  0.31654789510E+02  0.57232041982E+02  0.99950664535E+02  0.00000000000E+00 0.  1.
</event>
<event>
12    1  0.8313893E-002  0.2023836E+03  0.7818608E-02  0.1147940E+00
         21   -1    0    0  503  502  0.00000000000E+00  0.00000000000E+00  0.78721542655E+02  0.78721542655E+02  0.00000000000E+00 0.  1.
         21   -1    0    0  501  503 -0.00000000000E+00 -0.00000000000E+00 -0.52581012828E+03  0.52581012828E+03  0.00000000000E+00 0. -1.
          6    2    1    2  501    0  0.34212298728E+02 -0.98919248871E+02 -0.26015280868E+03  0.32902464896E+03  0.17211111695E+03 0.  0.
         24    2    3    3    0    0 -0.62960997283E+01 -0.12796563377E+03 -0.18319425366E+03  0.23721325526E+03  0.79341978801E+02 0.  0.
         -6    2    1    2    0  502 -0.34212298728E+02  0.98919248871E+02 -0.18693577695E+03  0.27550702198E+03  0.17321557457E+03 0.  0.
        -24    2    5    5    0    0 -0.49372450025E+02  0.48292279994E+02 -0.19558084075E+03  0.22175065219E+03  0.78432795118E+02 0.  0.
          5    1    3    3  501    0  0.40508398456E+02  0.29046384903E+02 -0.76958555020E+02  0.91811393695E+02  0.47000000000E+01 0. -1.
        -13    1    4    4    0    0 -0.38617835128E+01 -0.67110160858E+01  0.77848085134E+01  0.10979724605E+02  0.00000000000E+00 0.  1.
         14    1    4    4    0    0 -0.24343162155E+01 -0.12125461769E+03 -0.19097906217E+03  0.22623353066E+03  0.00000000000E+00 0. -1.
         -5    1    5    5    0  502  0.15160151297E+02  0.50626968878E+02  0.86450637982E+01  0.53756369792E+02  0.47000000000E+01 0.  1.
         11    1    6    6    0    0  0.16450414079E+02  0.18037187151E+02 -0.19153192232E+02  0.31029035054E+02  0.00000000000E+00 0. -1.
        -12    1    6    6    0    0 -0.65822864104E+02  0.30255092842E+02 -0.17642764852E+03  0.19072161714E+03  0.00000000000E+00 0.  1.
</event>
<event>
12    1  0.8313893E-002  0.1804341E+03  0.7818608E-02  0.1167412E+00
         21   -1    0    0  501  502  0.00000000000E+00  0.00000000000E+00  0.92825607113E+02  0.92825607113E+02  0.00000000000E+00 0. -1.
         21   -1    0    0  502  503 -0.00000000000E+00 -0.00000000000E+00 -0.90356841123E+03  0.90356841123E+03  0.00000000000E+00 0. -1.
         -6    2    1    2    0  503  0.48461679252E+02 -0.25392171811E+02 -0.79509207432E+03  0.81528237740E+03  0.17181574874E+03 0.  0.
        -24    2    3    3    0    0  0.97419886186E+02 -0.57644513632E+01 -0.60820141996E+03  0.62103418533E+03  0.79060919470E+02 0.  0.
          6    2    1    2  501    0 -0.48461679252E+02  0.25392171811E+02 -0.15650729797E+02  0.18111164094E+03  0.17193947887E+03 0.  0.
         24    2    5    5    0    0  0.24926683773E+02 -0.23478049906E+02  0.18017058277E+02  0.86614231703E+02  0.77490982400E+02 0.  0.
          5    1    5    5  501    0 -0.73388363024E+02  0.48870221718E+02 -0.33667788074E+02  0.94497409234E+02  0.47000000000E+01 0. -1.
        -11    1    6    6    0    0  0.50275975736E+00  0.18920065432E+02 -0.17795370909E+02  0.25978777283E+02  0.00000000000E+00 0.  1.
         12    1    6    6    0    0  0.24423924015E+02 -0.42398115338E+02  0.35812429186E+02  0.60635454420E+02  0.00000000000E+00 0. -1.
         -5    1    3    3    0  503 -0.48958206935E+02 -0.19627720448E+02 -0.18689065436E+03  0.19424819207E+03  0.47000000000E+01 0.  1.
         11    1    4    4    0    0  0.36986795900E+02 -0.41272270559E+02 -0.25735034588E+03  0.26325011665E+03  0.00000000000E+00 0. -1.
        -12    1    4    4    0    0  0.60433090286E+02  0.35507819196E+02 -0.35085107407E+03  0.35778406868E+03  0.00000000000E+00 0.  1.
</event>
<event>
12    1  0.8313893E-002  0.1926011E+03  0.7818608E-02  0.1156244E+00
         21   -1    0    0  501  502  0.00000000000E+00  0.00000000000E+00  0.67591642433E+03  0.67591642433E+03  0.00000000000E+00 0.  1.
         21   -1    0    0  502  503 -0.00000000000E+00 -0.00000000000E+00 -0.54785383535E+02  0.54785383535E+02  0.00000000000E+00 0. -1.
         -6    2    1    2    0  503  0.85037665013E+02 -0.10550082726E+02  0.29989882687E+03  0.35615499092E+03  0.17194290471E+03 0.  0.
        -24    2    3    3    0    0  0.39103354107E+02 -0.69169878577E+02  0.15605068523E+03  0.19410370509E+03  0.83731043014E+02 0.  0.
          6    2    1    2  501    0 -0.85037665013E+02  0.10550082726E+02  0.32123221392E+03  0.37454681695E+03  0.17248905504E+03 0.  0.
         24    2    5    5    0    0 -0.82280227021E+02  0.16102934225E+02  0.98155351492E+02  0.15133433035E+03  0.78982695986E+02 0.  0.
          5    1    5    5  501    0 -0.27574379915E+01 -0.55528514990E+01  0.22307686243E+03  0.22321248660E+03  0.47000000000E+01 0. -1.
        -11    1    6    6    0    0 -0.22939847516E+01 -0.15187511759E+02  0.51187211107E+02  0.53442057037E+02  0.00000000000E+00 0.  1.
         12    1    6    6    0    0 -0.79986242270E+02  0.31290445984E+02  0.46968140386E+02  0.97892273309E+02  0.00000000000E+00 0. -1.
         -5    1    3    3    0  503  0.45934310906E+02  0.58619795851E+02  0.14384814164E+03  0.16205128582E+03  0.47000000000E+01 0.  1.
         11    1    4    4    0    0  0.23417640608E+02  0.60252547150E+01  0.50699556722E+01  0.24706153819E+02  0.00000000000E+00 0. -1.
        -12    1    4    4    0    0  0.15685713499E+02 -0.75195133292E+02  0.15098072956E+03  0.16939755127E+03  0.00000000000E+00 0.  1.
</event>
<event>
12    1  0.8313893E-002  0.2524232E+03  0.7818608E-02  0.1111892E+00
         21   -1    0    0  501  502  0.00000000000E+00  0.00000000000E+00  0.13127164122E+03  0.13127164122E+03  0.00000000000E+00 0.  1.
         21   -1    0    0  502  503 -0.00000000000E+00 -0.00000000000E+00 -0.72104755231E+03  0.72104755231E+03  0.00000000000E+00 0. -1.
         -6    2    1    2    0  503 -0.17586458009E+03 -0.52113990680E+02 -0.53893941997E+03  0.59482780614E+03  0.17239548139E+03 0.  0.
        -24    2    3    3    0    0 -0.13993556751E+03  0.21030869576E+02 -0.42407039669E+03  0.45390922313E+03  0.78572393169E+02 0.  0.
          6    2    1    2  501    0  0.17586458009E+03  0.52113990680E+02 -0.50836491116E+02  0.25749138739E+03  0.17341639829E+03 0.  0.
         24    2    5    5    0    0  0.19637059261E+03  0.63405338910E+02 -0.64685835346E+02  0.22988911520E+03  0.77994239202E+02 0.  0.
          5    1    5    5  501    0 -0.20506012519E+02 -0.11291348230E+02  0.13849344230E+02  0.27602272187E+02  0.47000000000E+01 0. -1.
        -13    1    6    6    0    0  0.12679058681E+03  0.53908350120E+02 -0.52285326026E+01  0.13787422047E+03  0.00000000000E+00 0.  1.
         14    1    6    6    0    0  0.69580005804E+02  0.94969887901E+01 -0.59457302744E+02  0.92014894736E+02  0.00000000000E+00 0. -1.
         -5    1    3    3    0  503 -0.35929012581E+02 -0.73144860255E+02 -0.11486902328E+03  0.14091858301E+03  0.47000000000E+01 0.  1.
         11    1    4    4    0    0 -0.67401030264E+02 -0.28483258045E+02 -0.16964808778E+03  0.18475569966E+03  0.00000000000E+00 0. -1.
        -12    1    4    4    0    0 -0.72534537247E+02  0.49514127621E+02 -0.25442230891E+03  0.26915352347E+03  0.00000000000E+00 0.  1.
</event>
<event>
12    1  0.8313893E-002  0.2883963E+03  0.7818608E-02  0.1091333E+00
         21   -1    0    0  501  502  0.00000000000E+00  0.00000000000E+00  0.33999598018E+03  0.33999598018E+03  0.00000000000E+00 0.  1.
         21   -1    0    0  502  503 -0.00000000000E+00 -0.00000000000E+00 -0.28061847271E+03  0.28061847271E+03  0.00000000000E+00 0. -1.
         -6    2    1    2    0  503 -0.95418331677E+02  0.21058756564E+03 -0.82808480559E+02  0.30004946291E+03  0.17239679498E+03 0.  0.
        -24    2    3    3    0    0 -0.64002269834E+02  0.22884086403E+03 -0.64509405987E+02  0.25909707624E+03  0.80656059053E+02 0.  0.
          6    2    1    2  501    0  0.95418331677E+02 -0.21058756564E+03  0.14218598803E+03  0.32056498998E+03  0.17056751386E+03 0.  0.
         24    2    5    5    0    0 -0.15453651149E+02 -0.10526293968E+03  0.43614116937E+02  0.13856395377E+03  0.77321900416E+02 0.  0.
          5    1    5    5  501    0  0.11087198283E+03 -0.10532462596E+03  0.98571871091E+02  0.18200103620E+03  0.47000000000E+01 0. -1.
        -13    1    6    6    0    0 -0.17196096406E+02 -0.19793750533E+02  0.46106563843E+02  0.53040677986E+02  0.00000000000E+00 0.  1.
         14    1    6    6    0    0  0.17424452567E+01 -0.85469189150E+02 -0.24924469068E+01  0.85523275785E+02  0.00000000000E+00 0. -1.
         -5    1    3    3    0  503 -0.31416061843E+02 -0.18253298388E+02 -0.18299074572E+02  0.40952386670E+02  0.47000000000E+01 0.  1.
         13    1    4    4    0    0  0.16047064687E+02  0.80773203655E+02 -0.15622187387E+02  0.83820471560E+02  0.00000000000E+00 0. -1.
        -14    1    4    4    0    0 -0.80049334521E+02  0.14806766038E+03 -0.48887218600E+02  0.17527660468E+03  0.00000000000E+00 0.  1.
</event>
<event>
12    1  0.8313893E-002  0.1991726E+03  0.7818608E-02  0.1152198E+00
         21   -1    0    0  503  502  0.00000000000E+00  0.00000000000E+00  0.49336828271E+02  0.49336828271E+02  0.00000000000E+00 0.  1.
         21   -1    0    0  501  503 -0.00000000000E+00 -0.00000000000E+00 -0.10659957549E+04  0.10659957549E+04  0.00000000000E+00 0. -1.
          6    2    1    2  501    0  0.91574189530E+02 -0.41998073782E+02 -0.79367568715E+03  0.81634891388E+03  0.16234156100E+03 0.  0.
         24    2    3    3    0    0  0.36024311920E+02 -0.62946705777E+02 -0.38168937840E+03  0.40008043959E+03  0.95485798660E+02 0.  0.
         -6    2    1    2    0  502 -0.91574189530E+02  0.41998073782E+02 -0.22298323949E+03  0.29898366930E+03  0.17181396633E+03 0.  0.
        -24    2    5    5    0    0 -0.12852734522E+03  0.16157959241E+02 -0.18732435370E+03  0.24130444106E+03  0.79731183789E+02 0.  0.
          5    1    3    3  501    0  0.55549877610E+02  0.20948631996E+02 -0.41198630876E+03  0.41626847429E+03  0.47000000000E+01 0. -1.
        -13    1    4    4    0    0 -0.19649930150E+02 -0.30751082012E+01 -0.16473684002E+02  0.25825536005E+02  0.00000000000E+00 0.  1.
         14    1    4    4    0    0  0.55674242070E+02 -0.59871597576E+02 -0.36521569440E+03  0.37425490359E+03  0.00000000000E+00 0. -1.
         -5    1    5    5    0  502  0.36953155693E+02  0.25840114541E+02 -0.35658885789E+02  0.57679228245E+02  0.47000000000E+01 0.  1.
         11    1    6    6    0    0 -0.15510362399E+02 -0.88540080907E+01 -0.84852612607E+02  0.86711767755E+02  0.00000000000E+00 0. -1.
        -12    1    6    6    0    0 -0.11301698282E+03  0.25011967332E+02 -0.10247174109E+03  0.15459267330E+03  0.00000000000E+00 0.  1.
</event>
<event>
12    1  0.8313893E-002  0.2423307E+03  0.7818608E-02  0.1118485E+00
         21   -1    0    0  503  502  0.00000000000E+00  0.00000000000E+00  0.17825900512E+03  0.17825900512E+03  0.00000000000E+00 0. -1.
         21   -1    0    0  501  503 -0.00000000000E+00 -0.00000000000E+00 -0.50398050077E+03  0.50398050077E+03  0.00000000000E+00 0. -1.
          6    2    1    2  501    0  0.11729869075E+03 -0.12119675840E+03 -0.36503435016E+03  0.43814863779E+03  0.17400147960E+03 0.  0.
         24    2    3    3    0    0  0.13754381698E+02 -0.16731017868E+02 -0.20190382320E+03  0.21844844729E+03  0.80532355764E+02 0.  0.
         -6    2    1    2    0  502 -0.11729869075E+03  0.12119675840E+03  0.39312854516E+02  0.24409086810E+03  0.17200934354E+03 0.  0.
        -24    2    5    5    0    0 -0.12632025905E+03  0.12380785965E+03  0.77539188762E+02  0.20444809859E+03  0.67093258000E+02 0.  0.
          5    1    3    3  501    0  0.10354430905E+03 -0.10446574053E+03 -0.16313052696E+03  0.21970019050E+03  0.47000000000E+01 0. -1.
        -13    1    4    4    0    0  0.47049000916E+01  0.12948792110E+02  0.39611077772E+00  0.13782750296E+02  0.00000000000E+00 0.  1.
         14    1    4    4    0    0  0.90494816060E+01 -0.29679809978E+02 -0.20229993398E+03  0.20466569699E+03  0.00000000000E+00 0. -1.
         -5    1    5    5    0  502  0.90215682996E+01 -0.26111012512E+01 -0.38226334247E+02  0.39642769508E+02  0.47000000000E+01 0.  1.
         13    1    6    6    0    0 -0.16839875369E+02  0.50449734048E+02  0.42509011073E+02  0.68086511809E+02  0.00000000000E+00 0. -1.
        -14    1    6    6    0    0 -0.10948038368E+03  0.73358125598E+02  0.35030177689E+02  0.13636158679E+03  0.00000000000E+00 0.  1.
</event>
<event>
12    1  0.8313893E-002  0.1823323E+03  0.7818608E-02  0.1165843E+00
         21   -1    0    0  503  502  0.00000000000E+00  0.00000000000E+00  0.11271433944E+03  0.11271433944E+03  0.00000000000E+00 0.  1.
         21   -1    0    0  501  503 -0.00000000000E+00 -0.00000000000E+00 -0.43916184442E+03  0.43916184442E+03  0.00000000000E+00 0.  1.
          6    2    1    2  501    0 -0.58814087262E+02  0.11745286852E+02 -0.32202741202E+03  0.36949031267E+03  0.17095142129E+03 0.  0.
         24    2    3    3    0    0  0.30994467099E+02 -0.10177812759E+02 -0.18470501441E+03  0.20388315818E+03  0.79925934326E+02 0.  0.
         -6    2    1    2    0  502  0.58814087262E+02 -0.11745286852E+02 -0.44200929631E+01  0.18238587119E+03  0.17218600455E+03 0.  0.
        -24    2    5    5    0    0 -0.11383517849E+02  0.29274702281E+02  0.36921198584E+02  0.91053863336E+02  0.77078132121E+02 0.  0.
          5    1    3    3  501    0 -0.89808554361E+02  0.21923099612E+02 -0.13732239761E+03  0.16560715449E+03  0.47000000000E+01 0. -1.
        -13    1    4    4    0    0  0.64732240375E+01  0.26453378475E+02 -0.13380581098E+03  0.13654918130E+03  0.00000000000E+00 0.  1.
         14    1    4    4    0    0  0.24521243061E+02 -0.36631191234E+02 -0.50899203432E+02  0.67333976880E+02  0.00000000000E+00 0. -1.
         -5    1    5    5    0  502  0.70197605111E+02 -0.41019989134E+02 -0.41341291547E+02  0.91332007854E+02  0.47000000000E+01 0.  1.
         13    1    6    6    0    0 -0.10991276621E+01  0.48046405975E+02 -0.36546495806E+00  0.48060365930E+02  0.00000000000E+00 0. -1.
        -14    1    6    6    0    0 -0.10284390187E+02 -0.18771703693E+02  0.37286663542E+02  0.42993497406E+02  0.00000000000E+00 0.  1.
</event>
<event>
12    1  0.8313893E-002  0.2013023E+03  0.7818608E-02  0.1148918E+00
         21   -1    0    0  503  502  0.00000000000E+00  0.00000000000E+00  0.12596862020E+03  0.12596862020E+03  0.00000000000E+00 0. -1.
         21   -1    0    0  501  503 -0.00000000000E+00 -0.00000000000E+00 -0.46963657204E+03  0.46963657204E+03  0.00000000000E+00 0.  1.
          6    2    1    2  501    0  0.10015504521E+03  0.18277166212E+02 -0.33977124106E+03  0.39426519653E+03  0.17214953111E+03 0.  0.
         24    2    3    3    0    0  0.90515975514E+02  0.15253164309E+02 -0.35505814808E+03  0.37534864879E+03  0.79965735112E+02 0.  0.
         -6    2    1    2    0  502 -0.10015504521E+03 -0.18277166212E+02 -0.38967107772E+01  0.20133999570E+03  0.17365921118E+03 0.  0.
        -24    2    5    5    0    0  0.93404294019E+01  0.23318300776E+02 -0.18332629435E+01  0.84097556068E+02  0.80237468250E+02 0.  0.
          5    1    3    3  501    0  0.96390696983E+01  0.30240019028E+01  0.15286907018E+02  0.18916547738E+02  0.47000000000E+01 0. -1.
        -11    1    4    4    0    0  0.79457102605E+02  0.51784811280E+01 -0.15069205229E+03  0.17043574286E+03  0.00000000000E+00 0.  1.
         12    1    4    4    0    0  0.11058872909E+02  0.10074683181E+02 -0.20436609579E+03  0.20491290594E+03  0.00000000000E+00 0. -1.
         -5    1    5    5    0  502 -0.10949547461E+03 -0.41595466988E+02 -0.20634478336E+01  0.11724243964E+03  0.47000000000E+01 0.  1.
         13    1    6    6    0    0 -0.20247399490E+02  0.31970451714E+02 -0.25156828693E+02  0.45441533851E+02  0.00000000000E+00 0. -1.
        -14    1    6    6    0    0  0.29587828892E+02 -0.86521509378E+01  0.23323565749E+02  0.38656022217E+02  0.00000000000E+00 0.  1.
</event>
<event>
12    1  0.8313893E-002  0.1887183E+03  0.7818608E-02  0.1159853E+00
         21   -1    0    0  503  502  0.00000000000E+00  0.00000000000E+00  0.47562735958E+03  0.47562735958E+03  0.00000000000E+00 0. -1.
         21   -1    0    0  501  503 -0.00000000000E+00 -0.00000000000E+00 -0.74576938050E+02  0.74576938050E+02  0.00000000000E+00 0.  1.
          6    2    1    2  501    0 -0.17141941058E+02  0.74912041028E+02  0.19001647421E+03  0.26709667956E+03  0.17125628668E+03 0.  0.
         24    2    3    3    0    0  0.43897316476E+02  0.67941260717E+02  0.76510347898E+02  0.13794516603E+03  0.81437375900E+02 0.  0.
         -6    2    1    2    0  502  0.17141941058E+02 -0.74912041028E+02  0.21103394732E+03  0.28310761806E+03  0.17236280472E+03 0.  0.
        -24    2    5    5    0    0 -0.54811181048E+02 -0.52487467311E+02  0.15347587085E+03  0.18815955092E+03  0.78038284695E+02 0.  0.
          5    1    3    3  501    0 -0.61039257534E+02  0.69707803109E+01  0.11350612631E+03  0.12915151354E+03  0.47000000000E+01 0. -1.
        -13    1    4    4    0    0  0.41457218164E+02  0.41505536976E+02  0.18362545648E+01  0.58692268386E+02  0.00000000000E+00 0.  1.
         14    1    4    4    0    0  0.24400983125E+01  0.26435723741E+02  0.74674093333E+02  0.79252897642E+02  0.00000000000E+00 0. -1.
         -5    1    5    5    0  502  0.71953122105E+02 -0.22424573717E+02  0.57558076471E+02  0.94948067143E+02  0.47000000000E+01 0.  1.
         13    1    6    6    0    0 -0.29304969505E+02 -0.63941697983E+02  0.66486997814E+02  0.96787617271E+02  0.00000000000E+00 0. -1.
        -14    1    6    6    0    0 -0.25506211543E+02  0.11454230672E+02  0.86988873032E+02  0.91371933650E+02  0.00000000000E+00 0.  1.
</event>
<event>
12    1  0.8313893E-002  0.1884782E+03  0.7818608E-02  0.1160641E+00
         21   -1    0    0  501  502  0.00000000000E+00  0.00000000000E+00  0.98942725353E+03  0.98942725353E+03  0.00000000000E+00 0. -1.
         21   -1    0    0  502  503 -0.00000000000E+00 -0.00000000000E+00 -0.72780668791E+02  0.72780668791E+02  0.00000000000E+00 0. -1.
         -6    2    1    2    0  503 -0.54764131874E+01 -0.77263763356E+02  0.78982734435E+02  0.20435824702E+03  0.17182648387E+03 0.  0.
        -24    2    3    3    0    0 -0.40448819107E+02 -0.30371040985E+02 -0.12711736115E+02  0.95491527974E+02  0.79990853115E+02 0.  0.
          6    2    1    2  501    0  0.54764131874E+01  0.77263763356E+02  0.83766385030E+03  0.85784967530E+03  0.16800493765E+03 0.  0.
         24    2    5    5    0    0  0.15416492169E+02 -0.21888988652E+02  0.41105070504E+03  0.41972761570E+03  0.80571665031E+02 0.  0.
          5    1    5    5  501    0 -0.99400789815E+01  0.99152752009E+02  0.42661314526E+03  0.43812205960E+03  0.47000000000E+01 0. -1.
        -11    1    6    6    0    0  0.47557250882E+02 -0.22281187192E+02  0.23932750617E+03  0.24502203701E+03  0.00000000000E+00 0.  1.
         12    1    6    6    0    0 -0.32140758713E+02  0.39219853934E+00  0.17172319888E+03  0.17470557868E+03  0.00000000000E+00 0. -1.
         -5    1    3    3    0  503  0.34972405920E+02 -0.46892722371E+02  0.91694470550E+02  0.10886671905E+03  0.47000000000E+01 0.  1.
         11    1    4    4    0    0 -0.60947848261E+01 -0.40373468729E+02 -0.34623629830E+02  0.53534653468E+02  0.00000000000E+00 0. -1.
        -12    1    4    4    0    0 -0.34354034281E+02  0.10002427744E+02  0.21911893714E+02  0.41956874506E+02  0.00000000000E+00 0.  1.
</event>
<event>
12    1  0.8313893E-002  0.1779925E+03  0.7818608E-02  0.1169790E+00
         21   -1    0    0  503  502  0.00000000000E+00  0.00000000000E+00  0.10871075362E+04  0.10871075362E+04  0.00000000000E+00 0. -1.
         21   -1    0    0  501  503 -0.00000000000E+00 -0.00000000000E+00 -0.35016599051E+03  0.35016599051E+03  0.00000000000E+00 0. -1.
          6    2    1    2  501    0 -0.45099516662E+02  0.67714328925E+01 -0.31964399741E+03  0.36580055024E+03  0.17192422393E+03 0.  0.
         24    2    3    3    0    0 -0.14509425494E+02 -0.59448512847E+02 -0.22645424739E+03  0.24736383972E+03  0.78502827550E+02 0.  0.
         -6    2    1    2    0  502  0.45099516662E+02 -0.67714328925E+01  0.10565855431E+04  0.10714729765E+04  0.17205089574E+03 0.  0.
        -24    2    5    5    0    0  0.44525668367E+02 -0.48547818842E+02  0.38666276514E+03  0.40023217456E+03  0.79613276223E+02 0.  0.
          5    1    3    3  501    0 -0.30590091168E+02  0.66219945739E+02 -0.93189750014E+02  0.11843671052E+03  0.47000000000E+01 0. -1.
        -11    1    4    4    0    0  0.25687818809E+02 -0.23742880815E+01 -0.34275912714E+02  0.42899177981E+02  0.00000000000E+00 0.  1.
         12    1    4    4    0    0 -0.40197244303E+02 -0.57074224765E+02 -0.19217833468E+03  0.20446466174E+03  0.00000000000E+00 0. -1.
         -5    1    5    5    0  502  0.57384829472E+00  0.41776385950E+02  0.66992277799E+03  0.67124080195E+03  0.47000000000E+01 0.  1.
         13    1    6    6    0    0  0.48102300876E+01 -0.32894323151E+02  0.31550498646E+03  0.31725158990E+03  0.00000000000E+00 0. -1.
        -14    1    6    6    0    0  0.39715438279E+02 -0.15653495691E+02  0.71157778675E+02  0.82980584663E+02  0.00000000000E+00 0.  1.
</event>
<event>
12    1  0.8313893E-002  0.2802357E+03  0.7818608E-02  0.1096634E+00
         21   -1    0    0  503  502  0.00000000000E+00  0.00000000000E+00  0.34165140960E+03  0.34165140960E+03  0.00000000000E+00 0.  1.
         21   -1    0    0  501  503 -0.00000000000E+00 -0.00000000000E+00 -0.22923033202E+03  0.22923033202E+03  0.00000000000E+00 0.  1.
          6    2    1    2  501    0  0.12608856725E+02  0.22014893792E+03  0.10194501452E+03  0.29820264382E+03  0.17293782888E+03 0.  0.
         24    2    3    3    0    0  0.39728908937E+02  0.19683106637E+03  0.29453238358E+02  0.21723124160E+03  0.77466535893E+02 0.  0.
         -6    2    1    2    0  502 -0.12608856725E+02 -0.22014893792E+03  0.10476063054E+02  0.27267909780E+03  0.16006125184E+03 0.  0.
        -24    2    5    5    0    0 -0.10750386133E+02 -0.21119615714E+03 -0.32608450035E+02  0.22838495073E+03  0.79856039926E+02 0.  0.
          5    1    3    3  501    0 -0.27120052213E+02  0.23317871551E+02  0.72491776164E+02  0.80971402218E+02  0.47000000000E+01 0. -1.
        -13    1    4    4    0    0 -0.44278700389E+01  0.15171969760E+03  0.26139061808E+02  0.15401858078E+03  0.00000000000E+00 0.  1.
         14    1    4    4    0    0  0.44156778976E+02  0.45111368773E+02  0.33141765507E+01  0.63212660823E+02  0.00000000000E+00 0. -1.
         -5    1    5    5    0  502 -0.18584705917E+01 -0.89527807875E+01  0.43084513090E+02  0.44294147073E+02  0.47000000000E+01 0.  1.
         13    1    6    6    0    0 -0.15187952745E+02 -0.86640086542E+02  0.24470122778E+02  0.91301508275E+02  0.00000000000E+00 0. -1.
        -14    1    6    6    0    0  0.44375666114E+01 -0.12455607059E+03 -0.57078572813E+02  0.13708344245E+03  0.00000000000E+00 0.  1.
</event>
<event>
12    1  0.8313893E-002  0.1749567E+03  0.7818608E-02  0.1173192E+00
         21   -1    0    0  503  502  0.00000000000E+00  0.00000000000E+00  0.27231222839E+03  0.27231222839E+03  0.00000000000E+00 0.  1.
         21   -1    0    0  501  503 -0.00000000000E+00 -0.00000000000E+00 -0.12321510720E+03  0.12321510720E+03  0.00000000000E+00 0.  1.
          6    2    1    2  501    0  0.30573534143E+02 -0.10681080301E+00  0.13497854746E+02  0.17547657545E+03  0.17226457572E+03 0.  0.
         24    2    3    3    0    0 -0.45459464706E+02 -0.23360641292E+02  0.18228701015E+02  0.95687926801E+02  0.78813776092E+02 0.  0.
         -6    2    1    2    0  502 -0.30573534143E+02  0.10681080301E+00  0.13559926644E+03  0.22005076015E+03  0.17058846263E+03 0.  0.
        -24    2    5    5    0    0 -0.51341235962E+02 -0.57225841095E+02  0.80087126828E+02  0.13745525145E+03  0.81051088014E+02 0.  0.
          5    1    3    3  501    0  0.76032998849E+02  0.23253830489E+02 -0.47308462690E+01  0.79788648646E+02  0.47000000000E+01 0. -1.
        -11    1    4    4    0    0 -0.22808645342E+02 -0.46948799114E+02 -0.92059274472E+01  0.53001633378E+02  0.00000000000E+00 0.  1.
         12    1    4    4    0    0 -0.22650819364E+02  0.23588157822E+02  0.27434628462E+02  0.42686293423E+02  0.00000000000E+00 0. -1.
         -5    1    5    5    0  502  0.20767701819E+02  0.57332651898E+02  0.55512139615E+02  0.82595508698E+02  0.47000000000E+01 0.  1.
         11    1    6    6    0    0 -0.21207293885E+02 -0.61582687643E+02  0.84501487951E+02  0.10668963491E+03  0.00000000000E+00 0. -1.
        -12    1    6    6    0    0 -0.30133942077E+02  0.43568465480E+01 -0.44143611225E+01  0.30765616540E+02  0.00000000000E+00 0.  1.
</event>
<event>
12    1  0.8313893E-002  0.1726660E+03  0.7818608E-02  0.1175413E+00
         21   -1    0    0  503  502  0.00000000000E+00  0.00000000000E+00  0.13089525707E+04  0.13089525707E+04  0.00000000000E+00 0. -1.
         21   -1    0    0  501  503 -0.00000000000E+00 -0.00000000000E+00 -0.27937977623E+02  0.27937977623E+02  0.00000000000E+00 0. -1.
          6    2    1    2  501    0  0.15964881955E+01  0.90447382299E+01  0.35056965234E+03  0.39078462410E+03  0.17242153353E+03 0.  0.
         24    2    3    3    0    0  0.27779642228E+02  0.35277080378E+02  0.33911804093E+03  0.35170876539E+03  0.81742455623E+02 0.  0.
         -6    2    1    2    0  502 -0.15964881955E+01 -0.90447382299E+01  0.93044494073E+03  0.94610592421E+03  0.17118491769E+03 0.  0.
        -24    2    5    5    0    0  0.54581675304E+02 -0.23855609162E+02  0.73636469806E+03  0.74346195430E+03  0.83393402406E+02 0.  0.
          5    1    3    3  501    0 -0.26183154033E+02 -0.26232342148E+02  0.11451611418E+02  0.39075858707E+02  0.47000000000E+01 0. -1.
        -11    1    4    4    0    0 -0.15485823860E+02  0.31964243970E+02  0.25084598773E+03  0.25334804754E+03  0.00000000000E+00 0.  1.
         12    1    4    4    0    0  0.43265466088E+02  0.33128364081E+01  0.88272053195E+02  0.98360717851E+02  0.00000000000E+00 0. -1.
         -5    1    5    5    0  502 -0.56178163500E+02  0.14810870932E+02  0.19408024266E+03  0.20264396992E+03  0.47000000000E+01 0.  1.
         13    1    6    6    0    0  0.34964808231E+02 -0.51791773229E+02  0.34518549389E+03  0.35079616700E+03  0.00000000000E+00 0. -1.
        -14    1    6    6    0    0  0.19616867073E+02  0.27936164067E+02  0.39117920418E+03  0.39266578730E+03  0.00000000000E+00 0.  1.
</event>
<event>
12    1  0.8313893E-002  0.2054843E+03  0.7818608E-02  0.1145412E+00
         21   -1    0    0  503  502  0.00000000000E+00  0.00000000000E+00  0.47391330962E+03  0.47391330962E+03  0.00000000000E+00 0. -1.
         21   -1    0    0  501  503 -0.00000000000E+00 -0.00000000000E+00 -0.14307364548E+03  0.14307364548E+03  0.00000000000E+00 0.  1.
          6    2    1    2  501    0  0.10541355599E+03  0.36529473910E+02 -0.24610300147E+02  0.20695283755E+03  0.17256126403E+03 0.  0.
         24    2    3    3    0    0  0.10575735985E+03 -0.21821525071E+02 -0.46707514687E+02  0.14438020636E+03  0.83685446421E+02 0.  0.
         -6    2    1    2    0  502 -0.10541355599E+03 -0.36529473910E+02  0.35544996429E+03  0.41003411755E+03  0.17128012199E+03 0.  0.
        -24    2    5    5    0    0 -0.83494032463E+02 -0.42258159795E+02  0.36258401303E+03  0.38582114571E+03  0.92918159938E+02 0.  0.
          5    1    3    3  501    0 -0.34380385228E+00  0.58350998981E+02  0.22097214540E+02  0.62572631186E+02  0.47000000000E+01 0. -1.
        -11    1    4    4    0    0  0.74017946684E+02  0.10891407817E+02 -0.61086638936E+02  0.96586006502E+02  0.00000000000E+00 0.  1.
         12    1    4    4    0    0  0.31739413162E+02 -0.32712932888E+02  0.14379124249E+02  0.47794199859E+02  0.00000000000E+00 0. -1.
         -5    1    5    5    0  502 -0.21919523531E+02  0.57286858846E+01 -0.71340487402E+01  0.24212971837E+02  0.47000000000E+01 0.  1.
         11    1    6    6    0    0  0.93862332089E+01  0.14170915226E+02  0.10319088558E+03  0.10458142799E+03  0.00000000000E+00 0. -1.
        -12    1    6    6    0    0 -0.92880265672E+02 -0.56429075020E+02  0.25939312744E+03  0.28123971772E+03  0.00000000000E+00 0.  1.
</event>
<event>
12    1  0.8313893E-002  0.1844192E+03  0.7818608E-02  0.1164111E+00
         21   -1    0    0  503  502  0.00000000000E+00  0.00000000000E+00  0.44507051828E+02  0.44507051828E+02  0.00000000000E+00 0.  1.
         21   -1    0    0  501  503 -0.00000000000E+00 -0.00000000000E+00 -0.77423370226E+03  0.77423370226E+03  0.00000000000E+00 0.  1.
          6    2    1    2  501    0 -0.29769336441E+02  0.56309141959E+02 -0.29837902760E+03  0.34962326279E+03  0.17073209690E+03 0.  0.
         24    2    3    3    0    0  0.16662344053E+02  0.83443307067E+02 -0.13226668929E+03  0.17495911991E+03  0.76653749676E+02 0.  0.
         -6    2    1    2    0  502  0.29769336441E+02 -0.56309141959E+02 -0.43134762283E+03  0.46911749130E+03  0.17307084116E+03 0.  0.
        -24    2    5    5    0    0 -0.43456491924E+02 -0.74666354251E+01 -0.27159129580E+03  0.28665712188E+03  0.80413035212E+02 0.  0.
          5    1    3    3  501    0 -0.46431680495E+02 -0.27134165108E+02 -0.16611233831E+03  0.17466414288E+03  0.47000000000E+01 0. -1.
        -13    1    4    4    0    0 -0.30071012086E+02  0.33807044529E+02 -0.64902162868E+02  0.79116829895E+02  0.00000000000E+00 0.  1.
         14    1    4    4    0    0  0.46733356140E+02  0.49636262538E+02 -0.67364526425E+02  0.95842290015E+02  0.00000000000E+00 0. -1.
         -5    1    5    5    0  502  0.73225828365E+02 -0.48842506534E+02 -0.15975632703E+03  0.18246036943E+03  0.47000000000E+01 0.  1.
         11    1    6    6    0    0 -0.13718255237E+01 -0.28410802997E+02 -0.19296384400E+03  0.19504897007E+03  0.00000000000E+00 0. -1.
        -12    1    6    6    0    0 -0.42084666400E+02  0.20944167572E+02 -0.78627451799E+02  0.91608151809E+02  0.00000000000E+00 0.  1.
</event>
<event>
12    1  0.8313893E-002  0.2997486E+03  0.7818608E-02  0.1085470E+00
         21   -1    0    0  501  502  0.00000000000E+00  0.00000000000E+00  0.99413895869E+02  0.99413895869E+02  0.00000000000E+00 0. -1.
         21   -1    0    0  502  503 -0.00000000000E+00 -0.00000000000E+00 -0.12167215576E+04  0.12167215576E+04  0.00000000000E+00 0.  1.
         -6    2    1    2    0  503  0.22323897022E+03  0.10134648910E+03 -0.89314372051E+03  0.94183785921E+03  0.17101490830E+03 0.  0.
        -24    2    3    3    0    0  0.24459342623E+03  0.95748496049E+02 -0.84990739500E+03  0.89306470920E+03  0.78919427874E+02 0.  0.
          6    2    1    2  501    0 -0.22323897022E+03 -0.10134648910E+03 -0.22416394117E+03  0.37429759422E+03  0.17246004707E+03 0.  0.
         24    2    5    5    0    0 -0.19329750979E+03 -0.10776984307E+03 -0.24275555697E+03  0.33816604697E+03  0.80297873665E+02 0.  0.
          5    1    5    5  501    0 -0.29941460434E+02  0.64233539727E+01  0.18591615794E+02  0.36131547254E+02  0.47000000000E+01 0. -1.
        -11    1    6    6    0    0 -0.52666439593E+02 -0.25946490089E+02 -0.12250965466E+03  0.13585135145E+03  0.00000000000E+00 0.  1.
         12    1    6    6    0    0 -0.14063107020E+03 -0.81823352982E+02 -0.12024590231E+03  0.20231469551E+03  0.00000000000E+00 0. -1.
         -5    1    3    3    0  503 -0.21354456004E+02  0.55979930486E+01 -0.43236325515E+02  0.48773150005E+02  0.47000000000E+01 0.  1.
         13    1    4    4    0    0  0.86759047212E+02  0.16864049343E+01 -0.20790625791E+03  0.22528867773E+03  0.00000000000E+00 0. -1.
        -14    1    4    4    0    0  0.15783437902E+03  0.94062091115E+02 -0.64200113709E+03  0.66777603148E+03  0.00000000000E+00 0.  1.
</event>
<event>
12    1  0.8313893E-002  0.2064920E+03  0.7818608E-02  0.1144602E+00
         21   -1    0    0  501  502  0.00000000000E+00  0.00000000000E+00  0.22477495137E+03  0.22477495137E+03  0.00000000000E+00 0.  1.
         21   -1    0    0  502  503 -0.00000000000E+00 -0.00000000000E+00 -0.18907016113E+03  0.18907016113E+03  0.00000000000E+00 0.  1.
         -6    2    1    2    0  503 -0.10639767785E+02  0.11172087229E+03  0.82384459420E+01  0.20553439844E+03  0.17199348530E+03 0.  0.
        -24    2    3    3    0    0 -0.21302632224E+02  0.75168189547E+02 -0.62098742462E+02  0.12541445482E+03  0.75950462816E+02 0.  0.
          6    2    1    2  501    0  0.10639767785E+02 -0.11172087229E+03  0.27466344295E+02  0.20831071407E+03  0.17333261541E+03 0.  0.
         24    2    5    5    0    0 -0.24889002434E+02  0.55527079545E+01  0.12895323911E+02  0.84820670864E+02  0.79862142591E+02 0.  0.
          5    1    5    5  501    0  0.35528770220E+02 -0.11727358024E+03  0.14571020383E+02  0.12349004321E+03  0.47000000000E+01 0. -1.
        -11    1    6    6    0    0 -0.33145461217E+02 -0.51970128571E+01 -0.26758363880E+02  0.42914340022E+02  0.00000000000E+00 0.  1.
         12    1    6    6    0    0  0.82564587831E+01  0.10749720812E+02  0.39653687792E+02  0.41906330842E+02  0.00000000000E+00 0. -1.
         -5    1    3    3    0  503  0.10662864438E+02  0.36552682740E+02  0.70337188404E+02  0.80119943622E+02  0.47000000000E+01 0.  1.
         13    1    4    4    0    0  0.20994635182E+02  0.24104026317E+02 -0.47928873357E+02  0.57610378339E+02  0.00000000000E+00 0. -1.
        -14    1    4    4    0    0 -0.42297267405E+02  0.51064163230E+02 -0.14169869105E+02  0.67804076476E+02  0.00000000000E+00 0.  1.
</event>
<event>
12    1  0.8313893E-002  0.1819539E+03  0.7818608E-02  0.1165956E+00
         21   -1    0    0  501  502  0.00000000000E+00  0.00000000000E+00  0.16415471342E+03  0.16415471342E+03  0.00000000000E+00 0.  1.
         21   -1    0    0  502  503 -0.00000000000E+00 -0.00000000000E+00 -0.24007658789E+03  0.24007658789E+03  0.00000000000E+00 0.  1.
         -6    2    1    2    0  503  0.59276124091E+02 -0.22663449204E+01 -0.11892706229E+03  0.21726423012E+03  0.17187583989E+03 0.  0.
        -24    2    3    3    0    0  0.92144776274E+02  0.21712383374E+02 -0.12519943620E+03  0.17583042289E+03  0.79242358636E+02 0.  0.
          6    2    1    2  501    0 -0.59276124091E+02  0.22663449204E+01  0.43005187820E+02  0.18696707119E+03  0.17201291906E+03 0.  0.
         24    2    5    5    0    0 -0.36796555387E+01 -0.24068415621E+02  0.77064148101E+02  0.11649303552E+03  0.83898247342E+02 0.  0.
          5    1    5    5  501    0 -0.55596468552E+02  0.26334760542E+02 -0.34058960281E+02  0.70474035671E+02  0.47000000000E+01 0. -1.
        -11    1    6    6    0    0 -0.18320925374E+02 -0.43555983346E+02  0.78987538237E+02  0.92042442322E+02  0.00000000000E+00 0.  1.
         12    1    6    6    0    0  0.14641269835E+02  0.19487567725E+02 -0.19233901358E+01  0.24450593200E+02  0.00000000000E+00 0. -1.
         -5    1    3    3    0  503 -0.32868652183E+02 -0.23978728295E+02  0.62723739177E+01  0.41433807229E+02  0.47000000000E+01 0.  1.
         11    1    4    4    0    0 -0.51054571070E+01  0.41198766358E+01  0.77616696295E+01  0.10162804298E+02  0.00000000000E+00 0. -1.
        -12    1    4    4    0    0  0.97250233381E+02  0.17592506738E+02 -0.13296110583E+03  0.16566761859E+03  0.00000000000E+00 0.  1.
</event>
<event>
12    1  0.8313893E-002  0.2862539E+03  0.7818608E-02  0.1092353E+00
         21   -1    0    0  503  502  0.00000000000E+00  0.00000000000E+00  0.14338309463E+03  0.14338309463E+03  0.00000000000E+00 0. -1.
         21   -1    0    0  501  503 -0.00000000000E+00 -0.00000000000E+00 -0.66987640488E+03  0.66987640488E+03  0.00000000000E+00 0. -1.
          6    2    1    2  501    0 -0.11132770488E+02  0.22881004900E+03 -0.10712602388E+03  0.30564244078E+03  0.17164888438E+03 0.  0.
         24    2    3    3    0    0  0.47562654054E+02  0.19713505942E+03 -0.64873754091E+02  0.22654881190E+03  0.77403633572E+02 0.  0.
         -6    2    1    2    0  502  0.11132770488E+02 -0.22881004900E+03 -0.41936728636E+03  0.50761705873E+03  0.17125472356E+03 0.  0.
        -24    2    5    5    0    0  0.26972535021E+02 -0.37302113582E+02 -0.15223653441E+03  0.17851659366E+03  0.81075560319E+02 0.  0.
          5    1    3    3  501    0 -0.58695424542E+02  0.31674989588E+02 -0.42252269790E+02  0.79093628884E+02  0.47000000000E+01 0. -1.
        -11    1    4    4    0    0  0.27878032955E+02  0.15042693817E+02 -0.21635596467E+02  0.38361000941E+02  0.00000000000E+00 0.  1.
         12    1    4    4    0    0  0.19684621098E+02  0.18209236560E+03 -0.43238157624E+02  0.18818781095E+03  0.00000000000E+00 0. -1.
         -5    1    5    5    0  502 -0.15839764533E+02 -0.19150793542E+03 -0.26713075195E+03  0.32910046507E+03  0.47000000000E+01 0.  1.
         11    1    6    6    0    0 -0.22380413841E+02 -0.27467979155E+02 -0.30360024615E+02  0.46659445958E+02  0.00000000000E+00 0. -1.
        -12    1    6    6    0    0  0.49352948862E+02 -0.98341344277E+01 -0.12187650979E+03  0.13185714770E+03  0.00000000000E+00 0.  1.
</event>
<event>
12    1  0.8313893E-002  0.1802330E+03  0.7818608E-02  0.1168324E+00
         21   -1    0    0  503  502  0.00000000000E+00  0.00000000000E+00  0.82363256985E+02  0.82363256985E+02  0.00000000000E+00 0.  1.
         21   -1    0    0  501  503 -0.00000000000E+00 -0.00000000000E+00 -0.43399262128E+03  0.43399262128E+03  0.00000000000E+00 0.  1.
          6    2    1    2  501    0  0.52808395241E+02  0.18195614078E+02 -0.90182028278E+02  0.19880489092E+03  0.16813916692E+03 0.  0.
         24    2    3    3    0    0  0.16985301468E+02  0.62631399487E+02 -0.14511888947E+02  0.10390550705E+03  0.79840884311E+02 0.  0.
         -6    2    1    2    0  502 -0.52808395241E+02 -0.18195614078E+02 -0.26144733602E+03  0.31755098734E+03  0.17135960163E+03 0.  0.
        -24    2    5    5    0    0 -0.21466121942E+02  0.49978141198E+02 -0.12375785502E+03  0.16067370351E+03  0.86841368788E+02 0.  0.
          5    1    3    3  501    0  0.35823093773E+02 -0.44435785409E+02 -0.75670139331E+02  0.94899383869E+02  0.47000000000E+01 0. -1.
        -11    1    4    4    0    0 -0.62359495786E+01  0.13130079849E+02  0.30042329662E+02  0.33374056324E+02  0.00000000000E+00 0.  1.
         12    1    4    4    0    0  0.23221251046E+02  0.49501319638E+02 -0.44554218610E+02  0.70531450729E+02  0.00000000000E+00 0. -1.
         -5    1    5    5    0  502 -0.31342273299E+02 -0.68173755276E+02 -0.13768948100E+03  0.15687728383E+03  0.47000000000E+01 0.  1.
         11    1    6    6    0    0 -0.43375921523E+01  0.20893952897E+02  0.93901369101E+01  0.23314086826E+02  0.00000000000E+00 0. -1.
        -12    1    6    6    0    0 -0.17128529790E+02  0.29084188301E+02 -0.13314799193E+03  0.13735961669E+03  0.00000000000E+00 0.  1.
</event>
<event>
12    1  0.8313893E-002  0.2137246E+03  0.7818608E-02  0.1140553E+00
         21   -1    0    0  501  502  0.00000000000E+00  0.00000000000E+00  0.10027332125E+03  0.10027332125E+03  0.00000000000E+00 0. -1.
         21   -1    0    0  502  503 -0.00000000000E+00 -0.00000000000E+00 -0.53080792480E+03  0.53080792480E+03  0.00000000000E+00 0.  1.
         -6    2    1    2    0  503 -0.63752361612E+02 -0.88427942479E+02 -0.35312685523E+03  0.41276724315E+03  0.18383241419E+03 0.  0.
        -24    2    3    3    0    0  0.66476648576E+01 -0.30146303681E+00 -0.64948950226E+02  0.10326597491E+03  0.80007581586E+02 0.  0.
          6    2    1    2  501    0  0.63752361612E+02  0.88427942479E+02 -0.77407748311E+02  0.21831400290E+03  0.17258383396E+03 0.  0.
         24    2    5    5    0    0  0.17369777156E+02  0.11706133548E+03 -0.80224330435E+02  0.16353044268E+03  0.79380079782E+02 0.  0.
          5    1    5    5  501    0  0.46382584457E+02 -0.28633393004E+02  0.28165821240E+01  0.54783560222E+02  0.47000000000E+01 0. -1.
        -11    1    6    6    0    0  0.25585502013E+02  0.32298868603E+02 -0.65090598740E+02  0.77036490514E+02  0.00000000000E+00 0.  1.
         12    1    6    6    0    0 -0.82157248569E+01  0.84762466880E+02 -0.15133731695E+02  0.86493952167E+02  0.00000000000E+00 0. -1.
         -5    1    3    3    0  503 -0.70400026470E+02 -0.88126479442E+02 -0.28817790501E+03  0.30950126824E+03  0.47000000000E+01 0.  1.
         11    1    4    4    0    0 -0.34671399372E+02  0.10654555131E+02 -0.20795240578E+02  0.41809897275E+02  0.00000000000E+00 0. -1.
        -12    1    4    4    0    0  0.41319064230E+02 -0.10956018168E+02 -0.44153709648E+02  0.61456077638E+02  0.00000000000E+00 0.  1.
</event>
<event>
12    1  0.8313893E-002  0.2168028E+03  0.7818608E-02  0.1136964E+00
         21   -1    0    0  501  502  0.00000000000E+00  0.00000000000E+00  0.37794626778E+03  0.37794626778E+03  0.00000000000E+00 0.  1.
         21   -1    0    0  502  503 -0.00000000000E+00 -0.00000000000E+00 -0.12894246656E+03  0.12894246656E+03  0.00000000000E+00 0.  1.
         -6    2    1    2    0  503  0.61071760063E+02  0.11037898471E+03  0.68187064719E+02  0.22727281919E+03  0.17632407210E+03 0.  0.
        -24    2    3    3    0    0 -0.34788037302E+02  0.35220485465E+02  0.36868399286E+02  0.10141238233E+03  0.80464292013E+02 0.  0.
          6    2    1    2  501    0 -0.61071760063E+02 -0.11037898471E+03  0.18081673650E+03  0.27961591515E+03  0.17197990481E+03 0.  0.
         24    2    5    5    0    0 -0.16931603633E+02 -0.32288654485E+02  0.16725366142E+03  0.18877264302E+03  0.79574412250E+02 0.  0.
          5    1    5    5  501    0 -0.44140156430E+02 -0.78090330229E+02  0.13563075086E+02  0.90843272127E+02  0.47000000000E+01 0. -1.
        -11    1    6    6    0    0 -0.39560730643E+02 -0.45749417755E+02  0.12709019512E+03  0.14074792478E+03  0.00000000000E+00 0.  1.
         12    1    6    6    0    0  0.22629127010E+02  0.13460763270E+02  0.40163466299E+02  0.48024718242E+02  0.00000000000E+00 0. -1.
         -5    1    3    3    0  503  0.95859797365E+02  0.75158499249E+02  0.31318665433E+02  0.12586043685E+03  0.47000000000E+01 0.  1.
         11    1    4    4    0    0  0.20466005987E+01 -0.29128565630E+01 -0.21943518846E+02  0.22230414452E+02  0.00000000000E+00 0. -1.
        -12    1    4    4    0    0 -0.36834637901E+02  0.38133342028E+02  0.58811918132E+02  0.79181967883E+02  0.00000000000E+00 0.  1.
</event>
<event>
12    1  0.8313893E-002  0.4448720E+03  0.7818608E-02  0.1029403E+00
         21   -1    0    0  503  502  0.00000000000E+00  0.00000000000E+00  0.90594135088E+03  0.90594135088E+03  0.00000000000E+00 0.  1.
         21   -1    0    0  501  503 -0.00000000000E+00 -0.00000000000E+00 -0.25493729516E+03  0.25493729516E+03  0.00000000000E+00 0. -1.
          6    2    1    2  501    0 -0.10096917026E+03  0.39615783011E+03  0.10379306085E+03  0.45681950439E+03  0.17542879014E+03 0.  0.
         24    2    3    3    0    0 -0.57739180714E+02  0.36251819861E+03  0.12813360862E+03  0.39669455891E+03  0.78708920019E+02 0.  0.
         -6    2    1    2    0  502  0.10096917026E+03 -0.39615783011E+03  0.54721099487E+03  0.70405914165E+03  0.17065638673E+03 0.  0.
        -24    2    5    5    0    0 -0.88379672765E+01 -0.12137337645E+03  0.19081868396E+03  0.24080794338E+03  0.82262319850E+02 0.  0.
          5    1    3    3  501    0 -0.43229989548E+02  0.33639631497E+02 -0.24340547778E+02  0.60124945486E+02  0.47000000000E+01 0. -1.
        -11    1    4    4    0    0  0.70315665103E+01  0.34819219066E+01 -0.38280109978E+01  0.87304281654E+01  0.00000000000E+00 0.  1.
         12    1    4    4    0    0 -0.64770747224E+02  0.35903627671E+03  0.13196161962E+03  0.38796413074E+03  0.00000000000E+00 0. -1.
         -5    1    5    5    0  502  0.10980713754E+03 -0.27478445366E+03  0.35639231091E+03  0.46325119827E+03  0.47000000000E+01 0.  1.
         13    1    6    6    0    0 -0.22743365405E+02 -0.62627124854E+02  0.15937151521E+03  0.17273881237E+03  0.00000000000E+00 0. -1.
        -14    1    6    6    0    0  0.13905398129E+02 -0.58746251598E+02  0.31447168752E+02  0.68069131010E+02  0.00000000000E+00 0.  1.
</event>
<event>
12    1  0.8313893E-002  0.2089882E+03  0.7818608E-02  0.1142439E+00
         21   -1    0    0  503  502  0.00000000000E+00  0.00000000000E+00  0.26331688073E+02  0.26331688073E+02  0.00000000000E+00 0.  1.
         21   -1    0    0  501  503 -0.00000000000E+00 -0.00000000000E+00 -0.17616282643E+04  0.17616282643E+04  0.00000000000E+00 0. -1.
          6    2    1    2  501    0 -0.26094101164E+01  0.11805391506E+03 -0.10873111315E+04  0.11072134250E+04  0.17243124970E+03 0.  0.
         24    2    3    3    0    0 -0.36723670740E+02  0.10841062506E+03 -0.10316780232E+04  0.10410778933E+04  0.79888325723E+02 0.  0.
         -6    2    1    2    0  502  0.26094101164E+01 -0.11805391506E+03 -0.64798544475E+03  0.68074652742E+03  0.17200919194E+03 0.  0.
        -24    2    5    5    0    0  0.39746503154E+01 -0.14824584559E+03 -0.45719462139E+03  0.48751960169E+03  0.81583157727E+02 0.  0.
          5    1    3    3  501    0  0.34114260624E+02  0.96432899981E+01 -0.55633108264E+02  0.66135531714E+02  0.47000000000E+01 0. -1.
        -11    1    4    4    0    0  0.11306312476E+02  0.31844623275E+02 -0.11246775184E+03  0.11743469648E+03  0.00000000000E+00 0.  1.
         12    1    4    4    0    0 -0.48029983216E+02  0.76566001782E+02 -0.91921027140E+03  0.92364319679E+03  0.00000000000E+00 0. -1.
         -5    1    5    5    0  502 -0.13652401990E+01  0.30191930533E+02 -0.19079082336E+03  0.19322692573E+03  0.47000000000E+01 0.  1.
         13    1    6    6    0    0 -0.31272098074E+02 -0.24931338193E+02 -0.13281631658E+03  0.13870720851E+03  0.00000000000E+00 0. -1.
        -14    1    6    6    0    0  0.35246748390E+02 -0.12331450740E+03 -0.32437830481E+03  0.34881239318E+03  0.00000000000E+00 0.  1.
</event>
<event>
12    1  0.8313893E-002  0.1809805E+03  0.7818608E-02  0.1166913E+00
         21   -1    0    0  501  502  0.00000000000E+00  0.00000000000E+00  0.58792080526E+03  0.58792080526E+03  0.00000000000E+00 0. -1.
         21   -1    0    0  502  503 -0.00000000000E+00 -0.00000000000E+00 -0.55784998615E+02  0.55784998615E+02  0.00000000000E+00 0. -1.
         -6    2    1    2    0  503  0.53989525778E+02 -0.30395752754E+01  0.28261069892E+03  0.33559313125E+03  0.17271315724E+03 0.  0.
        -24    2    3    3    0    0  0.57487873686E+02  0.62196077369E+02  0.17702459442E+03  0.21134159493E+03  0.78449697616E+02 0.  0.
          6    2    1    2  501    0 -0.53989525778E+02  0.30395752754E+01  0.24952510773E+03  0.30811267263E+03  0.17247182882E+03 0.  0.
         24    2    5    5    0    0 -0.55374929535E+02 -0.26959772964E+02  0.74493530586E+02  0.13046126331E+03  0.87622160125E+02 0.  0.
          5    1    5    5  501    0  0.13854037565E+01  0.29999348239E+02  0.17503157714E+03  0.17765140933E+03  0.47000000000E+01 0. -1.
        -11    1    6    6    0    0 -0.38865423928E+02  0.29103084873E+02  0.36681945289E+02  0.60852903271E+02  0.00000000000E+00 0.  1.
         12    1    6    6    0    0 -0.16509505607E+02 -0.56062857837E+02  0.37811585297E+02  0.69608360036E+02  0.00000000000E+00 0. -1.
         -5    1    3    3    0  503 -0.34983479074E+01 -0.65235652645E+02  0.10558610450E+03  0.12425153632E+03  0.47000000000E+01 0.  1.
         11    1    4    4    0    0  0.76041101447E+02  0.57851567015E+02  0.13717732586E+03  0.16717258042E+03  0.00000000000E+00 0. -1.
        -12    1    4    4    0    0 -0.18553227761E+02  0.43445103541E+01  0.39847268564E+02  0.44169014507E+02  0.00000000000E+00 0.  1.
</event>
<event>
12    1  0.8313893E-002  0.1939568E+03  0.7818608E-02  0.1155365E+00
         21   -1    0    0  501  502  0.00000000000E+00  0.00000000000E+00  0.30282834039E+03  0.30282834039E+03  0.00000000000E+00 0. -1.
         21   -1    0    0  502  503 -0.00000000000E+00 -0.00000000000E+00 -0.14767199534E+03  0.14767199534E+03  0.00000000000E+00 0. -1.
         -6    2    1    2    0  503 -0.67466434164E+02 -0.49410753850E+02 -0.14173086743E+02  0.19447398724E+03  0.17500317994E+03 0.  0.
        -24    2    3    3    0    0 -0.46259371872E+02  0.38857542369E+02 -0.22972162481E+02  0.10314740107E+03  0.80385496285E+02 0.  0.
          6    2    1    2  501    0  0.67466434164E+02  0.49410753850E+02  0.16932943179E+03  0.25602634849E+03  0.17286958181E+03 0.  0.
         24    2    5    5    0    0 -0.21685996919E+02  0.56050258519E+02  0.92849321635E+02  0.13828282960E+03  0.83001388493E+02 0.  0.
          5    1    5    5  501    0  0.89152431083E+02 -0.66395046692E+01  0.76480110158E+02  0.11774351889E+03  0.47000000000E+01 0. -1.
        -11    1    6    6    0    0 -0.46020739469E+02  0.56136787064E+01  0.45294417237E+02  0.64815168617E+02  0.00000000000E+00 0.  1.
         12    1    6    6    0    0  0.24334742550E+02  0.50436579813E+02  0.47554904398E+02  0.73467660984E+02  0.00000000000E+00 0. -1.
         -5    1    3    3    0  503 -0.21207062292E+02 -0.88268296218E+02  0.87990757379E+01  0.91326586174E+02  0.47000000000E+01 0.  1.
         13    1    4    4    0    0 -0.18940251102E+02  0.61952132574E+02 -0.15045974259E+02  0.66507001013E+02  0.00000000000E+00 0. -1.
        -14    1    4    4    0    0 -0.27319120770E+02 -0.23094590206E+02 -0.79261882213E+01  0.36640400054E+02  0.00000000000E+00 0.  1.
</event>
<event>
12    1  0.8313893E-002  0.2033056E+03  0.7818608E-02  0.1147167E+00
         21   -1    0    0  503  502  0.00000000000E+00  0.00000000000E+00  0.30821950513E+03  0.30821950513E+03  0.00000000000E+00 0. -1.
         21   -1    0    0  501  503 -0.00000000000E+00 -0.00000000000E+00 -0.16590379392E+03  0.16590379392E+03  0.00000000000E+00 0. -1.
          6    2    1    2  501    0 -0.10061826122E+03 -0.37448660637E+02 -0.33472500657E+02  0.20604267994E+03  0.17264628865E+03 0.  0.
         24    2    3    3    0    0 -0.90997214496E+02 -0.89502825560E+02 -0.31412763642E+02  0.15285872426E+03  0.78024220804E+02 0.  0.
         -6    2    1    2    0  502  0.10061826122E+03  0.37448660637E+02  0.17578821186E+03  0.26808061911E+03  0.17157880475E+03 0.  0.
        -24    2    5    5    0    0  0.13534467645E+03  0.12519815842E+02  0.15068333064E+03  0.21828386943E+03  0.80420484254E+02 0.  0.
          5    1    3    3  501    0 -0.96210467232E+01  0.52054164923E+02 -0.20597370140E+01  0.53183955686E+02  0.47000000000E+01 0. -1.
        -13    1    4    4    0    0 -0.10278763504E+02 -0.63090533366E+02 -0.59740136050E+01  0.64200912907E+02  0.00000000000E+00 0.  1.
         14    1    4    4    0    0 -0.80718450992E+02 -0.26412292194E+02 -0.25438750038E+02  0.88657811348E+02  0.00000000000E+00 0. -1.
         -5    1    5    5    0  502 -0.34726415231E+02  0.24928844795E+02  0.25104881217E+02  0.49796749679E+02  0.47000000000E+01 0.  1.
         11    1    6    6    0    0  0.66250931350E+01 -0.35390080183E+01  0.58904563176E+02  0.59381512272E+02  0.00000000000E+00 0. -1.
        -12    1    6    6    0    0  0.12871958331E+03  0.16058823860E+02  0.91778767468E+02  0.15890235716E+03  0.00000000000E+00 0.  1.
</event>
<event>
12    1  0.8313893E-002  0.1996082E+03  0.7818608E-02  0.1150211E+00
         21   -1    0    0  501  502  0.00000000000E+00  0.00000000000E+00  0.49048367012E+02  0.49048367012E+02  0.00000000000E+00 0. -1.
         21   -1    0    0  502  503 -0.00000000000E+00 -0.00000000000E+00 -0.81157647856E+03  0.81157647856E+03  0.00000000000E+00 0. -1.
         -6    2    1    2    0  503 -0.36521124920E+02  0.93985716787E+02 -0.40170753370E+03  0.44827192556E+03  0.17149830636E+03 0.  0.
        -24    2    3    3    0    0 -0.44874968374E+01  0.11472034158E+03 -0.37791852006E+03  0.40306036549E+03  0.80339006860E+02 0.  0.
          6    2    1    2  501    0  0.36521124920E+02 -0.93985716787E+02 -0.36082057784E+03  0.41235292001E+03  0.17226820288E+03 0.  0.
         24    2    5    5    0    0  0.63406059417E+02 -0.91974502936E+02 -0.35984482805E+03  0.38496885947E+03  0.78949888703E+02 0.  0.
          5    1    5    5  501    0 -0.26884934496E+02 -0.20112138510E+01 -0.97574978996E+00  0.27384060541E+02  0.47000000000E+01 0. -1.
        -13    1    6    6    0    0  0.17767678219E+01  0.30133489967E+01 -0.11669579811E+03  0.11674821828E+03  0.00000000000E+00 0.  1.
         14    1    6    6    0    0  0.61629291595E+02 -0.94987851933E+02 -0.24314902994E+03  0.26822064119E+03  0.00000000000E+00 0. -1.
         -5    1    3    3    0  503 -0.32033628083E+02 -0.20734624798E+02 -0.23789013646E+02  0.45211560069E+02  0.47000000000E+01 0.  1.
         11    1    4    4    0    0  0.31523501256E+02  0.88154525925E+02 -0.28383509079E+03  0.29887674774E+03  0.00000000000E+00 0. -1.
        -12    1    4    4    0    0 -0.36010998094E+02  0.26565815660E+02 -0.94083429265E+02  0.10418361775E+03  0.00000000000E+00 0.  1.
</event>
<event>
12    1  0.8313893E-002  0.2166403E+03  0.7818608E-02  0.1136427E+00
         21   -1    0    0  501  502  0.00000000000E+00  0.00000000000E+00  0.92220699128E+03  0.92220699128E+03  0.00000000000E+00 0.  1.
         21   -1    0    0  502  503 -0.00000000000E+00 -0.00000000000E+00 -0.60985857649E+02  0.60985857649E+02  0.00000000000E+00 0. -1.
         -6    2    1    2    0  503 -0.11168950789E+03 -0.70633344275E+02  0.63084453741E+03  0.66700661920E+03  0.17166649116E+03 0.  0.
        -24    2    3    3    0    0 -0.92924127349E+02 -0.13978200379E+02  0.22146588837E+03  0.25327371850E+03  0.79184299213E+02 0.  0.
          6    2    1    2  501    0  0.11168950789E+03  0.70633344275E+02  0.23037659623E+03  0.31618622973E+03  0.17157138539E+03 0.  0.
         24    2    5    5    0    0  0.12139637499E+03  0.27080827912E+02  0.22651538785E+03  0.27115242153E+03  0.82121639478E+02 0.  0.
          5    1    5    5  501    0 -0.97068670990E+01  0.43552516363E+02  0.38612083774E+01  0.45033808195E+02  0.47000000000E+01 0. -1.
        -13    1    6    6    0    0  0.53529079604E+02 -0.24966059393E+02  0.61379657037E+02  0.85182913679E+02  0.00000000000E+00 0.  1.
         14    1    6    6    0    0  0.67867295383E+02  0.52046887305E+02  0.16513573081E+03  0.18596950785E+03  0.00000000000E+00 0. -1.
         -5    1    3    3    0  503 -0.18765380539E+02 -0.56655143896E+02  0.40937864903E+03  0.41373290070E+03  0.47000000000E+01 0.  1.
         13    1    4    4    0    0 -0.39754247485E+02 -0.28063635520E+02  0.17382000467E+03  0.18050307991E+03  0.00000000000E+00 0. -1.
        -14    1    4    4    0    0 -0.53169879864E+02  0.14085435141E+02  0.47645883698E+02  0.72770638593E+02  0.00000000000E+00 0.  1.
</event>
<event>
12    1  0.8313893E-002  0.1939753E+03  0.7818608E-02  0.1155329E+00
         21   -1    0    0  501  502  0.00000000000E+00  0.00000000000E+00  0.65081407875E+03  0.65081407875E+03  0.00000000000E+00 0. -1.
         21   -1    0    0  502  503 -0.00000000000E+00 -0.00000000000E+00 -0.63455655563E+02  0.63455655563E+02  0.00000000000E+00 0. -1.
         -6    2    1    2    0  503  0.86860788858E+02 -0.12340549305E+01  0.18342573343E+03  0.26696705478E+03  0.17343612403E+03 0.  0.
        -24    2    3    3    0    0  0.83065549108E+02  0.52471130629E+02  0.16768503223E+03  0.21067753111E+03  0.81324332650E+02 0.  0.
          6    2    1    2  501    0 -0.86860788858E+02  0.12340549305E+01  0.40393268976E+03  0.44730267954E+03  0.17138188274E+03 0.  0.
         24    2    5    5    0    0 -0.16052837696E+02  0.12858683837E+02  0.34404997226E+03  0.35372422154E+03  0.79544969342E+02 0.  0.
          5    1    5    5  501    0 -0.70807951162E+02 -0.11624628907E+02  0.59882717503E+02  0.93578457994E+02  0.47000000000E+01 0. -1.
        -13    1    6    6    0    0 -0.22510820037E+02  0.89458861714E+01  0.25817230130E+02  0.35401910538E+02  0.00000000000E+00 0.  1.
         14    1    6    6    0    0  0.64579823417E+01  0.39127976656E+01  0.31823274213E+03  0.31832231101E+03  0.00000000000E+00 0. -1.
         -5    1    3    3    0  503  0.37952397507E+01 -0.53705185560E+02  0.15740701196E+02  0.56289523669E+02  0.47000000000E+01 0.  1.
         13    1    4    4    0    0  0.54339239510E+02  0.11030627836E+00  0.12776701902E+03  0.13884227118E+03  0.00000000000E+00 0. -1.
        -14    1    4    4    0    0  0.28726309597E+02  0.52360824351E+02  0.39918013214E+02  0.71835259927E+02  0.00000000000E+00 0.  1.
</event>
<event>
12    1  0.8313893E-002  0.1939672E+03  0.7818608E-02  0.1155268E+00
         21   -1    0    0  503  502  0.00000000000E+00  0.00000000000E+00  0.42487690508E+03  0.42487690508E+03  0.00000000000E+00 0.  1.
         21   -1    0    0  501  503 -0.00000000000E+00 -0.00000000000E+00 -0.17853541272E+03  0.17853541272E+03  0.00000000000E+00 0.  1.
          6    2    1    2  501    0  0.74348486818E+02  0.50927176067E+02 -0.92087526544E+02  0.21333864279E+03  0.17003525872E+03 0.  0.
         24    2    3    3    0    0 -0.94288603386E+01  0.62180116651E+02 -0.77823811030E+02  0.12748518539E+03  0.78997826653E+02 0.  0.
         -6    2    1    2    0  502 -0.74348486818E+02 -0.50927176067E+02  0.33842901891E+03  0.39007367501E+03  0.17176145184E+03 0.  0.
        -24    2    5    5    0    0  0.22462530828E+01  0.21443905362E+02  0.99237317233E+02  0.12865621622E+03  0.78990443157E+02 0.  0.
          5    1    3    3  501    0  0.83777347156E+02 -0.11252940583E+02 -0.14263715514E+02  0.85853457406E+02  0.47000000000E+01 0. -1.
        -13    1    4    4    0    0  0.18543422575E+02  0.68041694176E+02 -0.43663068329E+02  0.82945730469E+02  0.00000000000E+00 0.  1.
         14    1    4    4    0    0 -0.27972282914E+02 -0.58615775251E+01 -0.34160742702E+02  0.44539454918E+02  0.00000000000E+00 0. -1.
         -5    1    5    5    0  502 -0.76594739901E+02 -0.72371081429E+02  0.23919170168E+03  0.26141745879E+03  0.47000000000E+01 0.  1.
         11    1    6    6    0    0 -0.34342016103E+02  0.17469660576E+02  0.25382281783E+02  0.46139173586E+02  0.00000000000E+00 0. -1.
        -12    1    6    6    0    0  0.36588269186E+02  0.39742447857E+01  0.73855035450E+02  0.82517042633E+02  0.00000000000E+00 0.  1.
</event>
<event>
12    1  0.8313893E-002  0.2282363E+03  0.7818608E-02  0.1128085E+00
         21   -1    0    0  503  502  0.00000000000E+00  0.00000000000E+00  0.60074382350E+02  0.60074382350E+02  0.00000000000E+00 0. -1.
         21   -1    0    0  501  503 -0.00000000000E+00 -0.00000000000E+00 -0.87542906408E+03  0.87542906408E+03  0.00000000000E+00 0. -1.
          6    2    1    2  501    0 -0.13235556843E+03 -0.69211861304E+02 -0.35076922799E+03  0.41788247750E+03  0.17110942540E+03 0.  0.
         24    2    3    3    0    0 -0.77905893673E+02  0.16160144792E+02 -0.11016211030E+03  0.15679432843E+03  0.78219513753E+02 0.  0.
         -6    2    1    2    0  502  0.13235556843E+03  0.69211861304E+02 -0.46458545374E+03  0.51762096893E+03  0.17257909899E+03 0.  0.
        -24    2    5    5    0    0  0.11397752092E+03 -0.61504480480E+01 -0.37041692611E+03  0.39552661240E+03  0.78764831476E+02 0.  0.
          5    1    3    3  501    0 -0.54449674754E+02 -0.85372006096E+02 -0.24060711769E+03  0.26108814907E+03  0.47000000000E+01 0. -1.
        -11    1    4    4    0    0 -0.18662739780E+02  0.28351973700E+02 -0.84552844764E+02  0.91111557042E+02  0.00000000000E+00 0.  1.
         12    1    4    4    0    0 -0.59243153893E+02 -0.12191828908E+02 -0.25609265536E+02  0.65682771384E+02  0.00000000000E+00 0. -1.
         -5    1    5    5    0  502  0.18378047505E+02  0.75362309352E+02 -0.94168527629E+02  0.12209435653E+03  0.47000000000E+01 0.  1.
         11    1    6    6    0    0  0.41224237042E+02  0.26591391848E+02 -0.21844840358E+03  0.22388891189E+03  0.00000000000E+00 0. -1.
        -12    1    6    6    0    0  0.72753283880E+02 -0.32741839896E+02 -0.15196852253E+03  0.17163770050E+03  0.00000000000E+00 0.  1.
</event>
<event>
12    1  0.8313893E-002  0.1883278E+03  0.7818608E-02  0.1160301E+00
         21   -1    0    0  501  502  0.00000000000E+00  0.00000000000E+00  0.44492287491E+03  0.44492287491E+03  0.00000000000E+00 0.  1.
         21   -1    0    0  502  503 -0.00000000000E+00 -0.00000000000E+00 -0.29930597200E+03  0.29930597200E+03  0.00000000000E+00 0.  1.
         -6    2    1    2    0  503 -0.70751434954E+02 -0.21970172319E+02 -0.24628234962E+03  0.31003605821E+03  0.17314418164E+03 0.  0.
        -24    2    3    3    0    0  0.14489582369E+02 -0.12286198978E+02 -0.52363448485E+02  0.97935986092E+02  0.80552020162E+02 0.  0.
          6    2    1    2  501    0  0.70751434954E+02  0.21970172319E+02  0.39189925254E+03  0.43419278870E+03  0.17160973048E+03 0.  0.
         24    2    5    5    0    0  0.70317530225E+02 -0.42686615433E+02  0.30147632463E+03  0.32293145504E+03  0.81425107593E+02 0.  0.
          5    1    5    5  501    0  0.43390472852E+00  0.64656787752E+02  0.90422927907E+02  0.11126133366E+03  0.47000000000E+01 0. -1.
        -11    1    6    6    0    0  0.27576964424E+02  0.52598581725E+01  0.20572750642E+03  0.20763420232E+03  0.00000000000E+00 0.  1.
         12    1    6    6    0    0  0.42740565801E+02 -0.47946473606E+02  0.95748818218E+02  0.11529725273E+03  0.00000000000E+00 0. -1.
         -5    1    3    3    0  503 -0.85241017323E+02 -0.96839733411E+01 -0.19391890114E+03  0.21210007212E+03  0.47000000000E+01 0.  1.
         13    1    4    4    0    0 -0.29641008576E+02 -0.15760313600E+02 -0.64998295694E+01  0.34193927218E+02  0.00000000000E+00 0. -1.
        -14    1    4    4    0    0  0.44130590945E+02  0.34741146219E+01 -0.45863618915E+02  0.63742058875E+02  0.00000000000E+00 0.  1.
</event>
<event>
12    1  0.8313893E-002  0.1950059E+03  0.7818608E-02  0.1154115E+00
         21   -1    0    0  503  502  0.00000000000E+00  0.00000000000E+00  0.62920602583E+02  0.62920602583E+02  0.00000000000E+00 0.  1.
         21   -1    0    0  501  503 -0.00000000000E+00 -0.00000000000E+00 -0.15382277491E+04  0.15382277491E+04  0.00000000000E+00 0. -1.
          6    2    1    2  501    0  0.83206875941E+02  0.38287598868E+02 -0.13621862456E+04  0.13760736425E+04  0.17215683960E+03 0.  0.
         24    2    3    3    0    0  0.10821793356E+03  0.66339762729E+02 -0.90605505336E+03  0.91837261405E+03  0.79752199067E+02 0.  0.
         -6    2    1    2    0  502 -0.83206875941E+02 -0.38287598868E+02 -0.11312090094E+03  0.22507470921E+03  0.17167691187E+03 0.  0.
        -24    2    5    5    0    0 -0.31479650092E+02 -0.11138563321E+01 -0.13263411513E+03  0.15828811957E+03  0.80443217586E+02 0.  0.
          5    1    3    3  501    0 -0.25011057618E+02 -0.28052163861E+02 -0.45613119220E+03  0.45770102840E+03  0.47000000000E+01 0. -1.
        -13    1    4    4    0    0  0.48092547226E+02  0.74979702680E+02 -0.52319837745E+03  0.53072722851E+03  0.00000000000E+00 0.  1.
         14    1    4    4    0    0  0.60125386333E+02 -0.86399399515E+01 -0.38285667591E+03  0.38764538554E+03  0.00000000000E+00 0. -1.
         -5    1    5    5    0  502 -0.51727225848E+02 -0.37173742536E+02  0.19513214190E+02  0.66786589643E+02  0.47000000000E+01 0.  1.
         13    1    6    6    0    0  0.17596891528E+02 -0.16321269542E+02 -0.84651116702E+02  0.87987760454E+02  0.00000000000E+00 0. -1.
        -14    1    6    6    0    0 -0.49076541620E+02  0.15207413210E+02 -0.47982998427E+02  0.70300359117E+02  0.00000000000E+00 0.  1.
</event>
<event>
12    1  0.8313893E-002  0.2115495E+03  0.7818608E-02  0.1141463E+00
         21   -1    0    0  501  502  0.00000000000E+00  0.00000000000E+00  0.25170406756E+04  0.25170406756E+04  0.00000000000E+00 0.  1.
         21   -1    0    0  502  503 -0.00000000000E+00 -0.00000000000E+00 -0.21101527640E+02  0.21101527640E+02  0.00000000000E+00 0. -1.
         -6    2    1    2    0  503  0.15882018414E+02 -0.11310442354E+03  0.17720324977E+04  0.17839578500E+04  0.17135223512E+03 0.  0.
        -24    2    3    3    0    0  0.64785384830E+02 -0.62940100585E+02  0.14113037970E+04  0.14164591642E+04  0.80122119716E+02 0.  0.
          6    2    1    2  501    0 -0.15882018414E+02  0.11310442354E+03  0.72390665021E+03  0.75418435321E+03  0.17806838930E+03 0.  0.
         24    2    5    5    0    0 -0.67040085602E+02  0.11945272459E+03  0.49863236972E+03  0.52303929006E+03  0.78565465244E+02 0.  0.
          5    1    5    5  501    0  0.51158067189E+02 -0.63483010474E+01  0.22527428049E+03  0.23114506314E+03  0.47000000000E+01 0. -1.
        -13    1    6    6    0    0 -0.12182065936E+01  0.69814509728E+02  0.29918840354E+03  0.30722833627E+03  0.00000000000E+00 0.  1.
         14    1    6    6    0    0 -0.65821879009E+02  0.49638214863E+02  0.19944396618E+03  0.21581095379E+03  0.00000000000E+00 0. -1.
         -5    1    3    3    0  503 -0.48903366416E+02 -0.50164322958E+02  0.36072870068E+03  0.36749868576E+03  0.47000000000E+01 0.  1.
         13    1    4    4    0    0  0.29301719413E+02 -0.45574257249E+01  0.13017151190E+03  0.13350649198E+03  0.00000000000E+00 0. -1.
        -14    1    4    4    0    0  0.35483665417E+02 -0.58382674860E+02  0.12811322851E+04  0.12829526723E+04  0.00000000000E+00 0.  1.
</event>
<event>
12    1  0.8313893E-002  0.2366354E+03  0.7818608E-02  0.1122135E+00
         21   -1    0    0  503  502  0.00000000000E+00  0.00000000000E+00  0.56714297312E+03  0.56714297312E+03  0.00000000000E+00 0.  1.
         21   -1    0    0  501  503 -0.00000000000E+00 -0.00000000000E+00 -0.99474624405E+02  0.99474624405E+02  0.00000000000E+00 0.  1.
          6    2    1    2  501    0 -0.12164010420E+03  0.10852455536E+03  0.20123295296E+03  0.31026924531E+03  0.17087541999E+03 0.  0.
         24    2    3    3    0    0 -0.13130759756E+03  0.33609522137E+02  0.16110517596E+03  0.22460681995E+03  0.78243598405E+02 0.  0.
         -6    2    1    2    0  502  0.12164010420E+03 -0.10852455536E+03  0.26643539575E+03  0.35634835222E+03  0.17152968826E+03 0.  0.
        -24    2    5    5    0    0  0.13489599708E+03 -0.12878860575E+03  0.21171779119E+03  0.29632788335E+03  0.90566861186E+02 0.  0.
          5    1    3    3  501    0  0.96674933613E+01  0.74915033222E+02  0.40127777008E+02  0.85662425358E+02  0.47000000000E+01 0. -1.
        -11    1    4    4    0    0 -0.78910616680E+02  0.16012047270E+02  0.14692826147E+03  0.16754457646E+03  0.00000000000E+00 0.  1.
         12    1    4    4    0    0 -0.52396980884E+02  0.17597474866E+02  0.14176914484E+02  0.57062243487E+02  0.00000000000E+00 0. -1.
         -5    1    5    5    0  502 -0.13255892874E+02  0.20264050395E+02  0.54717604562E+02  0.60020468869E+02  0.47000000000E+01 0.  1.
         11    1    6    6    0    0  0.99141265191E+01 -0.20027464456E+02  0.84599893371E+02  0.87501606817E+02  0.00000000000E+00 0. -1.
        -12    1    6    6    0    0  0.12498187056E+03 -0.10876114130E+03  0.12711789782E+03  0.20882627653E+03  0.00000000000E+00 0.  1.
</event>
<event>
12    1  0.8313893E-002  0.1759354E+03  0.7818608E-02  0.1171864E+00
         21   -1    0    0  501  502  0.00000000000E+00  0.00000000000E+00  0.12635554766E+03  0.12635554766E+03  0.00000000000E+00 0. -1.
         21   -1    0    0  502  503 -0.00000000000E+00 -0.00000000000E+00 -0.26678941594E+03  0.26678941594E+03  0.00000000000E+00 0. -1.
         -6    2    1    2    0  503 -0.32027974003E+02  0.11715698495E+02 -0.13459054461E+02  0.17617525889E+03  0.17231809826E+03 0.  0.
        -24    2    3    3    0    0 -0.78423995288E+02 -0.77288905542E+01  0.22339192577E+02  0.11425363645E+03  0.79654222303E+02 0.  0.
          6    2    1    2  501    0  0.32027974003E+02 -0.11715698495E+02 -0.12697481382E+03  0.21696970471E+03  0.17259837980E+03 0.  0.
         24    2    5    5    0    0  0.84699272731E+01  0.36816411148E+02 -0.13631325300E+03  0.16201842012E+03  0.79003023479E+02 0.  0.
          5    1    5    5  501    0  0.23558046730E+02 -0.48532109642E+02  0.93384391738E+01  0.54951284592E+02  0.47000000000E+01 0. -1.
        -13    1    6    6    0    0 -0.30870206472E+02  0.95469948658E+01 -0.89127382280E+02  0.94804034886E+02  0.00000000000E+00 0.  1.
         14    1    6    6    0    0  0.39340133745E+02  0.27269416282E+02 -0.47185870715E+02  0.67214385236E+02  0.00000000000E+00 0. -1.
         -5    1    3    3    0  503  0.46396021285E+02  0.19444589049E+02 -0.35798247038E+02  0.61921622438E+02  0.47000000000E+01 0.  1.
         13    1    4    4    0    0 -0.83770680716E+02  0.15328923079E+02  0.57619639332E+01  0.85356329928E+02  0.00000000000E+00 0. -1.
        -14    1    4    4    0    0  0.53466854281E+01 -0.23057813634E+02  0.16577228644E+02  0.28897306521E+02  0.00000000000E+00 0.  1.
</event>
<event>
12    1  0.8313893E-002  0.1783777E+03  0.7818608E-02  0.1169494E+00
         21   -1    0    0  501  502  0.00000000000E+00  0.00000000000E+00  0.34758012239E+03  0.34758012239E+03  0.00000000000E+00 0.  1.
         21   -1    0    0  502  503 -0.00000000000E+00 -0.00000000000E+00 -0.92621229787E+02  0.92621229787E+02  0.00000000000E+00 0. -1.
         -6    2    1    2    0  503  0.20355874456E+02  0.43992471170E+02  0.15382246738E+03  0.23554181484E+03  0.17166506902E+03 0.  0.
        -24    2    3    3    0    0  0.15037094404E+02 -0.29907384936E+02  0.36653099336E+02  0.96832662434E+02  0.83141740067E+02 0.  0.
          6    2    1    2  501    0 -0.20355874456E+02 -0.43992471170E+02  0.10113642523E+03  0.20465953734E+03  0.17119360553E+03 0.  0.
         24    2    5    5    0    0  0.97464569378E+01 -0.37244249296E+02  0.13310620618E+03  0.15998464789E+03  0.79973107401E+02 0.  0.
          5    1    5    5  501    0 -0.30102331393E+02 -0.67482218734E+01 -0.31969780952E+02  0.44674889456E+02  0.47000000000E+01 0. -1.
        -11    1    6    6    0    0  0.16877542201E+02  0.22280981293E+02  0.32460819137E+02  0.42836880572E+02  0.00000000000E+00 0.  1.
         12    1    6    6    0    0 -0.71310852632E+01 -0.59525230589E+02  0.10064538704E+03  0.11714776731E+03  0.00000000000E+00 0. -1.
         -5    1    3    3    0  503  0.53187800519E+01  0.73899856105E+02  0.11716936804E+03  0.13870915241E+03  0.47000000000E+01 0.  1.
         11    1    4    4    0    0 -0.96268565665E+01  0.12908779267E+02 -0.17325374159E+02  0.23653362114E+02  0.00000000000E+00 0. -1.
        -12    1    4    4    0    0  0.24663950970E+02 -0.42816164203E+02  0.53978473495E+02  0.73179300321E+02  0.00000000000E+00 0.  1.
</event>
<event>
12    1  0.8313893E-002  0.3059231E+03  0.7818608E-02  0.1082471E+00
         21   -1    0    0  501  502  0.00000000000E+00  0.00000000000E+00  0.10773950440E+03  0.10773950440E+03  0.00000000000E+00 0. -1.
         21   -1    0    0  502  503 -0.00000000000E+00 -0.00000000000E+00 -0.17647971459E+04  0.17647971459E+04  0.00000000000E+00 0. -1.
         -6    2    1    2    0  503 -0.21454471624E+03 -0.13381226726E+03 -0.14961951440E+04  0.15268985446E+04  0.16995322413E+03 0.  0.
        -24    2    3    3    0    0 -0.17833554625E+03 -0.16465315369E+03 -0.11920822896E+04  0.12190528324E+04  0.78200991387E+02 0.  0.
          6    2    1    2  501    0  0.21454471624E+03  0.13381226726E+03 -0.16086249753E+03  0.34563810575E+03  0.17220278424E+03 0.  0.
         24    2    5    5    0    0  0.12813210281E+03  0.13704880858E+03 -0.15882089161E+03  0.25901320682E+03  0.81630594722E+02 0.  0.
          5    1    5    5  501    0  0.86412613432E+02 -0.32365413247E+01 -0.20416059256E+01  0.86624898930E+02  0.47000000000E+01 0. -1.
        -11    1    6    6    0    0  0.21167828160E+02  0.69630977770E+02 -0.87632191402E+02  0.11391203178E+03  0.00000000000E+00 0.  1.
         12    1    6    6    0    0  0.10696427465E+03  0.67417830810E+02 -0.71188700203E+02  0.14510117504E+03  0.00000000000E+00 0. -1.
         -5    1    3    3    0  503 -0.36209169992E+02  0.30840886433E+02 -0.30411285444E+03  0.30784571217E+03  0.47000000000E+01 0.  1.
         11    1    4    4    0    0 -0.21242586461E+02 -0.39998079501E+02 -0.11766324425E+03  0.12607828080E+03  0.00000000000E+00 0. -1.
        -12    1    4    4    0    0 -0.15709295979E+03 -0.12465507419E+03 -0.10744190453E+04  0.10929745516E+04  0.00000000000E+00 0.  1.
</event>
<event>
12    1  0.8313893E-002  0.2052314E+03  0.7818608E-02  0.1145578E+00
         21   -1    0    0  503  502  0.00000000000E+00  0.00000000000E+00  0.71250888725E+03  0.71250888725E+03  0.00000000000E+00 0.  1.
         21   -1    0    0  501  503 -0.00000000000E+00 -0.00000000000E+00 -0.74366421987E+02  0.74366421987E+02  0.00000000000E+00 0. -1.
          6    2    1    2  501    0 -0.27201700242E+01 -0.11102475134E+03  0.49817003797E+03  0.53845588305E+03  0.17154432814E+03 0.  0.
         24    2    3    3    0    0 -0.38669580262E+02 -0.68991296110E+02  0.15841175372E+03  0.19419297018E+03  0.79758952945E+02 0.  0.
         -6    2    1    2    0  502  0.27201700242E+01  0.11102475134E+03  0.13997242729E+03  0.24841942619E+03  0.17258631514E+03 0.  0.
        -24    2    5    5    0    0 -0.50743947545E+02  0.15894091171E+02  0.72583772436E+02  0.12007779158E+03  0.79515417775E+02 0.  0.
          5    1    3    3  501    0  0.35949410238E+02 -0.42033455226E+02  0.33975828425E+03  0.34426291286E+03  0.47000000000E+01 0. -1.
        -11    1    4    4    0    0  0.50077158661E+01 -0.14980033287E+02  0.10601524163E+03  0.10718540046E+03  0.00000000000E+00 0.  1.
         12    1    4    4    0    0 -0.43677296128E+02 -0.54011262824E+02  0.52396512097E+02  0.87007569721E+02  0.00000000000E+00 0. -1.
         -5    1    5    5    0  502  0.53464117570E+02  0.95130660165E+02  0.67388654855E+02  0.12834163461E+03  0.47000000000E+01 0.  1.
         13    1    6    6    0    0 -0.30912110825E+02  0.33233873364E+02  0.27848639710E+01  0.45473117353E+02  0.00000000000E+00 0. -1.
        -14    1    6    6    0    0 -0.19831836721E+02 -0.17339782194E+02  0.69798908465E+02  0.74604674231E+02  0.00000000000E+00 0.  1.
</event>
<event>
12    1  0.8313893E-002  0.2136767E+03  0.7818608E-02  0.1139118E+00
         21   -1    0    0  503  502  0.00000000000E+00  0.00000000000E+00  0.23045840772E+03  0.23045840772E+03  0.00000000000E+00 0.  1.
         21   -1    0    0  501  503 -0.00000000000E+00 -0.00000000000E+00 -0.29172554096E+03  0.29172554096E+03  0.00000000000E+00 0.  1.
          6    2    1    2  501    0 -0.48274864302E+02 -0.11229769849E+03 -0.18003299996E+03  0.27771910536E+03  0.17255371569E+03 0.  0.
         24    2    3    3    0    0 -0.23530630065E+02 -0.66756721619E+02 -0.19001872618E+02  0.10848739534E+03  0.79989332741E+02 0.  0.
         -6    2    1    2    0  502  0.48274864302E+02  0.11229769849E+03  0.11876586672E+03  0.24446484332E+03  0.17526121337E+03 0.  0.
        -24    2    5    5    0    0  0.88020646435E+02  0.11822936605E+03  0.69802230530E+02  0.18094760514E+03  0.78382824787E+02 0.  0.
          5    1    3    3  501    0 -0.24744234237E+02 -0.45540976869E+02 -0.16103112734E+03  0.16923171002E+03  0.47000000000E+01 0. -1.
        -11    1    4    4    0    0 -0.48804505050E+02 -0.63700405267E+02 -0.21004795827E+02  0.82950725085E+02  0.00000000000E+00 0.  1.
         12    1    4    4    0    0  0.25273874985E+02 -0.30563163522E+01  0.20029232092E+01  0.25536670256E+02  0.00000000000E+00 0. -1.
         -5    1    5    5    0  502 -0.39745782134E+02 -0.59316675637E+01  0.48963636189E+02  0.63517238183E+02  0.47000000000E+01 0.  1.
         13    1    6    6    0    0  0.37970171910E+01 -0.81529372008E+01 -0.63892056893E+01  0.11032210743E+02  0.00000000000E+00 0. -1.
        -14    1    6    6    0    0  0.84223629244E+02  0.12638230325E+03  0.76191436219E+02  0.16991539439E+03  0.00000000000E+00 0.  1.
</event>
<event>
12    1  0.8313893E-002  0.2129066E+03  0.7818608E-02  0.1139479E+00
         21   -1    0    0  503  502  0.00000000000E+00  0.00000000000E+00  0.50827249564E+03  0.50827249564E+03  0.00000000000E+00 0. -1.
         21   -1    0    0  501  503 -0.00000000000E+00 -0.00000000000E+00 -0.10780799092E+03  0.10780799092E+03  0.00000000000E+00 0.  1.
          6    2    1    2  501    0  0.74344140281E+02  0.99909824604E+02  0.70385012383E+02  0.22329339562E+03  0.17145514374E+03 0.  0.
         24    2    3    3    0    0  0.82215959817E+02  0.35034147213E+02 -0.10128618161E+02  0.11948899416E+03  0.78664955983E+02 0.  0.
         -6    2    1    2    0  502 -0.74344140281E+02 -0.99909824604E+02  0.33007949234E+03  0.39278709094E+03  0.17268527240E+03 0.  0.
        -24    2    5    5    0    0 -0.73765598598E+02 -0.18631132293E+02  0.26970101898E+03  0.29142531028E+03  0.80009931916E+02 0.  0.
          5    1    3    3  501    0 -0.78718195361E+01  0.64875677391E+02  0.80513630544E+02  0.10380440146E+03  0.47000000000E+01 0. -1.
        -13    1    4    4    0    0  0.93431285212E+02  0.23517778230E+02  0.62391072150E+01  0.96547487839E+02  0.00000000000E+00 0.  1.
         14    1    4    4    0    0 -0.11215325395E+02  0.11516368982E+02 -0.16367725376E+02  0.22941506320E+02  0.00000000000E+00 0. -1.
         -5    1    5    5    0  502 -0.57854168287E+00 -0.81278692311E+02  0.60378473357E+02  0.10136178066E+03  0.47000000000E+01 0.  1.
         11    1    6    6    0    0 -0.38719109010E+02 -0.49092704957E+02  0.13095705093E+03  0.14511723629E+03  0.00000000000E+00 0. -1.
        -12    1    6    6    0    0 -0.35046489588E+02  0.30461572664E+02  0.13874396805E+03  0.14630807398E+03  0.00000000000E+00 0.  1.
</event>
<event>
12    1  0.8313893E-002  0.2209689E+03  0.7818608E-02  0.1133175E+00
         21   -1    0    0  503  502  0.00000000000E+00  0.00000000000E+00  0.58489375343E+02  0.58489375343E+02  0.00000000000E+00 0. -1.
         21   -1    0    0  501  503 -0.00000000000E+00 -0.00000000000E+00 -0.94353762010E+03  0.94353762010E+03  0.00000000000E+00 0. -1.
          6    2    1    2  501    0 -0.34895471588E+02  0.13403731655E+03 -0.61274333469E+03  0.65134591284E+03  0.17208546657E+03 0.  0.
         24    2    3    3    0    0 -0.20260291951E+02  0.19784024950E+02 -0.40845837932E+03  0.41677729577E+03  0.77866421267E+02 0.  0.
         -6    2    1    2    0  502  0.34895471588E+02 -0.13403731655E+03 -0.27230491006E+03  0.35068108260E+03  0.17217305678E+03 0.  0.
        -24    2    5    5    0    0 -0.41992581206E+02 -0.53005402168E+02 -0.13251626884E+03  0.17168136744E+03  0.85679524296E+02 0.  0.
          5    1    3    3  501    0 -0.14635179637E+02  0.11425329160E+03 -0.20428495537E+03  0.23456861707E+03  0.47000000000E+01 0. -1.
        -11    1    4    4    0    0 -0.36869198983E+02 -0.63491854320E+01 -0.10000877592E+03  0.10677736300E+03  0.00000000000E+00 0.  1.
         12    1    4    4    0    0  0.16608907032E+02  0.26133210382E+02 -0.30844960340E+03  0.30999993276E+03  0.00000000000E+00 0. -1.
         -5    1    5    5    0  502  0.76888052794E+02 -0.81031914382E+02 -0.13978864122E+03  0.17899971515E+03  0.47000000000E+01 0.  1.
         13    1    6    6    0    0 -0.55870744068E+02 -0.67725787831E+01 -0.46322933194E+02  0.72891851436E+02  0.00000000000E+00 0. -1.
        -14    1    6    6    0    0  0.13878162862E+02 -0.46232823385E+02 -0.86193335650E+02  0.98789516008E+02  0.00000000000E+00 0.  1.
</event>
<event>
12    1  0.8313893E-002  0.1727226E+03  0.7818608E-02  0.1176664E+00
         21   -1    0    0  501  502  0.00000000000E+00  0.00000000000E+00  0.72444874594E+03  0.72444874594E+03  0.00000000000E+00 0. -1.
         21   -1    0    0  502  503 -0.00000000000E+00 -0.00000000000E+00 -0.43565724646E+02  0.43565724646E+02  0.00000000000E+00 0. -1.
         -6    2    1    2    0  503  0.15373739382E+02  0.11615124928E+02  0.22043562580E+03  0.27623719618E+03  0.16535979089E+03 0.  0.
        -24    2    3    3    0    0  0.20234869323E+02  0.29411974769E+02  0.23564231569E+03  0.25187140324E+03  0.81470170193E+02 0.  0.
          6    2    1    2  501    0 -0.15373739382E+02 -0.11615124928E+02  0.46044739549E+03  0.49177727440E+03  0.17164445990E+03 0.  0.
         24    2    5    5    0    0 -0.63479433426E+02 -0.35052483817E+02  0.21868599482E+03  0.24411998611E+03  0.80701227975E+02 0.  0.
          5    1    5    5  501    0  0.48105694044E+02  0.23437358889E+02  0.24176140067E+03  0.24765728830E+03  0.47000000000E+01 0. -1.
        -11    1    6    6    0    0  0.71885034910E+00  0.69296549256E+01 -0.43829563230E+01  0.82308668646E+01  0.00000000000E+00 0.  1.
         12    1    6    6    0    0 -0.64198283775E+02 -0.41982138743E+02  0.22306895114E+03  0.23588911924E+03  0.00000000000E+00 0. -1.
         -5    1    3    3    0  503 -0.48611299409E+01 -0.17796849841E+02 -0.15206689884E+02  0.24365792944E+02  0.47000000000E+01 0.  1.
         13    1    4    4    0    0  0.39724798104E+01 -0.27730842360E+02  0.55232071296E+02  0.61930298833E+02  0.00000000000E+00 0. -1.
        -14    1    4    4    0    0  0.16262389512E+02  0.57142817130E+02  0.18041024439E+03  0.18994110441E+03  0.00000000000E+00 0.  1.
</event>
<event>
12    1  0.8313893E-002  0.1984873E+03  0.7818608E-02  0.1151128E+00
         21   -1    0    0  501  502  0.00000000000E+00  0.00000000000E+00  0.24637528229E+04  0.24637528229E+04  0.00000000000E+00 0. -1.
         21   -1    0    0  502  503 -0.00000000000E+00 -0.00000000000E+00 -0.31290353491E+02  0.31290353491E+02  0.00000000000E+00 0.  1.
         -6    2    1    2    0  503 -0.72738370104E+02 -0.70303906321E+02  0.20889289637E+04  0.20982907390E+04  0.17019488955E+03 0.  0.
        -24    2    3    3    0    0 -0.80990886142E+02 -0.83722704679E+02  0.10714118252E+04  0.10806408065E+04  0.79323631155E+02 0.  0.
          6    2    1    2  501    0  0.72738370104E+02  0.70303906321E+02  0.34353350575E+03  0.39675243739E+03  0.17077387761E+03 0.  0.
         24    2    5    5    0    0  0.95680612698E+02  0.73353022448E+02  0.17653130539E+03  0.22808866378E+03  0.79534214100E+02 0.  0.
          5    1    5    5  501    0 -0.22942242595E+02 -0.30491161263E+01  0.16700220036E+03  0.16866377361E+03  0.47000000000E+01 0. -1.
        -13    1    6    6    0    0  0.91911590628E+02  0.35581439760E+02  0.15707032776E+03  0.18543157015E+03  0.00000000000E+00 0.  1.
         14    1    6    6    0    0  0.37690220708E+01  0.37771582688E+02  0.19460977631E+02  0.42657093624E+02  0.00000000000E+00 0. -1.
         -5    1    3    3    0  503  0.82525160381E+01  0.13418798357E+02  0.10175171385E+04  0.10176499326E+04  0.47000000000E+01 0.  1.
         11    1    4    4    0    0 -0.34485676896E+02  0.38755486976E+01  0.45293850519E+03  0.45426596975E+03  0.00000000000E+00 0. -1.
        -12    1    4    4    0    0 -0.46505209246E+02 -0.87598253376E+02  0.61847332002E+03  0.62637483671E+03  0.00000000000E+00 0.  1.
</event>
<event>
12    1  0.8313893E-002  0.2056012E+03  0.7818608E-02  0.1145844E+00
         21   -1    0    0  501  502  0.00000000000E+00  0.00000000000E+00  0.42916209007E+03  0.42916209007E+03  0.00000000000E+00 0. -1.
         21   -1    0    0  502  503 -0.00000000000E+00 -0.00000000000E+00 -0.18549101337E+03  0.18549101337E+03  0.00000000000E+00 0. -1.
         -6    2    1    2    0  503 -0.94671394879E+02 -0.47241455273E+02 -0.90143664995E+02  0.22449436688E+03  0.17628786776E+03 0.  0.
        -24    2    3    3    0    0 -0.82266940075E+02 -0.89007602608E+02 -0.10375040241E+03  0.17860847728E+03  0.80290967141E+02 0.  0.
          6    2    1    2  501    0  0.94671394879E+02  0.47241455273E+02  0.33381474170E+03  0.39015873656E+03  0.17203816389E+03 0.  0.
         24    2    5    5    0    0  0.11398316030E+03  0.42640899024E+02  0.16176240102E+03  0.21690110373E+03  0.77901266442E+02 0.  0.
          5    1    5    5  501    0 -0.19311765424E+02  0.46005562494E+01  0.17205234067E+03  0.17325763282E+03  0.47000000000E+01 0. -1.
        -11    1    6    6    0    0  0.92540642166E+01  0.28755182459E+02  0.96708928412E+01  0.31717887558E+02  0.00000000000E+00 0.  1.
         12    1    6    6    0    0  0.10472909609E+03  0.13885716565E+02  0.15209150818E+03  0.18518321618E+03  0.00000000000E+00 0. -1.
         -5    1    3    3    0  503 -0.12404454803E+02  0.41766147334E+02  0.13606737411E+02  0.45885889608E+02  0.47000000000E+01 0.  1.
         11    1    4    4    0    0 -0.47930122989E+02 -0.53709807647E+02 -0.10732936509E+03  0.12923479693E+03  0.00000000000E+00 0. -1.
        -12    1    4    4    0    0 -0.34336817086E+02 -0.35297794961E+02  0.35789626869E+01  0.49373680343E+02  0.00000000000E+00 0.  1.
</event>
<event>
12    1  0.8313893E-002  0.2401894E+03  0.7818608E-02  0.1119716E+00
         21   -1    0    0  501  502  0.00000000000E+00  0.00000000000E+00  0.78470430206E+02  0.78470430206E+02  0.00000000000E+00 0. -1.
         21   -1    0    0  502  503 -0.00000000000E+00 -0.00000000000E+00 -0.10929633364E+04  0.10929633364E+04  0.00000000000E+00 0. -1.
         -6    2    1    2    0  503  0.36671046774E+02  0.16342750890E+03 -0.84256781662E+03  0.87605406694E+03  0.17174657570E+03 0.  0.
        -24    2    3    3    0    0  0.24817008874E+02  0.14215248126E+02 -0.22487516562E+03  0.24046684391E+03  0.80234068197E+02 0.  0.
          6    2    1    2  501    0 -0.36671046774E+02 -0.16342750890E+03 -0.17192508961E+03  0.29537969970E+03  0.17215578475E+03 0.  0.
         24    2    5    5    0    0  0.14694156412E+02 -0.13260079056E+03 -0.62286005710E+02  0.17035374487E+03  0.85685261249E+02 0.  0.
          5    1    5    5  501    0 -0.51365203186E+02 -0.30826718340E+02 -0.10963908390E+03  0.12502595483E+03  0.47000000000E+01 0. -1.
        -11    1    6    6    0    0 -0.49552209145E+01 -0.33910992355E+02  0.20599730600E+02  0.39985728924E+02  0.00000000000E+00 0.  1.
         12    1    6    6    0    0  0.19649377326E+02 -0.98689798206E+02 -0.82885736309E+02  0.13036801595E+03  0.00000000000E+00 0. -1.
         -5    1    3    3    0  503  0.11854037900E+02  0.14921226077E+03 -0.61769265100E+03  0.63558722303E+03  0.47000000000E+01 0.  1.
         11    1    4    4    0    0  0.33014741028E+02  0.20089306791E+02 -0.41103021250E+02  0.56418186149E+02  0.00000000000E+00 0. -1.
        -12    1    4    4    0    0 -0.81977321547E+01 -0.58740586652E+01 -0.18377214437E+03  0.18404865776E+03  0.00000000000E+00 0.  1.
</event>
<event>
12    1  0.8313893E-002  0.2034463E+03  0.7818608E-02  0.1147011E+00
         21   -1    0    0  503  502  0.00000000000E+00  0.00000000000E+00  0.53277106249E+03  0.53277106249E+03  0.00000000000E+00 0. -1.
         21   -1    0    0  501  503 -0.00000000000E+00 -0.00000000000E+00 -0.10731784407E+03  0.10731784407E+03  0.00000000000E+00 0.  1.
          6    2    1    2  501    0 -0.10506435010E+03 -0.15475695560E+02  0.44060442594E+02  0.20816273498E+03  0.17352921027E+03 0.  0.
         24    2    3    3    0    0 -0.70690381724E+02  0.38829345938E+02 -0.12500818756E+02  0.12241966809E+03  0.91243939476E+02 0.  0.
         -6    2    1    2    0  502  0.10506435010E+03  0.15475695560E+02  0.38139277583E+03  0.43192617159E+03  0.17268976065E+03 0.  0.
        -24    2    5    5    0    0  0.10227921399E+03  0.61644420017E+02  0.34242040218E+03  0.37126115688E+03  0.79511273724E+02 0.  0.
          5    1    3    3  501    0 -0.34373968381E+02 -0.54305041498E+02  0.56561261350E+02  0.85743066891E+02  0.47000000000E+01 0. -1.
        -11    1    4    4    0    0  0.22332387640E+02  0.86404011075E+01 -0.36330104854E+01  0.24219637367E+02  0.00000000000E+00 0.  1.
         12    1    4    4    0    0 -0.93022769364E+02  0.30188944831E+02 -0.88678082705E+01  0.98200030721E+02  0.00000000000E+00 0. -1.
         -5    1    5    5    0  502  0.27851361193E+01 -0.46168724457E+02  0.38972373646E+02  0.60665014702E+02  0.47000000000E+01 0.  1.
         13    1    6    6    0    0  0.48999257991E+02 -0.12825889305E+02  0.14624869577E+03  0.15477115924E+03  0.00000000000E+00 0. -1.
        -14    1    6    6    0    0  0.53279955994E+02  0.74470309322E+02  0.19617170641E+03  0.21648999764E+03  0.00000000000E+00 0.  1.
</event>
<event>
12    1  0.8313893E-002  0.2463643E+03  0.7818608E-02  0.1115821E+00
         21   -1    0    0  503  502  0.00000000000E+00  0.00000000000E+00  0.32174508456E+03  0.32174508456E+03  0.00000000000E+00 0. -1.
         21   -1    0    0  501  503 -0.00000000000E+00 -0.00000000000E+00 -0.18784409669E+03  0.18784409669E+03  0.00000000000E+00 0.  1.
          6    2    1    2  501    0 -0.17351398508E+03  0.31545744246E+02  0.60077947686E+02  0.25240204820E+03  0.17027976138E+03 0.  0.
         24    2    3    3    0    0 -0.12715480867E+03 -0.30024405960E+01 -0.21726900972E+02  0.15211808349E+03  0.80563596492E+02 0.  0.
         -6    2    1    2    0  502  0.17351398508E+03 -0.31545744246E+02  0.73823040178E+02  0.25718713306E+03  0.17202657687E+03 0.  0.
        -24    2    5    5    0    0  0.37462467979E+02  0.31443838464E+02  0.19484935576E+02  0.97648979474E+02  0.82240555649E+02 0.  0.
          5    1    3    3  501    0 -0.46359176410E+02  0.34548184842E+02  0.81804848659E+02  0.10028396471E+03  0.47000000000E+01 0. -1.
        -11    1    4    4    0    0 -0.41980110788E+02 -0.15438333382E+02  0.27940898837E+02  0.52738654393E+02  0.00000000000E+00 0.  1.
         12    1    4    4    0    0 -0.85174697887E+02  0.12435892786E+02 -0.49667799809E+02  0.99379429096E+02  0.00000000000E+00 0. -1.
         -5    1    5    5    0  502  0.13605151711E+03 -0.62989582710E+02  0.54338104602E+02  0.15953815358E+03  0.47000000000E+01 0.  1.
         13    1    6    6    0    0  0.52290242999E+02  0.34753369682E+02  0.38238572643E+02  0.73513635843E+02  0.00000000000E+00 0. -1.
        -14    1    6    6    0    0 -0.14827775020E+02 -0.33095312181E+01 -0.18753637067E+02  0.24135343631E+02  0.00000000000E+00 0.  1.
</event>
<event>
12    1  0.8313893E-002  0.1967054E+03  0.7818608E-02  0.1152777E+00
         21   -1    0    0  501  502  0.00000000000E+00  0.00000000000E+00  0.49373089460E+02  0.49373089460E+02  0.00000000000E+00 0.  1.
         21   -1    0    0  502  503 -0.00000000000E+00 -0.00000000000E+00 -0.81114942636E+03  0.81114942636E+03  0.00000000000E+00 0.  1.
         -6    2    1    2    0  503 -0.81065275043E+02  0.45038584693E+02 -0.46491411502E+03  0.50440430462E+03  0.17227453450E+03 0.  0.
        -24    2    3    3    0    0 -0.65448472949E+02 -0.36081171292E+02 -0.31848829603E+03  0.33621717732E+03  0.77600528911E+02 0.  0.
          6    2    1    2  501    0  0.81065275043E+02 -0.45038584693E+02 -0.29686222188E+03  0.35611821120E+03  0.17347319287E+03 0.  0.
         24    2    5    5    0    0  0.18621735042E+01 -0.46940894692E+02 -0.24315658074E+03  0.26028953091E+03  0.80116177266E+02 0.  0.
          5    1    5    5  501    0  0.79203101539E+02  0.19023099993E+01 -0.53705641135E+02  0.95828680292E+02  0.47000000000E+01 0. -1.
        -11    1    6    6    0    0 -0.83570051203E+01 -0.68418069212E+02 -0.18729702733E+03  0.19957717348E+03  0.00000000000E+00 0.  1.
         12    1    6    6    0    0  0.10219178624E+02  0.21477174520E+02 -0.55859553416E+02  0.60712357431E+02  0.00000000000E+00 0. -1.
         -5    1    3    3    0  503 -0.15616802094E+02  0.81119755984E+02 -0.14642581899E+03  0.16818712729E+03  0.47000000000E+01 0.  1.
         13    1    4    4    0    0 -0.70231930728E+02 -0.47845079358E+02 -0.20351758318E+03  0.22054723389E+03  0.00000000000E+00 0. -1.
        -14    1    4    4    0    0  0.47834577792E+01  0.11763908066E+02 -0.11497071285E+03  0.11566994344E+03  0.00000000000E+00 0.  1.
</event>
<event>
12    1  0.8313893E-002  0.1963144E+03  0.7818608E-02  0.1153082E+00
         21   -1    0    0  501  502  0.00000000000E+00  0.00000000000E+00  0.71976692972E+03  0.71976692972E+03  0.00000000000E+00 0.  1.
         21   -1    0    0  502  503 -0.00000000000E+00 -0.00000000000E+00 -0.56374559594E+02  0.56374559594E+02  0.00000000000E+00 0. -1.
         -6    2    1    2    0  503  0.38877710525E+02 -0.86324126002E+02  0.24176872240E+03  0.31143453987E+03  0.17197681933E+03 0.  0.
        -24    2    3    3    0    0  0.63334277886E+02 -0.11537368065E+03  0.21643394923E+03  0.26554400660E+03  0.79672128861E+02 0.  0.
          6    2    1    2  501    0 -0.38877710525E+02  0.86324126002E+02  0.42162364773E+03  0.46470694945E+03  0.17094653385E+03 0.  0.
         24    2    5    5    0    0 -0.12222856795E+02 -0.14120329998E+02  0.11499213569E+03  0.14090987697E+03  0.79269289199E+02 0.  0.
          5    1    5    5  501    0 -0.26654853730E+02  0.10044445600E+03  0.30663151204E+03  0.32379707247E+03  0.47000000000E+01 0. -1.
        -13    1    6    6    0    0  0.83561218990E+01  0.17407203603E+02  0.97503177057E+02  0.99396705411E+02  0.00000000000E+00 0.  1.
         14    1    6    6    0    0 -0.20578978694E+02 -0.31527533601E+02  0.17488958637E+02  0.41513171563E+02  0.00000000000E+00 0. -1.
         -5    1    3    3    0  503 -0.24456567362E+02  0.29049554651E+02  0.25334773170E+02  0.45890533274E+02  0.47000000000E+01 0.  1.
         13    1    4    4    0    0  0.64891868135E+02 -0.74527731816E+02  0.19675729302E+03  0.22017894930E+03  0.00000000000E+00 0. -1.
        -14    1    4    4    0    0 -0.15575902488E+01 -0.40845948837E+02  0.19676656214E+02  0.45365057297E+02  0.00000000000E+00 0.  1.
</event>
<event>
12    1  0.8313893E-002  0.2085998E+03  0.7818608E-02  0.1142783E+00
         21   -1    0    0  501  502  0.00000000000E+00  0.00000000000E+00  0.39282735604E+03  0.39282735604E+03  0.00000000000E+00 0. -1.
         21   -1    0    0  502  503 -0.00000000000E+00 -0.00000000000E+00 -0.11121857298E+03  0.11121857298E+03  0.00000000000E+00 0.  1.
         -6    2    1    2    0  503  0.10424926305E+03 -0.54097121221E+02  0.16126473187E+03  0.26366681562E+03  0.17239335411E+03 0.  0.
        -24    2    3    3    0    0 -0.31483261811E+01  0.13548472798E+02  0.56842685405E+02  0.99239864206E+02  0.80149776610E+02 0.  0.
          6    2    1    2  501    0 -0.10424926305E+03  0.54097121221E+02  0.12034405120E+03  0.24037911340E+03  0.17177025392E+03 0.  0.
         24    2    5    5    0    0 -0.12560147774E+03  0.45606542832E+02  0.13860870660E+03  0.21065211169E+03  0.85476608813E+02 0.  0.
          5    1    5    5  501    0  0.21352214690E+02  0.84905783890E+01 -0.18264655407E+02  0.29727001710E+02  0.47000000000E+01 0. -1.
        -11    1    6    6    0    0 -0.14605479220E+02  0.45320721173E+02  0.42838957717E+02  0.64050480788E+02  0.00000000000E+00 0.  1.
         12    1    6    6    0    0 -0.11099599852E+03  0.28582165843E+00  0.95769748885E+02  0.14660163090E+03  0.00000000000E+00 0. -1.
         -5    1    3    3    0  503  0.10739758923E+03 -0.67645594019E+02  0.10442204646E+03  0.16442695141E+03  0.47000000000E+01 0.  1.
         11    1    4    4    0    0  0.50980090616E+01 -0.67665318645E+01  0.72056926133E+02  0.72553264941E+02  0.00000000000E+00 0. -1.
        -12    1    4    4    0    0 -0.82463352427E+01  0.20315004663E+02 -0.15214240728E+02  0.26686599265E+02  0.00000000000E+00 0.  1.
</event>
<event>
12    1  0.8313893E-002  0.2993563E+03  0.7818608E-02  0.1085695E+00
         21   -1    0    0  503  502  0.00000000000E+00  0.00000000000E+00  0.69033547088E+03  0.69033547088E+03  0.00000000000E+00 0. -1.
         21   -1    0    0  501  503 -0.00000000000E+00 -0.00000000000E+00 -0.42456430597E+03  0.42456430597E+03  0.00000000000E+00 0. -1.
          6    2    1    2  501    0  0.24411249385E+03 -0.25114538975E+02 -0.33187617011E+03  0.44694068358E+03  0.17144250532E+03 0.  0.
         24    2    3    3    0    0  0.11005228242E+03  0.40798794037E+02 -0.19986612104E+03  0.24752791866E+03  0.86876681078E+02 0.  0.
         -6    2    1    2    0  502 -0.24411249385E+03  0.25114538975E+02  0.59764733502E+03  0.66795909327E+03  0.16960354804E+03 0.  0.
        -24    2    5    5    0    0 -0.13878505782E+03  0.62298240105E+02  0.45419318212E+03  0.48608638945E+03  0.82741575594E+02 0.  0.
          5    1    3    3  501    0  0.13406021143E+03 -0.65913333012E+02 -0.13201004906E+03  0.19941276491E+03  0.47000000000E+01 0. -1.
        -11    1    4    4    0    0  0.61402671733E+02 -0.22805574141E+02 -0.99629581703E+02  0.11923269626E+03  0.00000000000E+00 0.  1.
         12    1    4    4    0    0  0.48649610691E+02  0.63604368178E+02 -0.10023653934E+03  0.12829522240E+03  0.00000000000E+00 0. -1.
         -5    1    5    5    0  502 -0.10532743603E+03 -0.37183701130E+02  0.14345415290E+03  0.18187270382E+03  0.47000000000E+01 0.  1.
         11    1    6    6    0    0 -0.67656687678E+02 -0.13374390760E+02  0.16626027211E+03  0.17999661052E+03  0.00000000000E+00 0. -1.
        -12    1    6    6    0    0 -0.71128370142E+02  0.75672630865E+02  0.28793291000E+03  0.30608977893E+03  0.00000000000E+00 0.  1.
</event>
<event>
12    1  0.8313893E-002  0.2135072E+03  0.7818608E-02  0.1138917E+00
         21   -1    0    0  501  502  0.00000000000E+00  0.00000000000E+00  0.27578672222E+02  0.27578672222E+02  0.00000000000E+00 0.  1.
         21   -1    0    0  502  503 -0.00000000000E+00 -0.00000000000E+00 -0.19931580349E+04  0.19931580349E+04  0.00000000000E+00 0. -1.
         -6    2    1    2    0  503 -0.10793095172E+03  0.61071912264E+02 -0.56391009632E+03  0.60297588673E+03  0.17380004156E+03 0.  0.
        -24    2    3    3    0    0 -0.43005937610E+02 -0.25580824598E+02 -0.18587677519E+03  0.20971358731E+03  0.83220934212E+02 0.  0.
          6    2    1    2  501    0  0.10793095172E+03 -0.61071912264E+02 -0.14016692663E+04  0.14177608204E+04  0.17317662302E+03 0.  0.
         24    2    5    5    0    0 -0.13978883223E+02 -0.24393906203E+02 -0.46235965678E+03  0.46985158601E+03  0.78699357144E+02 0.  0.
          5    1    5    5  501    0  0.12190983495E+03 -0.36678006061E+02 -0.93930960954E+03  0.94790923434E+03  0.47000000000E+01 0. -1.
        -13    1    6    6    0    0  0.24171471355E+02 -0.57672177436E+01 -0.55823960134E+02  0.61105117241E+02  0.00000000000E+00 0.  1.
         14    1    6    6    0    0 -0.38150354578E+02 -0.18626688460E+02 -0.40653569665E+03  0.40874646876E+03  0.00000000000E+00 0. -1.
         -5    1    3    3    0  503 -0.64925014115E+02  0.86652736862E+02 -0.37803332113E+03  0.39326229942E+03  0.47000000000E+01 0.  1.
         13    1    4    4    0    0 -0.61305691723E+02  0.47603957276E+01 -0.12403464937E+03  0.13844003557E+03  0.00000000000E+00 0. -1.
        -14    1    4    4    0    0  0.18299754113E+02 -0.30341220326E+02 -0.61842125820E+02  0.71273551739E+02  0.00000000000E+00 0.  1.
</event>
<event>
12    1  0.8313893E-002  0.2038970E+03  0.7818608E-02  0.1147446E+00
         21   -1    0    0  501  502  0.00000000000E+00  0.00000000000E+00  0.11764235693E+04  0.11764235693E+04  0.00000000000E+00 0.  1.
         21   -1    0    0  502  503 -0.00000000000E+00 -0.00000000000E+00 -0.36086484942E+02  0.36086484942E+02  0.00000000000E+00 0. -1.
         -6    2    1    2    0  503  0.89166347124E+02 -0.46929562077E+02  0.45126959769E+03  0.49519515907E+03  0.17725962460E+03 0.  0.
        -24    2    3    3    0    0  0.35676497788E+02 -0.88680894256E+02  0.20630292452E+03  0.24096082094E+03  0.79775353735E+02 0.  0.
          6    2    1    2  501    0 -0.89166347124E+02  0.46929562077E+02  0.68906748670E+03  0.71731489521E+03  0.17196987060E+03 0.  0.
         24    2    5    5    0    0 -0.90510124722E+02 -0.11280495925E+02  0.26883808557E+03  0.29304486779E+03  0.72677685815E+02 0.  0.
          5    1    5    5  501    0  0.13437775982E+01  0.58210058003E+02  0.42022940113E+03  0.42427002742E+03  0.47000000000E+01 0. -1.
        -11    1    6    6    0    0 -0.23051399604E+02  0.21924546730E+02  0.14265453029E+03  0.14615870753E+03  0.00000000000E+00 0.  1.
         12    1    6    6    0    0 -0.67458725118E+02 -0.33205042656E+02  0.12618355528E+03  0.14688616026E+03  0.00000000000E+00 0. -1.
         -5    1    3    3    0  503  0.53489849335E+02  0.41751332179E+02  0.24496667317E+03  0.25423433813E+03  0.47000000000E+01 0.  1.
         13    1    4    4    0    0  0.53903243034E+02 -0.27877741448E+02  0.91922209832E+02  0.11014726841E+03  0.00000000000E+00 0. -1.
        -14    1    4    4    0    0 -0.18226745246E+02 -0.60803152808E+02  0.11438071469E+03  0.13081355253E+03  0.00000000000E+00 0.  1.
</event>
<event>
12    1  0.8313893E-002  0.1820600E+03  0.7818608E-02  0.1165937E+00
         21   -1    0    0  503  502  0.00000000000E+00  0.00000000000E+00  0.96773387380E+02  0.96773387380E+02  0.00000000000E+00 0. -1.
         21   -1    0    0  501  503 -0.00000000000E+00 -0.00000000000E+00 -0.71115087247E+03  0.71115087247E+03  0.00000000000E+00 0. -1.
          6    2    1    2  501    0 -0.55144731904E+02 -0.13895035191E+02 -0.59857485954E+03  0.62564983711E+03  0.17295040545E+03 0.  0.
         24    2    3    3    0    0  0.11660523850E+02  0.45610158722E+02 -0.34049424943E+03  0.35246216973E+03  0.77955069082E+02 0.  0.
         -6    2    1    2    0  502  0.55144731904E+02  0.13895035191E+02 -0.15802625555E+02  0.18227442274E+03  0.17245355535E+03 0.  0.
        -24    2    5    5    0    0  0.15527397010E+02  0.29398504644E+02 -0.71589476527E+02  0.11195974767E+03  0.79401258274E+02 0.  0.
          5    1    3    3  501    0 -0.66805255753E+02 -0.59505193913E+02 -0.25808061010E+03  0.27318766738E+03  0.47000000000E+01 0. -1.
        -13    1    4    4    0    0 -0.22190452224E+02  0.50494413128E+02 -0.17559981756E+03  0.18405813716E+03  0.00000000000E+00 0.  1.
         14    1    4    4    0    0  0.33850976073E+02 -0.48842544058E+01 -0.16489443188E+03  0.16840403257E+03  0.00000000000E+00 0. -1.
         -5    1    5    5    0  502  0.39617334894E+02 -0.15503469454E+02  0.55786850972E+02  0.70314675073E+02  0.47000000000E+01 0.  1.
         11    1    6    6    0    0  0.42194180203E+02 -0.86114248848E+00 -0.20644842654E+02  0.46981910749E+02  0.00000000000E+00 0. -1.
        -12    1    6    6    0    0 -0.26666783193E+02  0.30259647133E+02 -0.50944633873E+02  0.64977836921E+02  0.00000000000E+00 0.  1.
</event>
<event>
12    1  0.8313893E-002  0.2398237E+03  0.7818608E-02  0.1120163E+00
         21   -1    0    0  503  502  0.00000000000E+00  0.00000000000E+00  0.49842217424E+03  0.49842217424E+03  0.00000000000E+00 0.  1.
         21   -1    0    0  501  503 -0.00000000000E+00 -0.00000000000E+00 -0.15520589357E+03  0.15520589357E+03  0.00000000000E+00 0. -1.
          6    2    1    2  501    0 -0.15837740447E+03  0.47637999097E+02  0.41886224307E+01  0.23835084690E+03  0.17158321729E+03 0.  0.
         24    2    3    3    0    0 -0.35974989336E+02  0.37518141779E+02  0.43695115403E+02  0.10924772637E+03  0.85580323598E+02 0.  0.
         -6    2    1    2    0  502  0.15837740447E+03 -0.47637999097E+02  0.33902765824E+03  0.41527722092E+03  0.17367393575E+03 0.  0.
        -24    2    5    5    0    0  0.84687797457E+02 -0.61397767998E+02  0.30661464779E+03  0.33347145909E+03  0.79050381634E+02 0.  0.
          5    1    3    3  501    0 -0.12240241513E+03  0.10119857318E+02 -0.39506492972E+02  0.12910312052E+03  0.47000000000E+01 0. -1.
        -11    1    4    4    0    0 -0.16432469639E+02 -0.27538991502E+02  0.11425678678E+02  0.34043622672E+02  0.00000000000E+00 0.  1.
         12    1    4    4    0    0 -0.19542519696E+02  0.65057133281E+02  0.32269436725E+02  0.75204103700E+02  0.00000000000E+00 0. -1.
         -5    1    5    5    0  502  0.73689607011E+02  0.13759768900E+02  0.32413010448E+02  0.81805761826E+02  0.47000000000E+01 0.  1.
         13    1    6    6    0    0  0.32455524314E+02  0.89876918346E+01  0.37303192025E+02  0.50256022507E+02  0.00000000000E+00 0. -1.
        -14    1    6    6    0    0  0.52232273143E+02 -0.70385459832E+02  0.26931145577E+03  0.28321543659E+03  0.00000000000E+00 0.  1.
</event>
<event>
12    1  0.8313893E-002  0.2027452E+03  0.7818608E-02  0.1147933E+00
         21   -1    0    0  503  502  0.00000000000E+00  0.00000000000E+00  0.15446462228E+04  0.15446462228E+04  0.00000000000E+00 0. -1.
         21   -1    0    0  501  503 -0.00000000000E+00 -0.00000000000E+00 -0.28538506828E+02  0.28538506828E+02  0.00000000000E+00 0. -1.
          6    2    1    2  501    0  0.88503620590E+02 -0.59588051496E+02  0.53389822264E+03  0.57026843911E+03  0.16963240777E+03 0.  0.
         24    2    3    3    0    0 -0.85703366472E+00 -0.11021031994E+02  0.36032306141E+03  0.36903596532E+03  0.78947054795E+02 0.  0.
         -6    2    1    2    0  502 -0.88503620590E+02  0.59588051496E+02  0.98220949330E+03  0.10029162905E+04  0.17240060980E+03 0.  0.
        -24    2    5    5    0    0 -0.38743984338E+02  0.72450659660E+02  0.35705630130E+03  0.37563639160E+03  0.82845048037E+02 0.  0.
          5    1    3    3  501    0  0.89360654255E+02 -0.48567019503E+02  0.17357516123E+03  0.20123247379E+03  0.47000000000E+01 0. -1.
        -13    1    4    4    0    0  0.92031819550E+01  0.23043093296E+02  0.28136311631E+03  0.28245510426E+03  0.00000000000E+00 0.  1.
         14    1    4    4    0    0 -0.10060215620E+02 -0.34064125290E+02  0.78959945106E+02  0.86580861056E+02  0.00000000000E+00 0. -1.
         -5    1    5    5    0  502 -0.49759636252E+02 -0.12862608164E+02  0.62515319200E+03  0.62727989890E+03  0.47000000000E+01 0.  1.
         13    1    6    6    0    0 -0.15462912499E+02  0.45645583509E+02  0.32253702808E+03  0.32611770182E+03  0.00000000000E+00 0. -1.
        -14    1    6    6    0    0 -0.23281071840E+02  0.26805076151E+02  0.34519273220E+02  0.49518689776E+02  0.00000000000E+00 0.  1.
</event>
<event>
12    1  0.8313893E-002  0.1847018E+03  0.7818608E-02  0.1163824E+00
         21   -1    0    0  503  502  0.00000000000E+00  0.00000000000E+00  0.14656590749E+03  0.14656590749E+03  0.00000000000E+00 0.  1.
         21   -1    0    0  501  503 -0.00000000000E+00 -0.00000000000E+00 -0.28022001232E+03  0.28022001232E+03  0.00000000000E+00 0.  1.
          6    2    1    2  501    0 -0.58371720077E+02 -0.27040918256E+02 -0.15674664115E+03  0.24064612013E+03  0.17088761412E+03 0.  0.
         24    2    3    3    0    0 -0.49347621181E+02 -0.40400729642E+02 -0.18008714837E+03  0.21189219521E+03  0.91648866381E+02 0.  0.
         -6    2    1    2    0  502  0.58371720077E+02  0.27040918256E+02  0.23092536324E+02  0.18613979967E+03  0.17313662473E+03 0.  0.
        -24    2    5    5    0    0 -0.18430197069E+01  0.40563839924E+02 -0.39008015906E+02  0.98462819314E+02  0.80774251166E+02 0.  0.
          5    1    3    3  501    0 -0.90240988955E+01  0.13359811386E+02  0.23340507225E+02  0.28753924926E+02  0.47000000000E+01 0. -1.
        -13    1    4    4    0    0 -0.82585993386E+01 -0.58163401434E+02 -0.13990607671E+03  0.15173956646E+03  0.00000000000E+00 0.  1.
         14    1    4    4    0    0 -0.41089021843E+02  0.17762671792E+02 -0.40181071665E+02  0.60152628748E+02  0.00000000000E+00 0. -1.
         -5    1    5    5    0  502  0.60214739784E+02 -0.13522921668E+02  0.62100552230E+02  0.87676980359E+02  0.47000000000E+01 0.  1.
         11    1    6    6    0    0  0.62923182421E+01 -0.48268632542E+01 -0.50353082617E+02  0.50973765868E+02  0.00000000000E+00 0. -1.
        -12    1    6    6    0    0 -0.81353379490E+01  0.45390703178E+02  0.11345066711E+02  0.47489053446E+02  0.00000000000E+00 0.  1.
</event>
<event>
12    1  0.8313893E-002  0.1886355E+03  0.7818608E-02  0.1159786E+00
         21   -1    0    0  501  502  0.00000000000E+00  0.00000000000E+00  0.84387553812E+02  0.84387553812E+02  0.00000000000E+00 0.  1.
         21   -1    0    0  502  503 -0.00000000000E+00 -0.00000000000E+00 -0.59390761688E+03  0.59390761688E+03  0.00000000000E+00 0.  1.
         -6    2    1    2    0  503  0.30568010705E+02  0.70239638358E+02 -0.43767341479E+03  0.47644049882E+03  0.17195790423E+03 0.  0.
        -24    2    3    3    0    0 -0.25376466739E+02  0.95548858042E+02 -0.29948349326E+03  0.32514976689E+03  0.79110421763E+02 0.  0.
          6    2    1    2  501    0 -0.30568010705E+02 -0.70239638358E+02 -0.71846648276E+02  0.20185467187E+03  0.17238143059E+03 0.  0.
         24    2    5    5    0    0 -0.48729583714E+02  0.19264055552E+02 -0.46046876907E+02  0.10683639910E+03  0.80919868601E+02 0.  0.
          5    1    5    5  501    0  0.18161573008E+02 -0.89503693910E+02 -0.25799771369E+02  0.95018272771E+02  0.47000000000E+01 0. -1.
        -11    1    6    6    0    0 -0.40316817514E+02 -0.96479103868E+01  0.10507050239E+02  0.42765945026E+02  0.00000000000E+00 0.  1.
         12    1    6    6    0    0 -0.84127662001E+01  0.28911965939E+02 -0.56553927145E+02  0.64070454073E+02  0.00000000000E+00 0. -1.
         -5    1    3    3    0  503  0.55944477445E+02 -0.25309219684E+02 -0.13818992152E+03  0.15129073193E+03  0.47000000000E+01 0.  1.
         13    1    4    4    0    0 -0.30105973322E+02  0.26041896419E+02 -0.19859050825E+03  0.20254071187E+03  0.00000000000E+00 0. -1.
        -14    1    4    4    0    0  0.47295065824E+01  0.69506961623E+02 -0.10089298502E+03  0.12260905502E+03  0.00000000000E+00 0.  1.
</event>
<event>
12    1  0.8313893E-002  0.1962738E+03  0.7818608E-02  0.1153392E+00
         21   -1    0    0  501  502  0.00000000000E+00  0.00000000000E+00  0.59659548467E+03  0.59659548467E+03  0.00000000000E+00 0.  1.
         21   -1    0    0  502  503 -0.00000000000E+00 -0.00000000000E+00 -0.15392835738E+03  0.15392835738E+03  0.00000000000E+00 0.  1.
         -6    2    1    2    0  503  0.71162218702E+02 -0.62125446096E+02 -0.65204149165E+02  0.20682115367E+03  0.17204585469E+03 0.  0.
        -24    2    3    3    0    0 -0.14540696898E+02 -0.62668953690E+02 -0.71009363614E+01  0.10317098010E+03  0.80343003525E+02 0.  0.
          6    2    1    2  501    0 -0.71162218702E+02  0.62125446096E+02  0.50787127646E+03  0.54370268838E+03  0.16957519713E+03 0.  0.
         24    2    5    5    0    0 -0.62489305395E+02  0.31038418912E+01  0.44730934100E+03  0.45856393567E+03  0.79250800774E+02 0.  0.
          5    1    5    5  501    0 -0.86729133070E+01  0.59021604205E+02  0.60561935454E+02  0.85138752716E+02  0.47000000000E+01 0. -1.
        -11    1    6    6    0    0 -0.54364382397E+02  0.33535022546E+02  0.22008466061E+03  0.22916662420E+03  0.00000000000E+00 0.  1.
         12    1    6    6    0    0 -0.81249229974E+01 -0.30431180655E+02  0.22722468039E+03  0.22939731147E+03  0.00000000000E+00 0. -1.
         -5    1    3    3    0  503  0.85702915600E+02  0.54350759408E+00 -0.58103212803E+02  0.10365017357E+03  0.47000000000E+01 0.  1.
         11    1    4    4    0    0  0.10774371772E+02 -0.66375257627E+02 -0.25222162160E+02  0.71818656185E+02  0.00000000000E+00 0. -1.
        -12    1    4    4    0    0 -0.25315068670E+02  0.37063039370E+01  0.18121225799E+02  0.31352323919E+02  0.00000000000E+00 0.  1.
</event>
<event>
12    1  0.8313893E-002  0.1735718E+03  0.7818608E-02  0.1174322E+00
         21   -1    0    0  501  502  0.00000000000E+00  0.00000000000E+00  0.57937916840E+02  0.57937916840E+02  0.00000000000E+00 0. -1.
         21   -1    0    0  502  503 -0.00000000000E+00 -0.00000000000E+00 -0.94840460112E+03  0.94840460112E+03  0.00000000000E+00 0. -1.
         -6    2    1    2    0  503  0.17067075205E+02 -0.10240687330E+02 -0.78451545403E+03  0.80348719078E+03  0.17242682910E+03 0.  0.
        -24    2    3    3    0    0  0.36524893102E+02 -0.57645289957E+02 -0.66787789056E+03  0.67600301827E+03  0.79133790115E+02 0.  0.
          6    2    1    2  501    0 -0.17067075205E+02  0.10240687330E+02 -0.10595123025E+03  0.20285532719E+03  0.17183848185E+03 0.  0.
         24    2    5    5    0    0 -0.66221690894E+02 -0.29937721384E+02 -0.75393345736E+02  0.13224119916E+03  0.80758892195E+02 0.  0.
          5    1    5    5  501    0  0.49154615689E+02  0.40178408714E+02 -0.30557884514E+02  0.70614128021E+02  0.47000000000E+01 0. -1.
        -13    1    6    6    0    0 -0.40215772513E+02 -0.62466095725E+01 -0.86295914330E+02  0.95411285077E+02  0.00000000000E+00 0.  1.
         14    1    6    6    0    0 -0.26005918381E+02 -0.23691111812E+02  0.10902568594E+02  0.36829914087E+02  0.00000000000E+00 0. -1.
         -5    1    3    3    0  503 -0.19457817897E+02  0.47404602627E+02 -0.11663756347E+03  0.12748417251E+03  0.47000000000E+01 0.  1.
         11    1    4    4    0    0 -0.10348152054E+02 -0.40817091888E+02 -0.15193846428E+03  0.15766551992E+03  0.00000000000E+00 0. -1.
        -12    1    4    4    0    0  0.46873045157E+02 -0.16828198069E+02 -0.51593942627E+03  0.51833749835E+03  0.00000000000E+00 0.  1.
</event>
<event>
12    1  0.8313893E-002  0.2182404E+03  0.7818608E-02  0.1136959E+00
         21   -1    0    0  501  502  0.00000000000E+00  0.00000000000E+00  0.64192309050E+02  0.64192309050E+02  0.00000000000E+00 0.  1.
         21   -1    0    0  502  503 -0.00000000000E+00 -0.00000000000E+00 -0.74588657863E+03  0.74588657863E+03  0.00000000000E+00 0.  1.
         -6    2    1    2    0  503 -0.38025531107E+02  0.10462692198E+03 -0.42111988183E+03  0.47018493782E+03  0.17702877467E+03 0.  0.
        -24    2    3    3    0    0 -0.75138032948E+02  0.12980899494E+02 -0.23681457938E+03  0.26097961824E+03  0.78835197615E+02 0.  0.
          6    2    1    2  501    0  0.38025531107E+02 -0.10462692198E+03 -0.26057438775E+03  0.33989394986E+03  0.18771295049E+03 0.  0.
         24    2    5    5    0    0  0.47272268363E+02 -0.40260010433E+02 -0.25512527205E+03  0.27446930379E+03  0.79930960739E+02 0.  0.
          5    1    5    5  501    0 -0.92467372561E+01 -0.64366911544E+02 -0.54491156931E+01  0.65424646070E+02  0.47000000000E+01 0. -1.
        -13    1    6    6    0    0  0.41091329862E+02 -0.33448157771E+02 -0.63838981867E+02  0.82961992828E+02  0.00000000000E+00 0.  1.
         14    1    6    6    0    0  0.61809385002E+01 -0.68118526614E+01 -0.19128629019E+03  0.19150731096E+03  0.00000000000E+00 0. -1.
         -5    1    3    3    0  503  0.37112501841E+02  0.91646022482E+02 -0.18430530245E+03  0.20920531958E+03  0.47000000000E+01 0.  1.
         11    1    4    4    0    0  0.46630094914E+01 -0.18785400080E+02 -0.20289739269E+02  0.28041191724E+02  0.00000000000E+00 0. -1.
        -12    1    4    4    0    0 -0.79801042439E+02  0.31766299574E+02 -0.21652484011E+03  0.23293842652E+03  0.00000000000E+00 0.  1.
</event>
<event>
12    1  0.8313893E-002  0.1847108E+03  0.7818608E-02  0.1163548E+00
         21   -1    0    0  501  502  0.00000000000E+00  0.00000000000E+00  0.40920869362E+02  0.40920869362E+02  0.00000000000E+00 0. -1.
         21   -1    0    0  502  503 -0.00000000000E+00 -0.00000000000E+00 -0.82951921636E+03  0.82951921636E+03  0.00000000000E+00 0. -1.
         -6    2    1    2    0  503  0.33992322726E+02 -0.50914590533E+02 -0.38971401978E+03  0.43127149953E+03  0.17427081099E+03 0.  0.
        -24    2    3    3    0    0  0.86732440171E+02 -0.26447373356E+02 -0.20923300226E+03  0.24159901236E+03  0.79810110917E+02 0.  0.
          6    2    1    2  501    0 -0.33992322726E+02  0.50914590533E+02 -0.39888432722E+03  0.43916858619E+03  0.17324135494E+03 0.  0.
         24    2    5    5    0    0  0.17822225336E+02  0.39356036771E+02 -0.11034306752E+03  0.14574654185E+03  0.84852416375E+02 0.  0.
          5    1    5    5  501    0 -0.51814548062E+02  0.11558553762E+02 -0.28854125970E+03  0.29342204434E+03  0.47000000000E+01 0. -1.
        -11    1    6    6    0    0  0.41790111181E+02  0.53107507494E+02 -0.77508608009E+02  0.10283192627E+03  0.00000000000E+00 0.  1.
         12    1    6    6    0    0 -0.23967885845E+02 -0.13751470723E+02 -0.32834459511E+02  0.42914615579E+02  0.00000000000E+00 0. -1.
         -5    1    3    3    0  503 -0.52740117445E+02 -0.24467217177E+02 -0.18048101752E+03  0.18967248717E+03  0.47000000000E+01 0.  1.
         13    1    4    4    0    0  0.58908077332E+02  0.86106307511E+01 -0.17615886615E+03  0.18594690280E+03  0.00000000000E+00 0. -1.
        -14    1    4    4    0    0  0.27824362838E+02 -0.35058004107E+02 -0.33074136102E+02  0.55652109558E+02  0.00000000000E+00 0.  1.
</event>
<event>
12    1  0.8313893E-002  0.1846311E+03  0.7818608E-02  0.1163597E+00
         21   -1    0    0  501  502  0.00000000000E+00  0.00000000000E+00  0.62329740694E+03  0.62329740694E+03  0.00000000000E+00 0. -1.
         21   -1    0    0  502  503 -0.00000000000E+00 -0.00000000000E+00 -0.36323925346E+03  0.36323925346E+03  0.00000000000E+00 0. -1.
         -6    2    1    2    0  503 -0.55771715086E+02  0.35754353497E+02 -0.32473264073E+03  0.37355043458E+03  0.17233624464E+03 0.  0.
        -24    2    3    3    0    0  0.97497106462E+01 -0.32527152623E+02 -0.11653947631E+03  0.14481061509E+03  0.78965765921E+02 0.  0.
          6    2    1    2  501    0  0.55771715086E+02 -0.35754353497E+02  0.58479079422E+03  0.61298622583E+03  0.17141464947E+03 0.  0.
         24    2    5    5    0    0  0.53949057597E+02 -0.68150003222E+02  0.55892589697E+03  0.57122639931E+03  0.79665031256E+02 0.  0.
          5    1    5    5  501    0  0.18226574890E+01  0.32395649725E+02  0.25864897248E+02  0.41759826521E+02  0.47000000000E+01 0. -1.
        -11    1    6    6    0    0  0.85412073102E+01 -0.35573902612E+02  0.68778005086E+02  0.77902944444E+02  0.00000000000E+00 0.  1.
         12    1    6    6    0    0  0.45407850286E+02 -0.32576100610E+02  0.49014789188E+03  0.49332345486E+03  0.00000000000E+00 0. -1.
         -5    1    3    3    0  503 -0.65521425732E+02  0.68281506121E+02 -0.20819316442E+03  0.22873981949E+03  0.47000000000E+01 0.  1.
         13    1    4    4    0    0 -0.24121631433E+02 -0.43417830343E+02 -0.76901378867E+02  0.91546617449E+02  0.00000000000E+00 0. -1.
        -14    1    4    4    0    0  0.33871342079E+02  0.10890677720E+02 -0.39638097446E+02  0.53263997640E+02  0.00000000000E+00 0.  1.
</event>
<event>
12    1  0.8313893E-002  0.2037128E+03  0.7818608E-02  0.1146661E+00
         21   -1    0    0  501  502  0.00000000000E+00  0.00000000000E+00  0.19864993613E+04  0.19864993613E+04  0.00000000000E+00 0. -1.
         21   -1    0    0  502  503 -0.00000000000E+00 -0.00000000000E+00 -0.28031253994E+02  0.28031253994E+02  0.00000000000E+00 0.  1.
         -6    2    1    2    0  503  0.67562653155E+02 -0.84263914722E+02  0.47038013807E+03  0.51256367016E+03  0.17262364336E+03 0.  0.
        -24    2    3    3    0    0  0.64497233069E+02 -0.12207987926E+03  0.41916668130E+03  0.44865473394E+03  0.80789687348E+02 0.  0.
          6    2    1    2  501    0 -0.67562653155E+02  0.84263914722E+02  0.14880879692E+04  0.15019669451E+04  0.17272458040E+03 0.  0.
         24    2    5    5    0    0  0.17701849394E+01  0.93851420596E+02  0.67435977157E+03  0.68522057546E+03  0.77168081593E+02 0.  0.
          5    1    5    5  501    0 -0.69332838094E+02 -0.95875058737E+01  0.81372819766E+03  0.81674636967E+03  0.47000000000E+01 0. -1.
        -11    1    6    6    0    0  0.16162806551E+02  0.34394434502E+00  0.31200535168E+02  0.35140119637E+02  0.00000000000E+00 0.  1.
         12    1    6    6    0    0 -0.14392621612E+02  0.93507476251E+02  0.64315923640E+03  0.65008045582E+03  0.00000000000E+00 0. -1.
         -5    1    3    3    0  503  0.30654200852E+01  0.37815964535E+02  0.51213456777E+02  0.63908936223E+02  0.47000000000E+01 0.  1.
         11    1    4    4    0    0 -0.85177610907E+00  0.82449085823E+01  0.66890882530E+02  0.67402479226E+02  0.00000000000E+00 0. -1.
        -12    1    4    4    0    0  0.65349009179E+02 -0.13032478784E+03  0.35227579877E+03  0.38125225471E+03  0.00000000000E+00 0.  1.
</event>
<event>
12    1  0.8313893E-002  0.2212253E+03  0.7818608E-02  0.1133009E+00
         21   -1    0    0  501  502  0.00000000000E+00  0.00000000000E+00  0.51987828757E+02  0.51987828757E+02  0.00000000000E+00 0. -1.
         21   -1    0    0  502  503 -0.00000000000E+00 -0.00000000000E+00 -0.10082468898E+04  0.10082468898E+04  0.00000000000E+00 0. -1.
         -6    2    1    2    0  503 -0.74014805774E+02 -0.11654531762E+03 -0.34097326080E+03  0.40645220879E+03  0.17285725590E+03 0.  0.
        -24    2    3    3    0    0 -0.61619155887E+02 -0.13302758966E+03 -0.18852089335E+03  0.25253946803E+03  0.82114527951E+02 0.  0.
          6    2    1    2  501    0  0.74014805774E+02  0.11654531762E+03 -0.61528580027E+03  0.65378250979E+03  0.17260924531E+03 0.  0.
         24    2    5    5    0    0  0.83355906018E+02  0.14364288856E+03 -0.57558810944E+03  0.60459377977E+03  0.81550477045E+02 0.  0.
          5    1    5    5  501    0 -0.93411002445E+01 -0.27097570933E+02 -0.39697690831E+02  0.49188730026E+02  0.47000000000E+01 0. -1.
        -13    1    6    6    0    0  0.65439642389E+02  0.35135722382E+02 -0.20551409958E+03  0.21852439431E+03  0.00000000000E+00 0.  1.
         14    1    6    6    0    0  0.17916263630E+02  0.10850716617E+03 -0.37007400986E+03  0.38606938546E+03  0.00000000000E+00 0. -1.
         -5    1    3    3    0  503 -0.12395649887E+02  0.16482272033E+02 -0.15245236746E+03  0.15391274077E+03  0.47000000000E+01 0.  1.
         13    1    4    4    0    0 -0.68198106206E+02 -0.49671235891E+02 -0.91578723344E+02  0.12451857666E+03  0.00000000000E+00 0. -1.
        -14    1    4    4    0    0  0.65789503196E+01 -0.83356353764E+02 -0.96942170003E+02  0.12802089136E+03  0.00000000000E+00 0.  1.
</event>
<event>
12    1  0.8313893E-002  0.2202852E+03  0.7818608E-02  0.1133909E+00
         21   -1    0    0  501  502  0.00000000000E+00  0.00000000000E+00  0.24434386006E+03  0.24434386006E+03  0.00000000000E+00 0. -1.
         21   -1    0    0  502  503 -0.00000000000E+00 -0.00000000000E+00 -0.30960795904E+03  0.30960795904E+03  0.00000000000E+00 0.  1.
         -6    2    1    2    0  503  0.20654315158E+02 -0.13515915298E+03 -0.19940234636E+03  0.29713103313E+03  0.17271640845E+03 0.  0.
        -24    2    3    3    0    0  0.31347258889E+02 -0.62279809473E+02 -0.25470789409E+02  0.10818655912E+03  0.78702891649E+02 0.  0.
          6    2    1    2  501    0 -0.20654315158E+02  0.13515915298E+03  0.13413824738E+03  0.25682078597E+03  0.17108258043E+03 0.  0.
         24    2    5    5    0    0 -0.36788586671E+01  0.15461550939E+03  0.70740130297E+02  0.18820499203E+03  0.80606843683E+02 0.  0.
          5    1    5    5  501    0 -0.16975456491E+02 -0.19456356406E+02  0.63398117079E+02  0.68615793931E+02  0.47000000000E+01 0. -1.
        -11    1    6    6    0    0 -0.41996699415E+02  0.80573960663E+02  0.41081339884E+02  0.99717412648E+02  0.00000000000E+00 0.  1.
         12    1    6    6    0    0  0.38317840747E+02  0.74041548723E+02  0.29658790413E+02  0.88487579386E+02  0.00000000000E+00 0. -1.
         -5    1    3    3    0  503 -0.10692943731E+02 -0.72879343508E+02 -0.17393155695E+03  0.18894447401E+03  0.47000000000E+01 0.  1.
         13    1    4    4    0    0  0.40441825261E+02 -0.17447772305E+02  0.15583424533E+02  0.46720542687E+02  0.00000000000E+00 0. -1.
        -14    1    4    4    0    0 -0.90945663718E+01 -0.44832037168E+02 -0.41054213942E+02  0.61466016436E+02  0.00000000000E+00 0.  1.
</event>
<event>
12    1  0.8313893E-002  0.1902684E+03  0.7818608E-02  0.1158553E+00
         21   -1    0    0  501  502  0.00000000000E+00  0.00000000000E+00  0.64561225341E+02  0.64561225341E+02  0.00000000000E+00 0. -1.
         21   -1    0    0  502  503 -0.00000000000E+00 -0.00000000000E+00 -0.64663651383E+03  0.64663651383E+03  0.00000000000E+00 0. -1.
         -6    2    1    2    0  503  0.69835368817E+02  0.33064899169E+02 -0.42290201608E+03  0.46312882857E+03  0.17225542185E+03 0.  0.
        -24    2    3    3    0    0  0.34764908243E+02  0.60384349741E+02 -0.13779682880E+03  0.17454028514E+03  0.81372455857E+02 0.  0.
          6    2    1    2  501    0 -0.69835368817E+02 -0.33064899169E+02 -0.15917327241E+03  0.24806891060E+03  0.17387290606E+03 0.  0.
         24    2    5    5    0    0 -0.73219397334E+02  0.38730262018E+02 -0.11911199135E+03  0.16564929486E+03  0.79943161439E+02 0.  0.
          5    1    5    5  501    0  0.33840285163E+01 -0.71795161187E+02 -0.40061281061E+02  0.82419615742E+02  0.47000000000E+01 0. -1.
        -11    1    6    6    0    0 -0.17020426168E+02 -0.24907572871E+02 -0.29118910348E+02  0.41928427507E+02  0.00000000000E+00 0.  1.
         12    1    6    6    0    0 -0.56198971165E+02  0.63637834889E+02 -0.89993081002E+02  0.12372086735E+03  0.00000000000E+00 0. -1.
         -5    1    3    3    0  503  0.35070460574E+02 -0.27319450572E+02 -0.28510518728E+03  0.28858854343E+03  0.47000000000E+01 0.  1.
         11    1    4    4    0    0  0.37557633620E+02  0.39337595534E+02 -0.14273194866E+03  0.15274302417E+03  0.00000000000E+00 0. -1.
        -12    1    4    4    0    0 -0.27927253767E+01  0.21046754207E+02  0.49351198624E+01  0.21797260969E+02  0.00000000000E+00 0.  1.
</event>
<event>
12    1  0.8313893E-002  0.2312385E+03  0.7818608E-02  0.1128075E+00
         21   -1    0    0  501  502  0.00000000000E+00  0.00000000000E+00  0.27147911871E+03  0.27147911871E+03  0.00000000000E+00 0. -1.
         21   -1    0    0  502  503 -0.00000000000E+00 -0.00000000000E+00 -0.71561090072E+03  0.71561090072E+03  0.00000000000E+00 0.  1.
         -6    2    1    2    0  503 -0.86331392866E+02 -0.11696160115E+03 -0.64816296596E+03  0.68817620052E+03  0.17982804834E+03 0.  0.
        -24    2    3    3    0    0  0.17481822087E+01 -0.82502687086E+02 -0.20541749075E+03  0.23541680069E+03  0.80093539225E+02 0.  0.
          6    2    1    2  501    0  0.86331392866E+02  0.11696160115E+03  0.20403118395E+03  0.29891381891E+03  0.16305711139E+03 0.  0.
         24    2    5    5    0    0  0.38162807090E+02  0.10848091021E+03  0.70372574564E+02  0.15650999650E+03  0.79489446022E+02 0.  0.
          5    1    5    5  501    0  0.48168585777E+02  0.84806909446E+01  0.13365860938E+03  0.14240382241E+03  0.47000000000E+01 0. -1.
        -11    1    6    6    0    0 -0.68309178606E+01 -0.10367586258E+02  0.93218579284E+01  0.15525634250E+02  0.00000000000E+00 0.  1.
         12    1    6    6    0    0  0.44993724950E+02  0.11884849647E+03  0.61050716636E+02  0.14098436225E+03  0.00000000000E+00 0. -1.
         -5    1    3    3    0  503 -0.88079575075E+02 -0.34458914068E+02 -0.44274547522E+03  0.45275939982E+03  0.47000000000E+01 0.  1.
         13    1    4    4    0    0 -0.13078353403E+02  0.54806909287E+01 -0.81471988451E+02  0.82696833089E+02  0.00000000000E+00 0. -1.
        -14    1    4    4    0    0  0.14826535612E+02 -0.87983378015E+02 -0.12394550230E+03  0.15271996760E+03  0.00000000000E+00 0.  1.
</event>
<event>
12    1  0.8313893E-002  0.2061082E+03  0.7818608E-02  0.1144805E+00
         21   -1    0    0  503  502  0.00000000000E+00  0.00000000000E+00  0.10882441403E+04  0.10882441403E+04  0.00000000000E+00 0. -1.
         21   -1    0    0  501  503 -0.00000000000E+00 -0.00000000000E+00 -0.41929531755E+02  0.41929531755E+02  0.00000000000E+00 0.  1.
          6    2    1    2  501    0 -0.33566049938E+02 -0.10627259228E+03  0.37256788095E+03  0.42577861043E+03  0.17337835968E+03 0.  0.
         24    2    3    3    0    0 -0.81689442397E+01 -0.38316701977E+01  0.25707341000E+03  0.26925315462E+03  0.79555702485E+02 0.  0.
         -6    2    1    2    0  502  0.33566049938E+02  0.10627259228E+03  0.67374672760E+03  0.70439506163E+03  0.17267659459E+03 0.  0.
        -24    2    5    5    0    0 -0.40157121201E+02  0.81101994710E+02  0.36891229432E+03  0.38972891051E+03  0.87190681045E+02 0.  0.
          5    1    3    3  501    0 -0.25397105698E+02 -0.10244092209E+03  0.11549447095E+03  0.15652545581E+03  0.47000000000E+01 0. -1.
        -11    1    4    4    0    0  0.32675937676E+02  0.87258329485E+01  0.75662880752E+02  0.82877793089E+02  0.00000000000E+00 0.  1.
         12    1    4    4    0    0 -0.40844881916E+02 -0.12557503146E+02  0.18141052925E+03  0.18637536154E+03  0.00000000000E+00 0. -1.
         -5    1    5    5    0  502  0.73723171139E+02  0.25170597574E+02  0.30483443328E+03  0.31466615112E+03  0.47000000000E+01 0.  1.
         11    1    6    6    0    0 -0.34871487424E+02  0.71109043566E+02  0.36999117295E+03  0.37837281188E+03  0.00000000000E+00 0. -1.
        -12    1    6    6    0    0 -0.52856337770E+01  0.99929511445E+01 -0.10788786302E+01  0.11356098630E+02  0.00000000000E+00 0.  1.
</event>
<event>
12    1  0.8313893E-002  0.2533124E+03  0.7818608E-02  0.1112948E+00
         21   -1    0    0  501  502  0.00000000000E+00  0.00000000000E+00  0.51971596572E+03  0.51971596572E+03  0.00000000000E+00 0.  1.
         21   -1    0    0  502  503 -0.00000000000E+00 -0.00000000000E+00 -0.22835570326E+03  0.22835570326E+03  0.00000000000E+00 0. -1.
         -6    2    1    2    0  503 -0.11213013092E+03  0.12910534831E+03 -0.11565369420E+03  0.26866834503E+03  0.17194634459E+03 0.  0.
        -24    2    3    3    0    0 -0.57832154526E+01  0.83730380740E+02 -0.16719972515E+02  0.11642339307E+03  0.78934319107E+02 0.  0.
          6    2    1    2  501    0  0.11213013092E+03 -0.12910534831E+03  0.40701395666E+03  0.47940332394E+03  0.18688453352E+03 0.  0.
         24    2    5    5    0    0  0.66999384824E+02 -0.12677650996E+03  0.40200032346E+03  0.43369299416E+03  0.76968513523E+02 0.  0.
          5    1    5    5  501    0  0.45130746095E+02 -0.23288383554E+01  0.50136331956E+01  0.45710329785E+02  0.47000000000E+01 0. -1.
        -11    1    6    6    0    0  0.22173984900E+02 -0.24672147715E+02  0.20200886168E+03  0.20471438805E+03  0.00000000000E+00 0.  1.
         12    1    6    6    0    0  0.44825399924E+02 -0.10210436224E+03  0.19999146179E+03  0.22897860611E+03  0.00000000000E+00 0. -1.
         -5    1    3    3    0  503 -0.10634691547E+03  0.45374967574E+02 -0.98933721690E+02  0.15224495197E+03  0.47000000000E+01 0.  1.
         11    1    4    4    0    0 -0.35954725245E+02  0.12893366922E+02 -0.66894336719E+01  0.38777953800E+02  0.00000000000E+00 0. -1.
        -12    1    4    4    0    0  0.30171509793E+02  0.70837013818E+02 -0.10030538843E+02  0.77645439269E+02  0.00000000000E+00 0.  1.
</event>
<event>
12    1  0.8313893E-002  0.2269020E+03  0.7818608E-02  0.1129110E+00
         21   -1    0    0  503  502  0.00000000000E+00  0.00000000000E+00  0.49829325857E+02  0.49829325857E+02  0.00000000000E+00 0. -1.
         21   -1    0    0  501  503 -0.00000000000E+00 -0.00000000000E+00 -0.10345254630E+04  0.10345254630E+04  0.00000000000E+00 0. -1.
          6    2    1    2  501    0  0.13784893248E+03  0.52293785825E+02 -0.54210364894E+03  0.58767412661E+03  0.17247476533E+03 0.  0.
         24    2    3    3    0    0  0.15042076723E+03  0.55266365233E+02 -0.33452074629E+03  0.37963653691E+03  0.80864034768E+02 0.  0.
         -6    2    1    2    0  502 -0.13784893248E+03 -0.52293785825E+02 -0.44259248819E+03  0.49668066223E+03  0.17048929998E+03 0.  0.
        -24    2    5    5    0    0 -0.15164389949E+03 -0.25179069948E+02 -0.42912527875E+03  0.46308059286E+03  0.81641122004E+02 0.  0.
          5    1    3    3  501    0 -0.12571834749E+02 -0.29725794089E+01 -0.20758290265E+03  0.20803758970E+03  0.47000000000E+01 0. -1.
        -11    1    4    4    0    0  0.15777008802E+02 -0.15539955352E+02 -0.18306420241E+02  0.28732024661E+02  0.00000000000E+00 0.  1.
         12    1    4    4    0    0  0.13464375843E+03  0.70806320586E+02 -0.31621432605E+03  0.35090451225E+03  0.00000000000E+00 0. -1.
         -5    1    5    5    0  502  0.13794967008E+02 -0.27114715877E+02 -0.13467209444E+02  0.33600069375E+02  0.47000000000E+01 0.  1.
         13    1    6    6    0    0 -0.43429846100E+02 -0.92449029364E+01 -0.43186435465E+02  0.61941003953E+02  0.00000000000E+00 0. -1.
        -14    1    6    6    0    0 -0.10821405339E+03 -0.15934167011E+02 -0.38593884328E+03  0.40113958890E+03  0.00000000000E+00 0.  1.
</event>
<event>
12    1  0.8313893E-002  0.2005394E+03  0.7818608E-02  0.1149482E+00
         21   -1    0    0  503  502  0.00000000000E+00  0.00000000000E+00  0.92786784247E+03  0.92786784247E+03  0.00000000000E+00 0.  1.
         21   -1    0    0  501  503 -0.00000000000E+00 -0.00000000000E+00 -0.68340579538E+02  0.68340579538E+02  0.00000000000E+00 0. -1.
          6    2    1    2  501    0 -0.94786354099E+02 -0.36087340129E+02  0.12792686753E+03  0.23786831376E+03  0.17300087345E+03 0.  0.
         24    2    3    3    0    0 -0.43852247772E+02  0.43142700999E+02  0.38542476019E+02  0.10793239859E+03  0.79872197438E+02 0.  0.
         -6    2    1    2    0  502  0.94786354099E+02  0.36087340129E+02  0.73160039540E+03  0.75834010825E+03  0.17191228051E+03 0.  0.
        -24    2    5    5    0    0  0.11457328539E+03 -0.18299870843E+02  0.56235003682E+03  0.57940641872E+03  0.77539094342E+02 0.  0.
          5    1    3    3  501    0 -0.50934106327E+02 -0.79230041128E+02  0.89384391516E+02  0.12993591517E+03  0.47000000000E+01 0. -1.
        -13    1    4    4    0    0 -0.39538678195E+02  0.65253428179E+02  0.38373964619E+02  0.85404204365E+02  0.00000000000E+00 0.  1.
         14    1    4    4    0    0 -0.43135695767E+01 -0.22110727181E+02  0.16851139951E+00  0.22528194225E+02  0.00000000000E+00 0. -1.
         -5    1    5    5    0  502 -0.19786931295E+02  0.54387210972E+02  0.16925035858E+03  0.17893368953E+03  0.47000000000E+01 0.  1.
         11    1    6    6    0    0  0.53767539940E+02  0.11883463123E+02  0.12195833676E+03  0.13381330634E+03  0.00000000000E+00 0. -1.
        -12    1    6    6    0    0  0.60805745454E+02 -0.30183333965E+02  0.44039170006E+03  0.44559311239E+03  0.00000000000E+00 0.  1.
</event>
<event>
12    1  0.8313893E-002  0.1959826E+03  0.7818608E-02  0.1153207E+00
         21   -1    0    0  503  502  0.00000000000E+00  0.00000000000E+00  0.23505997426E+03  0.23505997426E+03  0.00000000000E+00 0.  1.
         21   -1    0    0  501  503 -0.00000000000E+00 -0.00000000000E+00 -0.21704210581E+03  0.21704210581E+03  0.00000000000E+00 0. -1.
          6    2    1    2  501    0 -0.61953547107E+02 -0.70507803880E+02  0.12151940424E+03  0.23046779678E+03  0.17186869215E+03 0.  0.
         24    2    3    3    0    0 -0.23026400915E+02  0.22960935831E+02  0.90052635935E+02  0.12433591881E+03  0.79325429433E+02 0.  0.
         -6    2    1    2    0  502  0.61953547107E+02  0.70507803880E+02 -0.10350153579E+03  0.22163428328E+03  0.17204532894E+03 0.  0.
        -24    2    5    5    0    0 -0.42928017849E+01  0.21453805841E+02 -0.11130791951E+03  0.13870115907E+03  0.79811431827E+02 0.  0.
          5    1    3    3  501    0 -0.38927146191E+02 -0.93468739711E+02  0.31466768301E+02  0.10613187797E+03  0.47000000000E+01 0. -1.
        -13    1    4    4    0    0  0.27254138557E+02  0.45807542628E+01  0.51219998569E+02  0.58200168655E+02  0.00000000000E+00 0.  1.
         14    1    4    4    0    0 -0.50280539472E+02  0.18380181568E+02  0.38832637366E+02  0.66135750157E+02  0.00000000000E+00 0. -1.
         -5    1    5    5    0  502  0.66246348891E+02  0.49053998039E+02  0.78063837192E+01  0.82933124214E+02  0.47000000000E+01 0.  1.
         11    1    6    6    0    0  0.23095288073E+02  0.33556621639E+02 -0.26087801699E+02  0.48373676566E+02  0.00000000000E+00 0. -1.
        -12    1    6    6    0    0 -0.27388089858E+02 -0.12102815798E+02 -0.85220117809E+02  0.90327482505E+02  0.00000000000E+00 0.  1.
</event>
<event>
12    1  0.8313893E-002  0.3063252E+03  0.7818608E-02  0.1082942E+00
         21   -1    0    0  503  502  0.00000000000E+00  0.00000000000E+00  0.24291157198E+03  0.24291157198E+03  0.00000000000E+00 0.  1.
         21   -1    0    0  501  503 -0.00000000000E+00 -0.00000000000E+00 -0.64662485678E+03  0.64662485678E+03  0.00000000000E+00 0.  1.
          6    2    1    2  501    0 -0.99677276234E+02  0.22389232238E+03 -0.48985540094E+03  0.57774861194E+03  0.18377108954E+03 0.  0.
         24    2    3    3    0    0 -0.11118412193E+03  0.16151306387E+03 -0.46312903270E+03  0.50875608953E+03  0.76784626888E+02 0.  0.
         -6    2    1    2    0  502  0.99677276234E+02 -0.22389232238E+03  0.86142116139E+02  0.31178781682E+03  0.17241765318E+03 0.  0.
        -24    2    5    5    0    0  0.17078320358E+02 -0.10409498806E+03  0.89858782349E+02  0.16615165226E+03  0.91675161393E+02 0.  0.
          5    1    3    3  501    0  0.11506845694E+02  0.62379258506E+02 -0.26726368233E+02  0.68992522410E+02  0.47000000000E+01 0. -1.
        -11    1    4    4    0    0 -0.10804302711E+03  0.16701856918E+03 -0.41498677497E+03  0.46019835023E+03  0.00000000000E+00 0.  1.
         12    1    4    4    0    0 -0.31410948168E+01 -0.55055053091E+01 -0.48142257736E+02  0.48557739293E+02  0.00000000000E+00 0. -1.
         -5    1    5    5    0  502  0.82598955875E+02 -0.11979733431E+03 -0.37166662098E+01  0.14563616456E+03  0.47000000000E+01 0.  1.
         13    1    6    6    0    0 -0.36291181777E+02 -0.36161819002E+02  0.47796800131E+02  0.70066119709E+02  0.00000000000E+00 0. -1.
        -14    1    6    6    0    0  0.53369502136E+02 -0.67933169061E+02  0.42061982218E+02  0.96085532548E+02  0.00000000000E+00 0.  1.
</event>
<event>
12    1  0.8313893E-002  0.2543968E+03  0.7818608E-02  0.1111023E+00
         21   -1    0    0  501  502  0.00000000000E+00  0.00000000000E+00  0.12463570931E+03  0.12463570931E+03  0.00000000000E+00 0.  1.
         21   -1    0    0  502  503 -0.00000000000E+00 -0.00000000000E+00 -0.51772883210E+03  0.51772883210E+03  0.00000000000E+00 0. -1.
         -6    2    1    2    0  503 -0.96771848204E+02  0.15690160691E+03 -0.16520010888E+03  0.30081960970E+03  0.17093407136E+03 0.  0.
        -24    2    3    3    0    0  0.47414864513E+01  0.11570775589E+03 -0.79689954006E+02  0.16176578177E+03  0.80043194069E+02 0.  0.
          6    2    1    2  501    0  0.96771848204E+02 -0.15690160691E+03 -0.22789301390E+03  0.34154493171E+03  0.17531346135E+03 0.  0.
         24    2    5    5    0    0 -0.15862910659E+02 -0.47921984326E+02 -0.97887774967E+02  0.13786233747E+03  0.82920800100E+02 0.  0.
          5    1    5    5  501    0  0.11263475886E+03 -0.10897962258E+03 -0.13000523894E+03  0.20368259423E+03  0.47000000000E+01 0. -1.
        -13    1    6    6    0    0 -0.10625486545E+02 -0.62884677335E+02 -0.34474233437E+02  0.72497285322E+02  0.00000000000E+00 0.  1.
         14    1    6    6    0    0 -0.52374241141E+01  0.14962693009E+02 -0.63413541530E+02  0.65365052152E+02  0.00000000000E+00 0. -1.
         -5    1    3    3    0  503 -0.10151333466E+03  0.41193851018E+02 -0.85510154876E+02  0.13905382793E+03  0.47000000000E+01 0.  1.
         11    1    4    4    0    0  0.21900480951E+02 -0.18155774003E+01 -0.13672732481E+02  0.25881866252E+02  0.00000000000E+00 0. -1.
        -12    1    4    4    0    0 -0.17158994500E+02  0.11752333329E+03 -0.66017221524E+02  0.13588391552E+03  0.00000000000E+00 0.  1.
</event>
<event>
12    1  0.8313893E-002  0.2328332E+03  0.7818608E-02  0.1125421E+00
         21   -1    0    0  501  502  0.00000000000E+00  0.00000000000E+00  0.43622716115E+03  0.43622716115E+03  0.00000000000E+00 0. -1.
         21   -1    0    0  502  503 -0.00000000000E+00 -0.00000000000E+00 -0.20735721536E+03  0.20735721536E+03  0.00000000000E+00 0. -1.
         -6    2    1    2    0  503 -0.46793123251E+02  0.14383426570E+03 -0.91426658107E+02  0.25014026454E+03  0.17701250169E+03 0.  0.
        -24    2    3    3    0    0 -0.83535752098E+02  0.48913867016E+02 -0.22045703598E+02  0.12686938513E+03  0.78987591244E+02 0.  0.
          6    2    1    2  501    0  0.46793123251E+02 -0.14383426570E+03  0.32029660390E+03  0.39344411197E+03  0.17126138619E+03 0.  0.
         24    2    5    5    0    0  0.12600513638E+02 -0.15691964539E+03  0.19490334785E+03  0.26273098953E+03  0.79105687561E+02 0.  0.
          5    1    5    5  501    0  0.34192609613E+02  0.13085379689E+02  0.12539325605E+03  0.13071312243E+03  0.47000000000E+01 0. -1.
        -13    1    6    6    0    0 -0.32701446212E+01  0.86622139303E+01  0.15687380755E+02  0.18215974061E+02  0.00000000000E+00 0.  1.
         14    1    6    6    0    0  0.15870658259E+02 -0.16558185932E+03  0.17921596709E+03  0.24451501547E+03  0.00000000000E+00 0. -1.
         -5    1    3    3    0  503  0.36742628847E+02  0.94920398688E+02 -0.69380954509E+02  0.12327087941E+03  0.47000000000E+01 0.  1.
         13    1    4    4    0    0 -0.30877824055E+02  0.56738279963E+02 -0.32970417029E+02  0.72523932813E+02  0.00000000000E+00 0. -1.
        -14    1    4    4    0    0 -0.52657928043E+02 -0.78244129474E+01  0.10924713431E+02  0.54345452315E+02  0.00000000000E+00 0.  1.
</event>
<event>
12    1  0.8313893E-002  0.1804831E+03  0.7818608E-02  0.1167905E+00
         21   -1    0    0  501  502  0.00000000000E+00  0.00000000000E+00  0.49862555323E+02  0.49862555323E+02  0.00000000000E+00 0. -1.
         21   -1    0    0  502  503 -0.00000000000E+00 -0.00000000000E+00 -0.68990419613E+03  0.68990419613E+03  0.00000000000E+00 0. -1.
         -6    2    1    2    0  503 -0.44536245699E+02 -0.26196439487E+01 -0.41651629980E+03  0.45393830832E+03  0.17488230341E+03 0.  0.
        -24    2    3    3    0    0 -0.31047984152E+02  0.25752841575E+02 -0.89832450029E+02  0.12571375282E+03  0.78146608374E+02 0.  0.
          6    2    1    2  501    0  0.44536245699E+02  0.26196439487E+01 -0.22352534101E+03  0.28582844313E+03  0.17246443435E+03 0.  0.
         24    2    5    5    0    0  0.66672196692E+02 -0.48482006704E+00 -0.59134374401E+02  0.11985821109E+03  0.80147986043E+02 0.  0.
          5    1    5    5  501    0 -0.22135950993E+02  0.31044640157E+01 -0.16439096661E+03  0.16597023205E+03  0.47000000000E+01 0. -1.
        -13    1    6    6    0    0  0.16532659664E+01 -0.31877285120E+02 -0.20961612326E+02  0.38187482063E+02  0.00000000000E+00 0.  1.
         14    1    6    6    0    0  0.65018930725E+02  0.31392465053E+02 -0.38172762075E+02  0.81670729023E+02  0.00000000000E+00 0. -1.
         -5    1    3    3    0  503 -0.13488261547E+02 -0.28372485524E+02 -0.32668384977E+03  0.32822455550E+03  0.47000000000E+01 0.  1.
         11    1    4    4    0    0 -0.12206315511E+02 -0.28010574473E+02 -0.25640141602E+02  0.39887382492E+02  0.00000000000E+00 0. -1.
        -12    1    4    4    0    0 -0.18841668640E+02  0.53763416048E+02 -0.64192308427E+02  0.85826370327E+02  0.00000000000E+00 0.  1.
</event>
<event>
12    1  0.8313893E-002  0.2284545E+03  0.7818608E-02  0.1128219E+00
         21   -1    0    0  503  502  0.00000000000E+00  0.00000000000E+00  0.92354015997E+02  0.92354015997E+02  0.00000000000E+00 0. -1.
         21   -1    0    0  501  503 -0.00000000000E+00 -0.00000000000E+00 -0.10854762014E+04  0.10854762014E+04  0.00000000000E+00 0. -1.
          6    2    1    2  501    0  0.34130328996E+02  0.14552461389E+03 -0.90845988294E+03  0.93674480546E+03  0.17276914955E+03 0.  0.
         24    2    3    3    0    0  0.73231509341E+01 -0.33739442885E+01 -0.35761205654E+03  0.36547882251E+03  0.74989163764E+02 0.  0.
         -6    2    1    2    0  502 -0.34130328996E+02 -0.14552461389E+03 -0.84662302466E+02  0.24108541194E+03  0.16915134581E+03 0.  0.
        -24    2    5    5    0    0  0.13199154674E+01 -0.13465887185E+03 -0.89767386598E+01  0.15667463804E+03  0.79571391992E+02 0.  0.
          5    1    3    3  501    0  0.26807178062E+02  0.14889855818E+03 -0.55084782640E+03  0.57126598295E+03  0.47000000000E+01 0. -1.
        -13    1    4    4    0    0 -0.30839081181E+02 -0.15793477853E+02 -0.14220122793E+03  0.14636144333E+03  0.00000000000E+00 0.  1.
         14    1    4    4    0    0  0.38162232115E+02  0.12419533565E+02 -0.21541082861E+03  0.21911737918E+03  0.00000000000E+00 0. -1.
         -5    1    5    5    0  502 -0.35450244463E+02 -0.10865742041E+02 -0.75685563806E+02  0.84410773905E+02  0.47000000000E+01 0.  1.
         13    1    6    6    0    0 -0.19291750007E+02 -0.13409855877E+03 -0.43839356250E+01  0.13555004232E+03  0.00000000000E+00 0. -1.
        -14    1    6    6    0    0  0.20611665474E+02 -0.56031307689E+00 -0.45928030348E+01  0.21124595714E+02  0.00000000000E+00 0.  1.
</event>
<event>
12    1  0.8313893E-002  0.2201931E+03  0.7818608E-02  0.1134198E+00
         21   -1    0    0  501  502  0.00000000000E+00  0.00000000000E+00  0.61250594077E+02  0.61250594077E+02  0.00000000000E+00 0. -1.
         21   -1    0    0  502  503 -0.00000000000E+00 -0.00000000000E+00 -0.14739396033E+04  0.14739396033E+04  0.00000000000E+00 0. -1.
         -6    2    1    2    0  503  0.38483130726E+02 -0.12381776904E+03 -0.12340593999E+04  0.12535499932E+04  0.17796963652E+03 0.  0.
        -24    2    3    3    0    0  0.19985062990E+02 -0.10874742561E+03 -0.48069291204E+03  0.49979111339E+03  0.80623048927E+02 0.  0.
          6    2    1    2  501    0 -0.38483130726E+02  0.12381776904E+03 -0.17862960927E+03  0.28164020420E+03  0.17493106079E+03 0.  0.
         24    2    5    5    0    0  0.28146206386E+02  0.88596101755E+02 -0.46855577379E+02  0.12976354407E+03  0.77470343081E+02 0.  0.
          5    1    5    5  501    0 -0.66629337112E+02  0.35221667283E+02 -0.13177403190E+03  0.15187666013E+03  0.47000000000E+01 0. -1.
        -11    1    6    6    0    0  0.21430107002E+02 -0.78975099370E+01 -0.17204079957E+02  0.28593714633E+02  0.00000000000E+00 0.  1.
         12    1    6    6    0    0  0.67160993842E+01  0.96493611692E+02 -0.29651497422E+02  0.10116982943E+03  0.00000000000E+00 0. -1.
         -5    1    3    3    0  503  0.18498067736E+02 -0.15070343427E+02 -0.75336648790E+03  0.75375887978E+03  0.47000000000E+01 0.  1.
         13    1    4    4    0    0  0.26838926811E+02 -0.63108881190E+02 -0.13901374589E+03  0.15500929141E+03  0.00000000000E+00 0. -1.
        -14    1    4    4    0    0 -0.68538638210E+01 -0.45638544421E+02 -0.34167916615E+03  0.34478182198E+03  0.00000000000E+00 0.  1.
</event>
<event>
12    1  0.8313893E-002  0.1968580E+03  0.7818608E-02  0.1153023E+00
         21   -1    0    0  501  502  0.00000000000E+00  0.00000000000E+00  0.33589300465E+03  0.33589300465E+03  0.00000000000E+00 0. -1.
         21   -1    0    0  502  503 -0.00000000000E+00 -0.00000000000E+00 -0.14282569993E+03  0.14282569993E+03  0.00000000000E+00 0. -1.
         -6    2    1    2    0  503  0.40261553302E+02 -0.81337353254E+02 -0.12025343040E+02  0.19443706246E+03  0.17153543271E+03 0.  0.
        -24    2    3    3    0    0  0.49226076292E+02 -0.11900147782E+03 -0.15136973493E+02  0.15531263025E+03  0.85488752696E+02 0.  0.
          6    2    1    2  501    0 -0.40261553302E+02  0.81337353254E+02  0.20509264776E+03  0.28428164211E+03  0.17468915298E+03 0.  0.
         24    2    5    5    0    0 -0.81655146952E+02  0.49558903835E+02  0.19336703019E+03  0.23058918873E+03  0.81589935785E+02 0.  0.
          5    1    5    5  501    0  0.41393593650E+02  0.31778449418E+02  0.11725617565E+02  0.53692453380E+02  0.47000000000E+01 0. -1.
        -11    1    6    6    0    0 -0.31745194583E+02  0.27437048393E+02  0.15826150457E+02  0.44844353512E+02  0.00000000000E+00 0.  1.
         12    1    6    6    0    0 -0.49909952370E+02  0.22121855443E+02  0.17754087974E+03  0.18574483522E+03  0.00000000000E+00 0. -1.
         -5    1    3    3    0  503 -0.89645229898E+01  0.37664124569E+02  0.31116304526E+01  0.39124432214E+02  0.47000000000E+01 0.  1.
         11    1    4    4    0    0  0.21157642093E+02 -0.43204108804E+02 -0.48094261713E+02  0.68024251898E+02  0.00000000000E+00 0. -1.
        -12    1    4    4    0    0  0.28068434199E+02 -0.75797369019E+02  0.32957288221E+02  0.87288378353E+02  0.00000000000E+00 0.  1.
</event>
<event>
12    1  0.8313893E-002  0.2075029E+03  0.7818608E-02  0.1143791E+00
         21   -1    0    0  501  502  0.00000000000E+00  0.00000000000E+00  0.10468836703E+04  0.10468836703E+04  0.00000000000E+00 0.  1.
         21   -1    0    0  502  503 -0.00000000000E+00 -0.00000000000E+00 -0.41339774854E+02  0.41339774854E+02  0.00000000000E+00 0.  1.
         -6    2    1    2    0  503 -0.10126345055E+03  0.54043733488E+02  0.44536730161E+03  0.49084980904E+03  0.17148320659E+03 0.  0.
        -24    2    3    3    0    0 -0.68453793836E+02  0.82817689538E+02  0.19944277873E+03  0.24103913057E+03  0.82327084785E+02 0.  0.
          6    2    1    2  501    0  0.10126345055E+03 -0.54043733488E+02  0.56017659387E+03  0.59737363615E+03  0.17286536178E+03 0.  0.
         24    2    5    5    0    0  0.16829259336E+02  0.22679351783E+02  0.32682063879E+03  0.33758014849E+03  0.79693473695E+02 0.  0.
          5    1    5    5  501    0  0.84434191210E+02 -0.76723085271E+02  0.23335595508E+03  0.25979348766E+03  0.47000000000E+01 0. -1.
        -13    1    6    6    0    0  0.31283057440E+02  0.34563005039E+02  0.10394170420E+03  0.11391711404E+03  0.00000000000E+00 0.  1.
         14    1    6    6    0    0 -0.14453798103E+02 -0.11883653256E+02  0.22287893460E+03  0.22366303445E+03  0.00000000000E+00 0. -1.
         -5    1    3    3    0  503 -0.32809656709E+02 -0.28773956049E+02  0.24592452289E+03  0.24981067847E+03  0.47000000000E+01 0.  1.
         13    1    4    4    0    0 -0.76160074625E+01  0.22761096058E+02  0.12621408974E+03  0.12847594138E+03  0.00000000000E+00 0. -1.
        -14    1    4    4    0    0 -0.60837786374E+02  0.60056593480E+02  0.73228688989E+02  0.11256318920E+03  0.00000000000E+00 0.  1.
</event>
<event>
12    1  0.8313893E-002  0.2271096E+03  0.7818608E-02  0.1128692E+00
         21   -1    0    0  501  502  0.00000000000E+00  0.00000000000E+00  0.48581068309E+03  0.48581068309E+03  0.00000000000E+00 0.  1.
         21   -1    0    0  502  503 -0.00000000000E+00 -0.00000000000E+00 -0.10854749564E+03  0.10854749564E+03  0.00000000000E+00 0. -1.
         -6    2    1    2    0  503 -0.12425845908E+02  0.14749842959E+03  0.14463210175E+03  0.26925309898E+03  0.17224574908E+03 0.  0.
        -24    2    3    3    0    0  0.51692761576E+02  0.71181108666E+02  0.40796177707E+02  0.12524088276E+03  0.79259439624E+02 0.  0.
          6    2    1    2  501    0  0.12425845908E+02 -0.14749842959E+03  0.23263108570E+03  0.32510507975E+03  0.17223792400E+03 0.  0.
         24    2    5    5    0    0  0.77246230650E+02 -0.12046237890E+03  0.17442009206E+03  0.23376374138E+03  0.61196024283E+02 0.  0.
          5    1    5    5  501    0 -0.64820384742E+02 -0.27036050692E+02  0.58210993645E+02  0.91341338376E+02  0.47000000000E+01 0. -1.
        -13    1    6    6    0    0 -0.77808770030E+01 -0.71010638757E+01  0.28388939480E+02  0.30280340815E+02  0.00000000000E+00 0.  1.
         14    1    6    6    0    0  0.85027107653E+02 -0.11336131503E+03  0.14603115258E+03  0.20348340056E+03  0.00000000000E+00 0. -1.
         -5    1    3    3    0  503 -0.64118607484E+02  0.76317320928E+02  0.10383592404E+03  0.14401221622E+03  0.47000000000E+01 0.  1.
         13    1    4    4    0    0  0.12650153590E+02  0.16641360383E+02 -0.24106001339E+02  0.31907061315E+02  0.00000000000E+00 0. -1.
        -14    1    4    4    0    0  0.39042607986E+02  0.54539748283E+02  0.64902179046E+02  0.93333821447E+02  0.00000000000E+00 0.  1.
</event>
<event>
12    1  0.8313893E-002  0.2015401E+03  0.7818608E-02  0.1148493E+00
         21   -1    0    0  503  502  0.00000000000E+00  0.00000000000E+00  0.69242963552E+02  0.69242963552E+02  0.00000000000E+00 0. -1.
         21   -1    0    0  501  503 -0.00000000000E+00 -0.00000000000E+00 -0.58609482384E+03  0.58609482384E+03  0.00000000000E+00 0.  1.
          6    2    1    2  501    0 -0.49215837643E+02 -0.93000368534E+02 -0.26332962159E+03  0.33146755209E+03  0.17163036228E+03 0.  0.
         24    2    3    3    0    0  0.72939321876E+01  0.82698289276E+01 -0.73281321342E+02  0.10878065663E+03  0.79633458309E+02 0.  0.
         -6    2    1    2    0  502  0.49215837643E+02  0.93000368534E+02 -0.25352223870E+03  0.32387023531E+03  0.17189280549E+03 0.  0.
        -24    2    5    5    0    0  0.28383789606E+02  0.13039171343E+03 -0.21766167901E+03  0.26783313474E+03  0.80934190029E+02 0.  0.
          5    1    3    3  501    0 -0.56509769831E+02 -0.10127019746E+03 -0.19004830025E+03  0.22268689545E+03  0.47000000000E+01 0. -1.
        -13    1    4    4    0    0  0.36001869973E+02 -0.87605494756E+01 -0.64304083363E+02  0.74215207376E+02  0.00000000000E+00 0.  1.
         14    1    4    4    0    0 -0.28707937786E+02  0.17030378403E+02 -0.89772379784E+01  0.34565449255E+02  0.00000000000E+00 0. -1.
         -5    1    5    5    0  502  0.20832048037E+02 -0.37391344892E+02 -0.35860559696E+02  0.56037100567E+02  0.47000000000E+01 0.  1.
         11    1    6    6    0    0  0.50676908812E+02  0.75719545282E+02 -0.94608389140E+02  0.13134818583E+03  0.00000000000E+00 0. -1.
        -12    1    6    6    0    0 -0.22293119206E+02  0.54672168144E+02 -0.12305328987E+03  0.13648494892E+03  0.00000000000E+00 0.  1.
</event>
<event>
12    1  0.8313893E-002  0.1771063E+03  0.7818608E-02  0.1170651E+00
         21   -1    0    0  503  502  0.00000000000E+00  0.00000000000E+00  0.28511652113E+04  0.28511652113E+04  0.00000000000E+00 0. -1.
         21   -1    0    0  501  503 -0.00000000000E+00 -0.00000000000E+00 -0.18397024694E+02  0.18397024694E+02  0.00000000000E+00 0. -1.
          6    2    1    2  501    0 -0.25485821922E+02  0.26654016055E+02  0.50657615446E+03  0.53664331275E+03  0.17322436652E+03 0.  0.
         24    2    3    3    0    0  0.31977209006E+02  0.25702893248E+02  0.43983101162E+03  0.44843952229E+03  0.77223738279E+02 0.  0.
         -6    2    1    2    0  502  0.25485821922E+02 -0.26654016055E+02  0.23261920322E+04  0.23329189233E+04  0.17315128742E+03 0.  0.
        -24    2    5    5    0    0 -0.33743659909E+02  0.30105361954E+02  0.14529725855E+04  0.14558419309E+04  0.79381522667E+02 0.  0.
          5    1    3    3  501    0 -0.57463030927E+02  0.95112280688E+00  0.66745142843E+02  0.88203790458E+02  0.47000000000E+01 0. -1.
        -11    1    4    4    0    0  0.12943744506E+02 -0.27160200131E+02  0.12022318767E+03  0.12393075424E+03  0.00000000000E+00 0.  1.
         12    1    4    4    0    0  0.19033464500E+02  0.52863093380E+02  0.31960782395E+03  0.32450876805E+03  0.00000000000E+00 0. -1.
         -5    1    5    5    0  502  0.59229481831E+02 -0.56759378009E+02  0.87321944667E+03  0.87707699237E+03  0.47000000000E+01 0.  1.
         11    1    6    6    0    0  0.79377691368E+01 -0.13552753519E+02  0.78255215431E+03  0.78270975433E+03  0.00000000000E+00 0. -1.
        -12    1    6    6    0    0 -0.41681429046E+02  0.43658115473E+02  0.67042043120E+03  0.67313217658E+03  0.00000000000E+00 0.  1.
</event>
<event>
12    1  0.8313893E-002  0.2341016E+03  0.7818608E-02  0.1123821E+00
         21   -1    0    0  501  502  0.00000000000E+00  0.00000000000E+00  0.33739798075E+03  0.33739798075E+03  0.00000000000E+00 0.  1.
         21   -1    0    0  502  503 -0.00000000000E+00 -0.00000000000E+00 -0.29637523882E+03  0.29637523882E+03  0.00000000000E+00 0.  1.
         -6    2    1    2    0  503  0.15832554528E+03  0.98345114095E+01 -0.19263990173E+03  0.30301377977E+03  0.17188229429E+03 0.  0.
        -24    2    3    3    0    0  0.88122850375E+02 -0.36170128400E+02 -0.44054308306E+02  0.13229584331E+03  0.80544975828E+02 0.  0.
          6    2    1    2  501    0 -0.15832554528E+03 -0.98345114095E+01  0.23366264366E+03  0.33075943980E+03  0.17216236543E+03 0.  0.
         24    2    5    5    0    0 -0.67765216601E+02 -0.52906654589E+02  0.18858891746E+03  0.22071347921E+03  0.75877674157E+02 0.  0.
          5    1    5    5  501    0 -0.90560328677E+02  0.43072143180E+02  0.45073726201E+02  0.11004596059E+03  0.47000000000E+01 0. -1.
        -13    1    6    6    0    0 -0.31972264056E+02 -0.41054267535E+02  0.35357138131E+02  0.62911094160E+02  0.00000000000E+00 0.  1.
         14    1    6    6    0    0 -0.35792952545E+02 -0.11852387054E+02  0.15323177933E+03  0.15780238505E+03  0.00000000000E+00 0. -1.
         -5    1    3    3    0  503  0.70202694904E+02  0.46004639809E+02 -0.14858559342E+03  0.17071793646E+03  0.47000000000E+01 0.  1.
         13    1    4    4    0    0 -0.86133018860E+01 -0.20249968296E+02  0.51548363973E+01  0.22601383224E+02  0.00000000000E+00 0. -1.
        -14    1    4    4    0    0  0.96736152261E+02 -0.15920160104E+02 -0.49209144703E+02  0.10969446009E+03  0.00000000000E+00 0.  1.
</event>
<event>
12    1  0.8313893E-002  0.1840142E+03  0.7818608E-02  0.1164018E+00
         21   -1    0    0  503  502  0.00000000000E+00  0.00000000000E+00  0.22021687754E+03  0.22021687754E+03  0.00000000000E+00 0.  1.
         21   -1    0    0  501  503 -0.00000000000E+00 -0.00000000000E+00 -0.20482187758E+03  0.20482187758E+03  0.00000000000E+00 0.  1.
          6    2    1    2  501    0  0.60992896784E+02  0.13834623501E+02 -0.98569762990E+02  0.20875160119E+03  0.17305982364E+03 0.  0.
         24    2    3    3    0    0  0.94766391571E+02  0.36335455910E+02 -0.28796308596E+02  0.12789765047E+03  0.72302470768E+02 0.  0.
         -6    2    1    2    0  502 -0.60992896784E+02 -0.13834623501E+02  0.11396476295E+03  0.21628715392E+03  0.17286016167E+03 0.  0.
        -24    2    5    5    0    0  0.14880456990E+02  0.34414978364E+02  0.31048176933E+02  0.93886009606E+02  0.80279354586E+02 0.  0.
          5    1    3    3  501    0 -0.33773494787E+02 -0.22500832409E+02 -0.69773454394E+02  0.80853950721E+02  0.47000000000E+01 0. -1.
        -13    1    4    4    0    0  0.65211795023E+02  0.31199117649E+02 -0.52765922674E+02  0.89499752781E+02  0.00000000000E+00 0.  1.
         14    1    4    4    0    0  0.29554596548E+02  0.51363382603E+01  0.23969614078E+02  0.38397897688E+02  0.00000000000E+00 0. -1.
         -5    1    5    5    0  502 -0.75873353775E+02 -0.48249601865E+02  0.82916586019E+02  0.12240114432E+03  0.47000000000E+01 0.  1.
         11    1    6    6    0    0  0.38949301354E+02 -0.78835225907E+01  0.17079948486E+02  0.43254163322E+02  0.00000000000E+00 0. -1.
        -12    1    6    6    0    0 -0.24068844364E+02  0.42298500955E+02  0.13968228447E+02  0.50631846283E+02  0.00000000000E+00 0.  1.
</event>
<event>
12    1  0.8313893E-002  0.1724067E+03  0.7818608E-02  0.1175600E+00
         21   -1    0    0  501  502  0.00000000000E+00  0.00000000000E+00  0.55566429127E+02  0.55566429127E+02  0.00000000000E+00 0.  1.
         21   -1    0    0  502  503 -0.00000000000E+00 -0.00000000000E+00 -0.76762258909E+03  0.76762258909E+03  0.00000000000E+00 0.  1.
         -6    2    1    2    0  503 -0.11617200831E+02 -0.26705265785E+02 -0.58337451099E+03  0.60805405963E+03  0.16898458150E+03 0.  0.
        -24    2    3    3    0    0  0.29102423910E+02 -0.66143934041E+02 -0.45913209046E+03  0.47140939105E+03  0.78756373649E+02 0.  0.
          6    2    1    2  501    0  0.11617200831E+02  0.26705265785E+02 -0.12868164897E+03  0.21513495858E+03  0.16992925895E+03 0.  0.
         24    2    5    5    0    0  0.42254216688E+02  0.67380845655E+02 -0.12146255517E+03  0.16348871135E+03  0.75165212964E+02 0.  0.
          5    1    5    5  501    0 -0.30637015857E+02 -0.40675579871E+02 -0.72190938002E+01  0.51646247238E+02  0.47000000000E+01 0. -1.
        -11    1    6    6    0    0  0.27412660730E+02  0.82847301434E+02 -0.89480040864E+02  0.12498722749E+03  0.00000000000E+00 0.  1.
         12    1    6    6    0    0  0.14841555958E+02 -0.15466455779E+02 -0.31982514305E+02  0.38501483853E+02  0.00000000000E+00 0. -1.
         -5    1    3    3    0  503 -0.40719624741E+02  0.39438668256E+02 -0.12424242053E+03  0.13664466858E+03  0.47000000000E+01 0.  1.
         13    1    4    4    0    0  0.20865638276E+02 -0.62962042344E+02 -0.17513137736E+03  0.18727144196E+03  0.00000000000E+00 0. -1.
        -14    1    4    4    0    0  0.82367856337E+01 -0.31818916969E+01 -0.28400071309E+03  0.28413794909E+03  0.00000000000E+00 0.  1.
</event>
<event>
12    1  0.8313893E-002  0.1885455E+03  0.7818608E-02  0.1162724E+00
         21   -1    0    0  503  502  0.00000000000E+00  0.00000000000E+00  0.20216165846E+03  0.20216165846E+03  0.00000000000E+00 0. -1.
         21   -1    0    0  501  503 -0.00000000000E+00 -0.00000000000E+00 -0.38883951344E+03  0.38883951344E+03  0.00000000000E+00 0. -1.
          6    2    1    2  501    0 -0.23273260730E+02 -0.26093012431E+02 -0.31642984172E+03  0.36212349037E+03  0.17257777255E+03 0.  0.
         24    2    3    3    0    0  0.39963494981E+02  0.10780446430E+02 -0.10428442154E+03  0.13765454253E+03  0.79751072377E+02 0.  0.
         -6    2    1    2    0  502  0.23273260730E+02  0.26093012431E+02  0.12975198674E+03  0.22887768153E+03  0.18527526839E+03 0.  0.
        -24    2    5    5    0    0  0.30659802429E+02  0.85124975845E+02  0.11405924852E+03  0.16717123344E+03  0.82160964689E+02 0.  0.
          5    1    3    3  501    0 -0.63236755711E+02 -0.36873458861E+02 -0.21214542018E+03  0.22446894784E+03  0.47000000000E+01 0. -1.
        -11    1    4    4    0    0  0.37348302492E+02 -0.16949597326E+02 -0.14264686221E+02  0.43424253840E+02  0.00000000000E+00 0.  1.
         12    1    4    4    0    0  0.26151924892E+01  0.27730043756E+02 -0.90019735322E+02  0.94230288687E+02  0.00000000000E+00 0. -1.
         -5    1    5    5    0  502 -0.73865416996E+01 -0.59031963414E+02  0.15692738221E+02  0.61706448089E+02  0.47000000000E+01 0.  1.
         13    1    6    6    0    0  0.35332131114E+02  0.89519513196E+01  0.70331820612E+02  0.79215288373E+02  0.00000000000E+00 0. -1.
        -14    1    6    6    0    0 -0.46723286850E+01  0.76173024526E+02  0.43727427908E+02  0.87955945065E+02  0.00000000000E+00 0.  1.
</event>
<event>
12    1  0.8313893E-002  0.3318917E+03  0.7818608E-02  0.1070405E+00
         21   -1    0    0  503  502  0.00000000000E+00  0.00000000000E+00  0.12842399486E+03  0.12842399486E+03  0.00000000000E+00 0.  1.
         21   -1    0    0  501  503 -0.00000000000E+00 -0.00000000000E+00 -0.86339327663E+03  0.86339327663E+03  0.00000000000E+00 0. -1.
          6    2    1    2  501    0  0.27711960699E+03  0.52943200627E+02 -0.32005012863E+03  0.46106850761E+03  0.17479652401E+03 0.  0.
         24    2    3    3    0    0  0.96422016388E+02  0.80234632669E+02 -0.12965455176E+03  0.19711963528E+03  0.79442094001E+02 0.  0.
         -6    2    1    2    0  502 -0.27711960699E+03 -0.52943200627E+02 -0.41491915315E+03  0.53074876388E+03  0.17302626286E+03 0.  0.
        -24    2    5    5    0    0 -0.17215812182E+03 -0.10101670182E+03 -0.25042627489E+03  0.32973142163E+03  0.78528328015E+02 0.  0.
          5    1    3    3  501    0  0.18069759060E+03 -0.27291432042E+02 -0.19039557687E+03  0.26394887233E+03  0.47000000000E+01 0. -1.
        -11    1    4    4    0    0  0.54827187968E+02  0.15633496256E+02 -0.14743523242E+02  0.58888014259E+02  0.00000000000E+00 0.  1.
         12    1    4    4    0    0  0.41594828420E+02  0.64601136413E+02 -0.11491102851E+03  0.13823162102E+03  0.00000000000E+00 0. -1.
         -5    1    5    5    0  502 -0.10496148517E+03  0.48073501194E+02 -0.16449287826E+03  0.20101734225E+03  0.47000000000E+01 0.  1.
         13    1    6    6    0    0 -0.24597082863E+02 -0.27372847765E+02 -0.99841496876E+02  0.10640777123E+03  0.00000000000E+00 0. -1.
        -14    1    6    6    0    0 -0.14756103896E+03 -0.73643854057E+02 -0.15058477801E+03  0.22332365040E+03  0.00000000000E+00 0.  1.
</event>
<event>
12    1  0.8313893E-002  0.1855364E+03  0.7818608E-02  0.1163350E+00
         21   -1    0    0  501  502  0.00000000000E+00  0.00000000000E+00  0.71332455410E+03  0.71332455410E+03  0.00000000000E+00 0.  1.
         21   -1    0    0  502  503 -0.00000000000E+00 -0.00000000000E+00 -0.14113447482E+03  0.14113447482E+03  0.00000000000E+00 0. -1.
         -6    2    1    2    0  503 -0.66157229147E+02 -0.15964622406E+02 -0.61227035589E+02  0.19537788451E+03  0.17260393892E+03 0.  0.
        -24    2    3    3    0    0 -0.65186775613E+02 -0.49598409893E+02 -0.93944534387E+02  0.14821117837E+03  0.80197630095E+02 0.  0.
          6    2    1    2  501    0  0.66157229147E+02  0.15964622406E+02  0.63341711487E+03  0.65908114441E+03  0.16893509220E+03 0.  0.
         24    2    5    5    0    0 -0.30082064309E+02 -0.55784948971E+01  0.24224575109E+03  0.25564188833E+03  0.75721337484E+02 0.  0.
          5    1    5    5  501    0  0.96239293455E+02  0.21543117303E+02  0.39117136378E+03  0.40343925609E+03  0.47000000000E+01 0. -1.
        -11    1    6    6    0    0 -0.23434938930E+02 -0.15595219196E+02  0.24198566792E+03  0.24361746798E+03  0.00000000000E+00 0.  1.
         12    1    6    6    0    0 -0.66471253784E+01  0.10016724298E+02  0.26008316243E+00  0.12024420349E+02  0.00000000000E+00 0. -1.
         -5    1    3    3    0  503 -0.97045353326E+00  0.33633787487E+02  0.32717498798E+02  0.47166706143E+02  0.47000000000E+01 0.  1.
         11    1    4    4    0    0  0.11670176418E+02  0.10758159726E+02 -0.20703466080E+02  0.26087631668E+02  0.00000000000E+00 0. -1.
        -12    1    4    4    0    0 -0.76856952031E+02 -0.60356569619E+02 -0.73241068307E+02  0.12212354670E+03  0.00000000000E+00 0.  1.
</event>
<event>
12    1  0.8313893E-002  0.2315530E+03  0.7818608E-02  0.1126669E+00
         21   -1    0    0  501  502  0.00000000000E+00  0.00000000000E+00  0.27850614817E+03  0.27850614817E+03  0.00000000000E+00 0. -1.
         21   -1    0    0  502  503 -0.00000000000E+00 -0.00000000000E+00 -0.19416997826E+03  0.19416997826E+03  0.00000000000E+00 0. -1.
         -6    2    1    2    0  503  0.22164218965E+02  0.14340232616E+03  0.86041267815E+02  0.24111685508E+03  0.17227523990E+03 0.  0.
        -24    2    3    3    0    0 -0.10822165371E+02  0.16613744927E+03  0.68714630530E+02  0.19721594695E+03  0.80334662317E+02 0.  0.
          6    2    1    2  501    0 -0.22164218965E+02 -0.14340232616E+03 -0.17050979088E+01  0.23155927135E+03  0.18044752433E+03 0.  0.
         24    2    5    5    0    0  0.15456119380E+02  0.36215203616E+01 -0.17287151071E+02  0.78928371185E+02  0.75358046351E+02 0.  0.
          5    1    5    5  501    0 -0.37620338345E+02 -0.14702384652E+03  0.15582053162E+02  0.15263090016E+03  0.47000000000E+01 0. -1.
        -11    1    6    6    0    0 -0.26210575781E+02 -0.14790730676E+02 -0.14179725803E+02  0.33268973842E+02  0.00000000000E+00 0.  1.
         12    1    6    6    0    0  0.41666695161E+02  0.18412251038E+02 -0.31074252686E+01  0.45659397343E+02  0.00000000000E+00 0. -1.
         -5    1    3    3    0  503  0.32986384336E+02 -0.22735123110E+02  0.17326637285E+02  0.43900908123E+02  0.47000000000E+01 0.  1.
         11    1    4    4    0    0 -0.35435242095E+02  0.51605753029E+02  0.46501364756E+02  0.77981966199E+02  0.00000000000E+00 0. -1.
        -12    1    4    4    0    0  0.24613076724E+02  0.11453169624E+03  0.22213265774E+02  0.11923398075E+03  0.00000000000E+00 0.  1.
</event>
<event>
12    1  0.8313893E-002  0.2087759E+03  0.7818608E-02  0.1143104E+00
         21   -1    0    0  503  502  0.00000000000E+00  0.00000000000E+00  0.51860545143E+03  0.51860545143E+03  0.00000000000E+00 0.  1.
         21   -1    0    0  501  503 -0.00000000000E+00 -0.00000000000E+00 -0.84089023509E+02  0.84089023509E+02  0.00000000000E+00 0.  1.
          6    2    1    2  501    0  0.62020741336E+02 -0.97179333582E+02  0.18316345490E+03  0.27773406942E+03  0.17406023921E+03 0.  0.
         24    2    3    3    0    0  0.45739017864E+02 -0.12960529938E+03  0.18036924203E+03  0.24104026337E+03  0.81717523903E+02 0.  0.
         -6    2    1    2    0  502 -0.62020741336E+02  0.97179333582E+02  0.25135297302E+03  0.32496040552E+03  0.17067674967E+03 0.  0.
        -24    2    5    5    0    0 -0.38228702844E+02  0.46471224164E+02  0.45429323484E+02  0.11150311964E+03  0.82146904150E+02 0.  0.
          5    1    3    3  501    0  0.16281723472E+02  0.32425965793E+02  0.27942128707E+01  0.36693806049E+02  0.47000000000E+01 0. -1.
        -13    1    4    4    0    0  0.57274066620E+02 -0.42354293504E+02  0.69929681424E+02  0.99821667134E+02  0.00000000000E+00 0.  1.
         14    1    4    4    0    0 -0.11535048756E+02 -0.87251005871E+02  0.11043956060E+03  0.14121859623E+03  0.00000000000E+00 0. -1.
         -5    1    5    5    0  502 -0.23792038492E+02  0.50708109418E+02  0.20592364954E+03  0.21345728588E+03  0.47000000000E+01 0.  1.
         13    1    6    6    0    0  0.15645261831E+02 -0.84853287960E+01  0.27050101442E+02  0.32380287376E+02  0.00000000000E+00 0. -1.
        -14    1    6    6    0    0 -0.53873964675E+02  0.54956552960E+02  0.18379222042E+02  0.79122832266E+02  0.00000000000E+00 0.  1.
</event>
<event>
12    1  0.8313893E-002  0.2518959E+03  0.7818608E-02  0.1112227E+00
         21   -1    0    0  503  502  0.00000000000E+00  0.00000000000E+00  0.11058323858E+03  0.11058323858E+03  0.00000000000E+00 0.  1.
         21   -1    0    0  501  503 -0.00000000000E+00 -0.00000000000E+00 -0.57428484401E+03  0.57428484401E+03  0.00000000000E+00 0. -1.
          6    2    1    2  501    0 -0.51968844465E+02  0.16862073774E+03 -0.21053707137E+03  0.32773527146E+03  0.17874796711E+03 0.  0.
         24    2    3    3    0    0  0.57026243182E+00  0.15538749615E+03 -0.82372376881E+02  0.18850971579E+03  0.67860926283E+02 0.  0.
         -6    2    1    2    0  502  0.51968844465E+02 -0.16862073774E+03 -0.25316453406E+03  0.35713281113E+03  0.17977165931E+03 0.  0.
        -24    2    5    5    0    0  0.55924666981E+02 -0.18896125109E+02 -0.72431826429E+02  0.12235736572E+03  0.78995718527E+02 0.  0.
          5    1    3    3  501    0 -0.52539106896E+02  0.13233241590E+02 -0.12816469449E+03  0.13922555567E+03  0.47000000000E+01 0. -1.
        -13    1    4    4    0    0  0.32702894244E+02  0.56636458465E+02 -0.37439067158E+02  0.75358154629E+02  0.00000000000E+00 0.  1.
         14    1    4    4    0    0 -0.32132631812E+02  0.98751037688E+02 -0.44933309723E+02  0.11315156117E+03  0.00000000000E+00 0. -1.
         -5    1    5    5    0  502 -0.39558225160E+01 -0.14972461263E+03 -0.18073270763E+03  0.23477544541E+03  0.47000000000E+01 0.  1.
         13    1    6    6    0    0  0.45945132800E+02 -0.44121103213E+02 -0.26455752861E+02  0.68974878298E+02  0.00000000000E+00 0. -1.
        -14    1    6    6    0    0  0.99795341802E+01  0.25224978104E+02 -0.45976073569E+02  0.53382487424E+02  0.00000000000E+00 0.  1.
</event>
<event>
12    1  0.8313893E-002  0.1830667E+03  0.7818608E-02  0.1165327E+00
         21   -1    0    0  503  502  0.00000000000E+00  0.00000000000E+00  0.22100073331E+02  0.22100073331E+02  0.00000000000E+00 0.  1.
         21   -1    0    0  501  503 -0.00000000000E+00 -0.00000000000E+00 -0.24062574347E+04  0.24062574347E+04  0.00000000000E+00 0.  1.
          6    2    1    2  501    0 -0.59276772710E+02  0.11289598784E+02 -0.19330658196E+04  0.19415341297E+04  0.17079263116E+03 0.  0.
         24    2    3    3    0    0 -0.10067749540E+03 -0.15532859516E+02 -0.14308768299E+04  0.14369062118E+04  0.83148850411E+02 0.  0.
         -6    2    1    2    0  502  0.59276772710E+02 -0.11289598784E+02 -0.45109154173E+03  0.48682337834E+03  0.17283585235E+03 0.  0.
        -24    2    5    5    0    0  0.32514093157E+02 -0.38651082924E+02 -0.43467645430E+03  0.44491351165E+03  0.80332686112E+02 0.  0.
          5    1    3    3  501    0  0.41400722687E+02  0.26822458301E+02 -0.50218898973E+03  0.50462791790E+03  0.47000000000E+01 0. -1.
        -11    1    4    4    0    0 -0.68436209622E+02  0.29778438654E+02 -0.72018355266E+03  0.72404048210E+03  0.00000000000E+00 0.  1.
         12    1    4    4    0    0 -0.32241285774E+02 -0.45311298170E+02 -0.71069327722E+03  0.71286572967E+03  0.00000000000E+00 0. -1.
         -5    1    5    5    0  502  0.26762679553E+02  0.27361484139E+02 -0.16415087427E+02  0.41909866695E+02  0.47000000000E+01 0.  1.
         11    1    6    6    0    0  0.44002486162E+01 -0.49479499753E+02 -0.13720786755E+03  0.14592320584E+03  0.00000000000E+00 0. -1.
        -12    1    6    6    0    0  0.28113844541E+02  0.10828416830E+02 -0.29746858675E+03  0.29899030581E+03  0.00000000000E+00 0.  1.
</event>
<event>
12    1  0.8313893E-002  0.2188099E+03  0.7818608E-02  0.1134985E+00
         21   -1    0    0  503  502  0.00000000000E+00  0.00000000000E+00  0.10002655414E+04  0.10002655414E+04  0.00000000000E+00 0.  1.
         21   -1    0    0  501  503 -0.00000000000E+00 -0.00000000000E+00 -0.58664032458E+02  0.58664032458E+02  0.00000000000E+00 0. -1.
          6    2    1    2  501    0 -0.89108679421E+02  0.10341196835E+03  0.24008285091E+03  0.32407842684E+03  0.16956609183E+03 0.  0.
         24    2    3    3    0    0 -0.10646300268E+03  0.34003731321E+02  0.19704046234E+03  0.24045179761E+03  0.80631870199E+02 0.  0.
         -6    2    1    2    0  502  0.89108679421E+02 -0.10341196835E+03  0.70151865800E+03  0.73485114699E+03  0.17100698454E+03 0.  0.
        -24    2    5    5    0    0  0.58014255872E+02 -0.13781770181E+03  0.59506805626E+03  0.61864254885E+03  0.79077423107E+02 0.  0.
          5    1    3    3  501    0  0.17354323261E+02  0.69408237024E+02  0.43042388575E+02  0.83626629233E+02  0.47000000000E+01 0. -1.
        -11    1    4    4    0    0 -0.11465973378E+03  0.45467433268E+02  0.17101971524E+03  0.21085987063E+03  0.00000000000E+00 0.  1.
         12    1    4    4    0    0  0.81967311031E+01 -0.11463701947E+02  0.26020747096E+02  0.29591926983E+02  0.00000000000E+00 0. -1.
         -5    1    5    5    0  502  0.31094423549E+02  0.34405733464E+02  0.10645060174E+03  0.11620859814E+03  0.47000000000E+01 0.  1.
         13    1    6    6    0    0 -0.13240084336E+02 -0.68374302543E+02  0.24860093095E+03  0.25817197360E+03  0.00000000000E+00 0. -1.
        -14    1    6    6    0    0  0.71254340208E+02 -0.69443399266E+02  0.34646712531E+03  0.36047057525E+03  0.00000000000E+00 0.  1.
</event>
<event>
12    1  0.8313893E-002  0.1949262E+03  0.7818608E-02  0.1155414E+00
         21   -1    0    0  503  502  0.00000000000E+00  0.00000000000E+00  0.68437783221E+02  0.68437783221E+02  0.00000000000E+00 0.  1.
         21   -1    0    0  501  503 -0.00000000000E+00 -0.00000000000E+00 -0.53835292557E+03  0.53835292557E+03  0.00000000000E+00 0. -1.
          6    2    1    2  501    0  0.15791432688E+02  0.91424313936E+02 -0.23295795444E+03  0.29996026288E+03  0.16461766686E+03 0.  0.
         24    2    3    3    0    0  0.95415584733E+01  0.12900851023E+03 -0.16988725039E+03  0.22612506498E+03  0.74408535237E+02 0.  0.
         -6    2    1    2    0  502 -0.15791432688E+02 -0.91424313936E+02 -0.23695718791E+03  0.30683044591E+03  0.17143056645E+03 0.  0.
        -24    2    5    5    0    0  0.54526056150E+02 -0.41779966015E+02 -0.12942992142E+03  0.16901421481E+03  0.84232083497E+02 0.  0.
          5    1    3    3  501    0  0.62498742146E+01 -0.37584196297E+02 -0.63070704053E+02  0.73835197898E+02  0.47000000000E+01 0. -1.
        -11    1    4    4    0    0 -0.78602384495E+01 -0.56380435470E+01 -0.14462970816E+01  0.97807289488E+01  0.00000000000E+00 0.  1.
         12    1    4    4    0    0  0.17401796923E+02  0.13464655378E+03 -0.16844095331E+03  0.21634433603E+03  0.00000000000E+00 0. -1.
         -5    1    5    5    0  502 -0.70317488838E+02 -0.49644347921E+02 -0.10752726648E+03  0.13781623110E+03  0.47000000000E+01 0.  1.
         13    1    6    6    0    0  0.65909158047E+02 -0.58865992307E+01 -0.10505609158E+03  0.12415897689E+03  0.00000000000E+00 0. -1.
        -14    1    6    6    0    0 -0.11383101897E+02 -0.35893366784E+02 -0.24373829846E+02  0.44855237924E+02  0.00000000000E+00 0.  1.
</event>
<event>
12    1  0.8313893E-002  0.1900501E+03  0.7818608E-02  0.1160586E+00
         21   -1    0    0  501  502  0.00000000000E+00  0.00000000000E+00  0.88827919125E+03  0.88827919125E+03  0.00000000000E+00 0. -1.
         21   -1    0    0  502  503 -0.00000000000E+00 -0.00000000000E+00 -0.57879956366E+02  0.57879956366E+02  0.00000000000E+00 0. -1.
         -6    2    1    2    0  503  0.18863322648E+01  0.56121907514E+02  0.14981224237E+03  0.24199743338E+03  0.18156492792E+03 0.  0.
        -24    2    3    3    0    0 -0.43310570280E+02  0.87316611675E+02  0.67502717783E+02  0.14293776750E+03  0.79841043947E+02 0.  0.
          6    2    1    2  501    0 -0.18863322648E+01 -0.56121907514E+02  0.68058699252E+03  0.70416171423E+03  0.17173188013E+03 0.  0.
         24    2    5    5    0    0  0.15597602788E+02  0.18595607981E+02  0.50857797192E+03  0.51575367759E+03  0.82226641475E+02 0.  0.
          5    1    5    5  501    0 -0.17483935053E+02 -0.74717515495E+02  0.17200902059E+03  0.18840803664E+03  0.47000000000E+01 0. -1.
        -11    1    6    6    0    0  0.33436518603E+02  0.30577501559E+02  0.15405388121E+03  0.16057889866E+03  0.00000000000E+00 0.  1.
         12    1    6    6    0    0 -0.17838915815E+02 -0.11981893578E+02  0.35452409071E+03  0.35517477893E+03  0.00000000000E+00 0. -1.
         -5    1    3    3    0  503  0.45196902544E+02 -0.31194704161E+02  0.82309524582E+02  0.99059665880E+02  0.47000000000E+01 0.  1.
         11    1    4    4    0    0  0.12249633669E+01  0.55516177471E+02 -0.65023598661E+00  0.55533497126E+02  0.00000000000E+00 0. -1.
        -12    1    4    4    0    0 -0.44535533646E+02  0.31800434204E+02  0.68152953770E+02  0.87404270378E+02  0.00000000000E+00 0.  1.
</event>
<event>
12    1  0.8313893E-002  0.2620500E+03  0.7818608E-02  0.1106368E+00
         21   -1    0    0  503  502  0.00000000000E+00  0.00000000000E+00  0.52239746898E+02  0.52239746898E+02  0.00000000000E+00 0.  1.
         21   -1    0    0  501  503 -0.00000000000E+00 -0.00000000000E+00 -0.17249829730E+04  0.17249829730E+04  0.00000000000E+00 0.  1.
          6    2    1    2  501    0  0.16342622049E+03 -0.10871879923E+03 -0.39867565773E+03  0.47708747432E+03  0.17361529666E+03 0.  0.
         24    2    3    3    0    0  0.95083757208E+02 -0.12176075744E+03 -0.19211584589E+03  0.25907410127E+03  0.79651043738E+02 0.  0.
         -6    2    1    2    0  502 -0.16342622049E+03  0.10871879923E+03 -0.12740675684E+04  0.13001352456E+04  0.16904313407E+03 0.  0.
        -24    2    5    5    0    0 -0.49690911233E+02  0.23220102849E+02 -0.78256951369E+03  0.78843398957E+03  0.78770250148E+02 0.  0.
          5    1    3    3  501    0  0.68342463279E+02  0.13041958214E+02 -0.20655981184E+03  0.21801337305E+03  0.47000000000E+01 0. -1.
        -13    1    4    4    0    0  0.37983017865E+02 -0.86011908855E+02 -0.15725428995E+03  0.18322027677E+03  0.00000000000E+00 0.  1.
         14    1    4    4    0    0  0.57100739343E+02 -0.35748848585E+02 -0.34861555939E+02  0.75853824500E+02  0.00000000000E+00 0. -1.
         -5    1    5    5    0  502 -0.11373530925E+03  0.85498696377E+02 -0.49149805471E+03  0.51170125604E+03  0.47000000000E+01 0.  1.
         11    1    6    6    0    0  0.13228548055E+02 -0.59742552166E+01 -0.38614497204E+02  0.41252461786E+02  0.00000000000E+00 0. -1.
        -12    1    6    6    0    0 -0.62919459288E+02  0.29194358066E+02 -0.74395501649E+03  0.74718152778E+03  0.00000000000E+00 0.  1.
</event>
<event>
12    1  0.8313893E-002  0.1745171E+03  0.7818608E-02  0.1173279E+00
         21   -1    0    0  503  502  0.00000000000E+00  0.00000000000E+00  0.65654211422E+02  0.65654211422E+02  0.00000000000E+00 0. -1.
         21   -1    0    0  501  503 -0.00000000000E+00 -0.00000000000E+00 -0.56629042141E+03  0.56629042141E+03  0.00000000000E+00 0. -1.
          6    2    1    2  501    0  0.12024524026E+02  0.25169425606E+02 -0.38496363926E+03  0.42257327818E+03  0.17202640121E+03 0.  0.
         24    2    3    3    0    0 -0.42140277901E+01 -0.46225433942E+02 -0.11985152167E+03  0.14749612277E+03  0.72361386194E+02 0.  0.
         -6    2    1    2    0  502 -0.12024524026E+02 -0.25169425606E+02 -0.11567257073E+03  0.20937135466E+03  0.17227342038E+03 0.  0.
        -24    2    5    5    0    0  0.22462769733E+02  0.45821060878E+02 -0.47367991467E+02  0.10488868552E+03  0.78445930999E+02 0.  0.
          5    1    3    3  501    0  0.16238551816E+02  0.71394859547E+02 -0.26511211758E+03  0.27507715540E+03  0.47000000000E+01 0. -1.
        -11    1    4    4    0    0 -0.91200868789E+01 -0.10788706036E+02  0.69504201584E+01  0.15744221257E+02  0.00000000000E+00 0.  1.
         12    1    4    4    0    0  0.49060590888E+01 -0.35436727906E+02 -0.12680194183E+03  0.13175190152E+03  0.00000000000E+00 0. -1.
         -5    1    5    5    0  502 -0.34487293759E+02 -0.70990486484E+02 -0.68304579265E+02  0.10448266914E+03  0.47000000000E+01 0.  1.
         11    1    6    6    0    0  0.81713022076E+01 -0.40873149484E+01  0.18730745164E+02  0.20840276814E+02  0.00000000000E+00 0. -1.
        -12    1    6    6    0    0  0.14291467525E+02  0.49908375827E+02 -0.66098736631E+02  0.84048408705E+02  0.00000000000E+00 0.  1.
</event>
<event>
12    1  0.8313893E-002  0.1787861E+03  0.7818608E-02  0.1169037E+00
         21   -1    0    0  501  502  0.00000000000E+00  0.00000000000E+00  0.50548630271E+03  0.50548630271E+03  0.00000000000E+00 0.  1.
         21   -1    0    0  502  503 -0.00000000000E+00 -0.00000000000E+00 -0.15685514386E+03  0.15685514386E+03  0.00000000000E+00 0.  1.
         -6    2    1    2    0  503  0.15213991334E+02 -0.47323998942E+02 -0.81599096533E+02  0.19652707381E+03  0.17173657670E+03 0.  0.
        -24    2    3    3    0    0  0.70114568566E+02 -0.61635137439E+02 -0.47262992591E+02  0.13004444375E+03  0.77219323945E+02 0.  0.
          6    2    1    2  501    0 -0.15213991334E+02  0.47323998942E+02  0.43023025538E+03  0.46581437276E+03  0.17150490027E+03 0.  0.
         24    2    5    5    0    0  0.14639919462E+02  0.79839748179E+02  0.18881118019E+03  0.22034789887E+03  0.79465855189E+02 0.  0.
          5    1    5    5  501    0 -0.29853910796E+02 -0.32515749236E+02  0.24141907519E+03  0.24546647389E+03  0.47000000000E+01 0. -1.
        -11    1    6    6    0    0  0.21587659303E+02 -0.71918166217E+01  0.19995820319E+02  0.30291617499E+02  0.00000000000E+00 0.  1.
         12    1    6    6    0    0 -0.69477398403E+01  0.87031564800E+02  0.16881535987E+03  0.19005628137E+03  0.00000000000E+00 0. -1.
         -5    1    3    3    0  503 -0.54900577232E+02  0.14311138497E+02 -0.34336103942E+02  0.66482630058E+02  0.47000000000E+01 0.  1.
         13    1    4    4    0    0  0.17957014054E+02 -0.28567474529E+02  0.19602434755E+02  0.39023203393E+02  0.00000000000E+00 0. -1.
        -14    1    4    4    0    0  0.52157554512E+02 -0.33067662910E+02 -0.66865427345E+02  0.91021240362E+02  0.00000000000E+00 0.  1.
</event>
<event>
12    1  0.8313893E-002  0.1743166E+03  0.7818608E-02  0.1173691E+00
         21   -1    0    0  501  502  0.00000000000E+00  0.00000000000E+00  0.37290193655E+03  0.37290193655E+03  0.00000000000E+00 0. -1.
         21   -1    0    0  502  503 -0.00000000000E+00 -0.00000000000E+00 -0.97160748436E+02  0.97160748436E+02  0.00000000000E+00 0. -1.
         -6    2    1    2    0  503 -0.23014757718E+02 -0.11899318467E+02  0.23412259408E+03  0.29188982930E+03  0.17238042388E+03 0.  0.
        -24    2    3    3    0    0 -0.74249915167E+02  0.56950835951E+01  0.19956520236E+03  0.22746229120E+03  0.79795614205E+02 0.  0.
          6    2    1    2  501    0  0.23014757718E+02  0.11899318467E+02  0.41618594032E+02  0.17817285568E+03  0.17129561080E+03 0.  0.
         24    2    5    5    0    0 -0.49026980728E+02  0.98165346689E+01  0.10483159506E+02  0.99522646850E+02  0.85409902298E+02 0.  0.
          5    1    5    5  501    0  0.72041738446E+02  0.20827837979E+01  0.31135434526E+02  0.78650208835E+02  0.47000000000E+01 0. -1.
        -11    1    6    6    0    0 -0.16666815446E+02 -0.58534754685E+01 -0.36388223922E+02  0.40449335623E+02  0.00000000000E+00 0.  1.
         12    1    6    6    0    0 -0.32360165283E+02  0.15670010137E+02  0.46871383428E+02  0.59073311227E+02  0.00000000000E+00 0. -1.
         -5    1    3    3    0  503  0.51235157449E+02 -0.17594402062E+02  0.34557391721E+02  0.64427538097E+02  0.47000000000E+01 0.  1.
         11    1    4    4    0    0 -0.24321729768E+02 -0.53334158582E+01  0.38713895203E+01  0.25198799981E+02  0.00000000000E+00 0. -1.
        -12    1    4    4    0    0 -0.49928185399E+02  0.11028499453E+02  0.19569381284E+03  0.20226349122E+03  0.00000000000E+00 0.  1.
</event>
<event>
12    1  0.8313893E-002  0.2298106E+03  0.7818608E-02  0.1126967E+00
         21   -1    0    0  503  502  0.00000000000E+00  0.00000000000E+00  0.14683191948E+04  0.14683191948E+04  0.00000000000E+00 0.  1.
         21   -1    0    0  501  503 -0.00000000000E+00 -0.00000000000E+00 -0.15114802252E+03  0.15114802252E+03  0.00000000000E+00 0. -1.
          6    2    1    2  501    0  0.61176072888E+02 -0.14051178201E+03 -0.48419349321E+02  0.23485599539E+03  0.17125078804E+03 0.  0.
         24    2    3    3    0    0  0.48232734141E+02 -0.60198191678E+02  0.36259705841E+02  0.11733818741E+03  0.80642823813E+02 0.  0.
         -6    2    1    2    0  502 -0.61176072888E+02  0.14051178201E+03  0.13655905216E+04  0.13846112220E+04  0.16977835672E+03 0.  0.
        -24    2    5    5    0    0  0.24932802573E+02  0.31879847206E+02  0.55443584527E+03  0.56168374357E+03  0.80321553583E+02 0.  0.
          5    1    3    3  501    0  0.12943338748E+02 -0.80313590329E+02 -0.84679055162E+02  0.11751780798E+03  0.47000000000E+01 0. -1.
        -13    1    4    4    0    0 -0.12767559594E+02 -0.45199799093E+02  0.26012988507E+02  0.53690855713E+02  0.00000000000E+00 0.  1.
         14    1    4    4    0    0  0.61000293734E+02 -0.14998392584E+02  0.10246717334E+02  0.63647331695E+02  0.00000000000E+00 0. -1.
         -5    1    5    5    0  502 -0.86108875461E+02  0.10863193480E+03  0.81115467638E+03  0.82292747840E+03  0.47000000000E+01 0.  1.
         13    1    6    6    0    0  0.46898681011E+02  0.62788761935E+01  0.19459115086E+03  0.20026139558E+03  0.00000000000E+00 0. -1.
        -14    1    6    6    0    0 -0.21965878438E+02  0.25600971012E+02  0.35984469440E+03  0.36142234799E+03  0.00000000000E+00 0.  1.
</event>
<event>
12    1  0.8313893E-002  0.1791943E+03  0.7818608E-02  0.1168875E+00
         21   -1    0    0  501  502  0.00000000000E+00  0.00000000000E+00  0.14584997343E+03  0.14584997343E+03  0.00000000000E+00 0. -1.
         21   -1    0    0  502  503 -0.00000000000E+00 -0.00000000000E+00 -0.21921019332E+03  0.21921019332E+03  0.00000000000E+00 0. -1.
         -6    2    1    2    0  503  0.35808908490E+02 -0.36498116660E+02 -0.45299827071E+02  0.18368216025E+03  0.17050710019E+03 0.  0.
        -24    2    3    3    0    0  0.53699973854E+02 -0.64159967933E+02  0.12660733018E+02  0.11684815123E+03  0.80579200840E+02 0.  0.
          6    2    1    2  501    0 -0.35808908490E+02  0.36498116660E+02 -0.28060392820E+02  0.18137800650E+03  0.17174459278E+03 0.  0.
         24    2    5    5    0    0 -0.65875940038E+02 -0.28621532026E+02 -0.15842599358E+02  0.10846737964E+03  0.79720467391E+02 0.  0.
          5    1    5    5  501    0  0.30067031548E+02  0.65119648686E+02 -0.12217793461E+02  0.72910626854E+02  0.47000000000E+01 0. -1.
        -13    1    6    6    0    0 -0.52525606090E+02 -0.15110078965E+02 -0.46927981095E+02  0.72038109297E+02  0.00000000000E+00 0.  1.
         14    1    6    6    0    0 -0.13350333948E+02 -0.13511453061E+02  0.31085381736E+02  0.36429270347E+02  0.00000000000E+00 0. -1.
         -5    1    3    3    0  503 -0.17891065364E+02  0.27661851273E+02 -0.57960560089E+02  0.66834009019E+02  0.47000000000E+01 0.  1.
         11    1    4    4    0    0  0.10827328660E+02 -0.12855248580E+02 -0.32207085325E+02  0.36328842633E+02  0.00000000000E+00 0. -1.
        -12    1    4    4    0    0  0.42872645194E+02 -0.51304719353E+02  0.44867818343E+02  0.80519308596E+02  0.00000000000E+00 0.  1.
</event>
<event>
12    1  0.8313893E-002  0.2183369E+03  0.7818608E-02  0.1135167E+00
         21   -1    0    0  503  502  0.00000000000E+00  0.00000000000E+00  0.13438978326E+04  0.13438978326E+04  0.00000000000E+00 0.  1.
         21   -1    0    0  501  503 -0.00000000000E+00 -0.00000000000E+00 -0.39638421157E+02  0.39638421157E+02  0.00000000000E+00 0.  1.
          6    2    1    2  501    0  0.13137748025E+03  0.28699096182E+02  0.87756252412E+03  0.90431574999E+03  0.17200962619E+03 0.  0.
         24    2    3    3    0    0  0.56691427649E+02 -0.23177326525E+02  0.67547131889E+03  0.68265809748E+03  0.77520764801E+02 0.  0.
         -6    2    1    2    0  502 -0.13137748025E+03 -0.28699096182E+02  0.42669688730E+03  0.47922050375E+03  0.17175091598E+03 0.  0.
        -24    2    5    5    0    0 -0.98928720560E+01  0.16774906921E+02  0.10813441206E+03  0.13522844625E+03  0.78831562112E+02 0.  0.
          5    1    3    3  501    0  0.74686052599E+02  0.51876422707E+02  0.20209120523E+03  0.22165765251E+03  0.47000000000E+01 0. -1.
        -11    1    4    4    0    0  0.38339048690E+02 -0.41066026624E+02  0.24224410141E+03  0.24867349248E+03  0.00000000000E+00 0.  1.
         12    1    4    4    0    0  0.18352378959E+02  0.17888700099E+02  0.43322721748E+03  0.43398460499E+03  0.00000000000E+00 0. -1.
         -5    1    5    5    0  502 -0.12148460819E+03 -0.45474003103E+02  0.31856247524E+03  0.34399205749E+03  0.47000000000E+01 0.  1.
         11    1    6    6    0    0  0.17235334356E+02  0.98820968324E+01  0.10522877503E+03  0.10708785030E+03  0.00000000000E+00 0. -1.
        -12    1    6    6    0    0 -0.27128206412E+02  0.68928100889E+01  0.29056370318E+01  0.28140595953E+02  0.00000000000E+00 0.  1.
</event>
<event>
12    1  0.8313893E-002  0.2108285E+03  0.7818608E-02  0.1141045E+00
         21   -1    0    0  501  502  0.00000000000E+00  0.00000000000E+00  0.22205400763E+03  0.22205400763E+03  0.00000000000E+00 0. -1.
         21   -1    0    0  502  503 -0.00000000000E+00 -0.00000000000E+00 -0.54646434404E+03  0.54646434404E+03  0.00000000000E+00 0. -1.
         -6    2    1    2    0  503  0.34784948891E+02 -0.11614343861E+03 -0.46847454467E+03  0.51372856399E+03  0.17247999145E+03 0.  0.
        -24    2    3    3    0    0  0.97861595200E-02 -0.14508669430E+03 -0.36169421772E+03  0.39766327109E+03  0.79140514771E+02 0.  0.
          6    2    1    2  501    0 -0.34784948891E+02  0.11614343861E+03  0.14406420826E+03  0.25478978769E+03  0.17165095050E+03 0.  0.
         24    2    5    5    0    0  0.14401428022E+02  0.17480962056E+02  0.15978955045E+02  0.85729129807E+02  0.81124420057E+02 0.  0.
          5    1    5    5  501    0 -0.49186376913E+02  0.98662476551E+02  0.12808525321E+03  0.16906065788E+03  0.47000000000E+01 0. -1.
        -11    1    6    6    0    0 -0.26744737146E+02 -0.14440871605E+01 -0.15151360537E+02  0.30772229020E+02  0.00000000000E+00 0.  1.
         12    1    6    6    0    0  0.41146165168E+02  0.18925049217E+02  0.31130315581E+02  0.54956900787E+02  0.00000000000E+00 0. -1.
         -5    1    3    3    0  503  0.34775162731E+02  0.28943255690E+02 -0.10678032695E+03  0.11606529290E+03  0.47000000000E+01 0.  1.
         11    1    4    4    0    0  0.15264639412E+01 -0.46494390998E+02 -0.22108383633E+03  0.22592503441E+03  0.00000000000E+00 0. -1.
        -12    1    4    4    0    0 -0.15166777817E+01 -0.98592303299E+02 -0.14061038140E+03  0.17173823668E+03  0.00000000000E+00 0.  1.
</event>
<event>
12    1  0.8313893E-002  0.1943934E+03  0.7818608E-02  0.1155378E+00
         21   -1    0    0  503  502  0.00000000000E+00  0.00000000000E+00  0.23338526464E+03  0.23338526464E+03  0.00000000000E+00 0.  1.
         21   -1    0    0  501  503 -0.00000000000E+00 -0.00000000000E+00 -0.16300821525E+03  0.16300821525E+03  0.00000000000E+00 0.  1.
          6    2    1    2  501    0  0.82136485765E+02 -0.11667378400E+02  0.31699813940E+01  0.19071022252E+03  0.17169103116E+03 0.  0.
         24    2    3    3    0    0  0.85414284754E+02 -0.26891242697E+02  0.58817861458E+02  0.13273361892E+03  0.78357729614E+02 0.  0.
         -6    2    1    2    0  502 -0.82136485765E+02  0.11667378400E+02  0.67207067994E+02  0.20568325737E+03  0.17580182696E+03 0.  0.
        -24    2    5    5    0    0 -0.99560667858E+02  0.58608283157E+01  0.10380075779E+03  0.16447031913E+03  0.79556348979E+02 0.  0.
          5    1    3    3  501    0 -0.32777989886E+01  0.15223864298E+02 -0.55647880064E+02  0.57976603609E+02  0.47000000000E+01 0. -1.
        -11    1    4    4    0    0  0.41693652409E+02 -0.16127918765E+02 -0.14238078966E+02  0.46916876575E+02  0.00000000000E+00 0.  1.
         12    1    4    4    0    0  0.43720632344E+02 -0.10763323933E+02  0.73055940424E+02  0.85816742341E+02  0.00000000000E+00 0. -1.
         -5    1    5    5    0  502  0.17424182092E+02  0.58065500840E+01 -0.36593689799E+02  0.41212938243E+02  0.47000000000E+01 0.  1.
         11    1    6    6    0    0  0.10929154712E+01 -0.22378242190E+02  0.12395530549E+02  0.25605260501E+02  0.00000000000E+00 0. -1.
        -12    1    6    6    0    0 -0.10065358333E+03  0.28239070506E+02  0.91405227244E+02  0.13886505863E+03  0.00000000000E+00 0.  1.
</event>
<event>
12    1  0.8313893E-002  0.2936256E+03  0.7818608E-02  0.1088570E+00
         21   -1    0    0  503  502  0.00000000000E+00  0.00000000000E+00  0.20748096845E+03  0.20748096845E+03  0.00000000000E+00 0. -1.
         21   -1    0    0  501  503 -0.00000000000E+00 -0.00000000000E+00 -0.49999235113E+03  0.49999235113E+03  0.00000000000E+00 0. -1.
          6    2    1    2  501    0 -0.22534268849E+03 -0.74315274492E+02 -0.29241146652E+03  0.41384773212E+03  0.17164903831E+03 0.  0.
         24    2    3    3    0    0 -0.23338816707E+03 -0.75589937573E+02 -0.30423186891E+03  0.39874255405E+03  0.79086782461E+02 0.  0.
         -6    2    1    2    0  502  0.22534268849E+03  0.74315274492E+02 -0.99916162798E-01  0.29362558746E+03  0.17295631920E+03 0.  0.
        -24    2    5    5    0    0  0.13602582389E+03  0.62845344545E+02  0.70303945353E+02  0.17922342266E+03  0.68744660903E+02 0.  0.
          5    1    3    3  501    0  0.80454785886E+01  0.12746630814E+01  0.11820402393E+02  0.15105178066E+02  0.47000000000E+01 0. -1.
        -13    1    4    4    0    0 -0.27834020283E+02  0.13507277129E+02 -0.58755113693E+02  0.66402881005E+02  0.00000000000E+00 0.  1.
         14    1    4    4    0    0 -0.20555414679E+03 -0.89097214702E+02 -0.24547675522E+03  0.33233967305E+03  0.00000000000E+00 0. -1.
         -5    1    5    5    0  502  0.89316864595E+02  0.11469929947E+02 -0.70403861515E+02  0.11440216480E+03  0.47000000000E+01 0.  1.
         13    1    6    6    0    0  0.75548126118E+02 -0.27992890926E+01  0.32676118746E+02  0.82359481031E+02  0.00000000000E+00 0. -1.
        -14    1    6    6    0    0  0.60477697772E+02  0.65644633637E+02  0.37627826607E+02  0.96863941631E+02  0.00000000000E+00 0.  1.
</event>
<event>
12    1  0.8313893E-002  0.2358985E+03  0.7818608E-02  0.1122577E+00
         21   -1    0    0  501  502  0.00000000000E+00  0.00000000000E+00  0.12091997672E+04  0.12091997672E+04  0.00000000000E+00 0. -1.
         21   -1    0    0  502  503 -0.00000000000E+00 -0.00000000000E+00 -0.46929245216E+02  0.46929245216E+02  0.00000000000E+00 0. -1.
         -6    2    1    2    0  503  0.42554914108E+02  0.15465778695E+03  0.49272945121E+03  0.54628784357E+03  0.17296862189E+03 0.  0.
        -24    2    3    3    0    0 -0.26859297493E+02  0.13671067091E+03  0.38182305956E+03  0.41414114684E+03  0.79453201893E+02 0.  0.
          6    2    1    2  501    0 -0.42554914108E+02 -0.15465778695E+03  0.66954107076E+03  0.70984116884E+03  0.17279840209E+03 0.  0.
         24    2    5    5    0    0  0.27357664980E+02 -0.44573223384E+02  0.19024989556E+03  0.21310330993E+03  0.80515736760E+02 0.  0.
          5    1    5    5  501    0 -0.69912579088E+02 -0.11008456356E+03  0.47929117521E+03  0.49673785892E+03  0.47000000000E+01 0. -1.
        -11    1    6    6    0    0  0.48242077576E+01 -0.45127909426E+01  0.15509959114E+03  0.15524020560E+03  0.00000000000E+00 0.  1.
         12    1    6    6    0    0  0.22533457223E+02 -0.40060432441E+02  0.35150304417E+02  0.57863104327E+02  0.00000000000E+00 0. -1.
         -5    1    3    3    0  503  0.69414211601E+02  0.17947116036E+02  0.11090639165E+03  0.13214669672E+03  0.47000000000E+01 0.  1.
         13    1    4    4    0    0  0.12779182703E+02  0.23654278412E+02  0.21505406401E+02  0.34428402551E+02  0.00000000000E+00 0. -1.
        -14    1    4    4    0    0 -0.39638480196E+02  0.11305639250E+03  0.36031765316E+03  0.37971274429E+03  0.00000000000E+00 0.  1.
</event>
<event>
12    1  0.8313893E-002  0.2056103E+03  0.7818608E-02  0.1145831E+00
         21   -1    0    0  503  502  0.00000000000E+00  0.00000000000E+00  0.87439650852E+03  0.87439650852E+03  0.00000000000E+00 0.  1.
         21   -1    0    0  501  503 -0.00000000000E+00 -0.00000000000E+00 -0.48177100460E+02  0.48177100460E+02  0.00000000000E+00 0.  1.
          6    2    1    2  501    0 -0.94110491508E+02  0.50001208436E+02  0.35498774188E+03  0.40843853133E+03  0.17160661855E+03 0.  0.
         24    2    3    3    0    0 -0.80334873142E+02  0.80789927046E+02  0.17123280449E+03  0.22155439645E+03  0.82370948136E+02 0.  0.
         -6    2    1    2    0  502  0.94110491508E+02 -0.50001208436E+02  0.47123166618E+03  0.51413507765E+03  0.17583711043E+03 0.  0.
        -24    2    5    5    0    0  0.24832441737E+01  0.29812838007E+02  0.16171099098E+03  0.18158286695E+03  0.76986499827E+02 0.  0.
          5    1    3    3  501    0 -0.13775618366E+02 -0.30788718609E+02  0.18375493739E+03  0.18688413488E+03  0.47000000000E+01 0. -1.
        -11    1    4    4    0    0 -0.51198658631E+01 -0.13913180195E+02  0.43360126156E+01  0.15446378702E+02  0.00000000000E+00 0.  1.
         12    1    4    4    0    0 -0.75215007279E+02  0.94703107241E+02  0.16689679188E+03  0.20610801775E+03  0.00000000000E+00 0. -1.
         -5    1    5    5    0  502  0.91627247334E+02 -0.79814046444E+02  0.30952067520E+03  0.33255221070E+03  0.47000000000E+01 0.  1.
         13    1    6    6    0    0 -0.11406443186E+02  0.39664371644E+01 -0.44355817441E+01  0.12865222709E+02  0.00000000000E+00 0. -1.
        -14    1    6    6    0    0  0.13889687360E+02  0.25846400843E+02  0.16614657272E+03  0.16871764425E+03  0.00000000000E+00 0.  1.
</event>
<event>
12    1  0.8313893E-002  0.2462792E+03  0.7818608E-02  0.1115770E+00
         21   -1    0    0  503  502  0.00000000000E+00  0.00000000000E+00  0.55842505892E+03  0.55842505892E+03  0.00000000000E+00 0.  1.
         21   -1    0    0  501  503 -0.00000000000E+00 -0.00000000000E+00 -0.18733846203E+03  0.18733846203E+03  0.00000000000E+00 0.  1.
          6    2    1    2  501    0 -0.15833806003E+03  0.76571094472E+02 -0.56676251889E+02  0.25217005248E+03  0.17159097900E+03 0.  0.
         24    2    3    3    0    0 -0.70300003606E+02 -0.23468426365E+02 -0.22422430146E+01  0.10814312295E+03  0.78721343001E+02 0.  0.
         -6    2    1    2    0  502  0.15833806003E+03 -0.76571094472E+02  0.42776284878E+03  0.49359346847E+03  0.17239310763E+03 0.  0.
        -24    2    5    5    0    0  0.15490609568E+02 -0.47358955421E+02  0.22191898721E+03  0.24129894115E+03  0.80587297205E+02 0.  0.
          5    1    3    3  501    0 -0.88038056421E+02  0.10003952084E+03 -0.54434008875E+02  0.14402692953E+03  0.47000000000E+01 0. -1.
        -13    1    4    4    0    0 -0.63400364131E+02  0.18124561204E+02 -0.23388887439E+01  0.65981636016E+02  0.00000000000E+00 0.  1.
         14    1    4    4    0    0 -0.68996394746E+01 -0.41592987569E+02  0.96645729349E-01  0.42161486930E+02  0.00000000000E+00 0. -1.
         -5    1    5    5    0  502  0.14284745046E+03 -0.29212139051E+02  0.20584386157E+03  0.25229452732E+03  0.47000000000E+01 0.  1.
         13    1    6    6    0    0 -0.16836519299E+02 -0.54580139990E+02  0.10215692592E+03  0.11704058090E+03  0.00000000000E+00 0. -1.
        -14    1    6    6    0    0  0.32327128866E+02  0.72211845691E+01  0.11976206129E+03  0.12425836025E+03  0.00000000000E+00 0.  1.
</event>
<event>
12    1  0.8313893E-002  0.2424054E+03  0.7818608E-02  0.1118511E+00
         21   -1    0    0  501  502  0.00000000000E+00  0.00000000000E+00  0.13969963046E+03  0.13969963046E+03  0.00000000000E+00 0. -1.
         21   -1    0    0  502  503 -0.00000000000E+00 -0.00000000000E+00 -0.61026509628E+03  0.61026509628E+03  0.00000000000E+00 0. -1.
         -6    2    1    2    0  503  0.28302876195E+02  0.16825594059E+03 -0.23833687151E+02  0.24170329704E+03  0.16953266592E+03 0.  0.
        -24    2    3    3    0    0 -0.26232423821E+02  0.14238543913E+03 -0.52875778025E+02  0.17455484333E+03  0.81925527724E+02 0.  0.
          6    2    1    2  501    0 -0.28302876195E+02 -0.16825594059E+03 -0.44673177867E+03  0.50826142969E+03  0.17218967594E+03 0.  0.
         24    2    5    5    0    0 -0.68304501888E+02 -0.63785508104E+02 -0.29837881661E+03  0.32239886576E+03  0.78593984628E+02 0.  0.
          5    1    5    5  501    0  0.40001625693E+02 -0.10447043248E+03 -0.14835296205E+03  0.18586256393E+03  0.47000000000E+01 0. -1.
        -11    1    6    6    0    0 -0.17819273272E+02 -0.91987020755E+01 -0.18947550419E+03  0.19053374847E+03  0.00000000000E+00 0.  1.
         12    1    6    6    0    0 -0.50485228616E+02 -0.54586806028E+02 -0.10890331242E+03  0.13186511729E+03  0.00000000000E+00 0. -1.
         -5    1    3    3    0  503  0.54535300016E+02  0.25870501456E+02  0.29042090874E+02  0.67148453711E+02  0.47000000000E+01 0.  1.
         11    1    4    4    0    0  0.49156531221E+01  0.12306108747E+03 -0.18949280902E+02  0.12460846737E+03  0.00000000000E+00 0. -1.
        -12    1    4    4    0    0 -0.31148076943E+02  0.19324351664E+02 -0.33926497123E+02  0.49946375959E+02  0.00000000000E+00 0.  1.
</event>
<event>
12    1  0.8313893E-002  0.2249690E+03  0.7818608E-02  0.1130245E+00
         21   -1    0    0  503  502  0.00000000000E+00  0.00000000000E+00  0.42089174773E+02  0.42089174773E+02  0.00000000000E+00 0. -1.
         21   -1    0    0  501  503 -0.00000000000E+00 -0.00000000000E+00 -0.12964613131E+04  0.12964613131E+04  0.00000000000E+00 0. -1.
          6    2    1    2  501    0 -0.10614086939E+03 -0.98280979981E+02 -0.80767373759E+03  0.83840001983E+03  0.17219956931E+03 0.  0.
         24    2    3    3    0    0 -0.13373273680E+03 -0.41463876198E+02 -0.55992920642E+03  0.58268741327E+03  0.80001296575E+02 0.  0.
         -6    2    1    2    0  502  0.10614086939E+03  0.98280979981E+02 -0.44669840074E+03  0.50015046805E+03  0.17229623990E+03 0.  0.
        -24    2    5    5    0    0  0.13387655060E+03  0.40894159382E+02 -0.33395314726E+03  0.37055070967E+03  0.78662956942E+02 0.  0.
          5    1    3    3  501    0  0.27591867413E+02 -0.56817103783E+02 -0.24774453117E+03  0.25571260656E+03  0.47000000000E+01 0. -1.
        -11    1    4    4    0    0 -0.38220064771E+01  0.82583464646E+01 -0.45894814842E+01  0.10191729987E+02  0.00000000000E+00 0.  1.
         12    1    4    4    0    0 -0.12991073033E+03 -0.49722222663E+02 -0.55533972494E+03  0.57249568328E+03  0.00000000000E+00 0. -1.
         -5    1    5    5    0  502 -0.27735681214E+02  0.57386820599E+02 -0.11274525348E+03  0.12959975838E+03  0.47000000000E+01 0.  1.
         13    1    6    6    0    0  0.10984542797E+02  0.20868969678E+02 -0.14487268810E+02  0.27677699209E+02  0.00000000000E+00 0. -1.
        -14    1    6    6    0    0  0.12289200781E+03  0.20025189704E+02 -0.31946587845E+03  0.34287301046E+03  0.00000000000E+00 0.  1.
</event>
<event>
12    1  0.8313893E-002  0.2823992E+03  0.7818608E-02  0.1094590E+00
         21   -1    0    0  501  502  0.00000000000E+00  0.00000000000E+00  0.97625540311E+03  0.97625540311E+03  0.00000000000E+00 0. -1.
         21   -1    0    0  502  503 -0.00000000000E+00 -0.00000000000E+00 -0.81620301203E+02  0.81620301203E+02  0.00000000000E+00 0.  1.
         -6    2    1    2    0  503  0.12007888426E+03 -0.18833654750E+03  0.48401670563E+03  0.56037621742E+03  0.17279971107E+03 0.  0.
        -24    2    3    3    0    0  0.39869388409E+02 -0.33615137608E+02  0.98027658810E+02  0.13684119859E+03  0.79978410414E+02 0.  0.
          6    2    1    2  501    0 -0.12007888426E+03  0.18833654750E+03  0.41061839627E+03  0.49749948689E+03  0.17031934280E+03 0.  0.
         24    2    5    5    0    0 -0.68118943219E+02  0.39241651471E+02  0.24103839372E+03  0.26574834717E+03  0.79640311051E+02 0.  0.
          5    1    5    5  501    0 -0.51959941040E+02  0.14909489603E+03  0.16958000256E+03  0.23175113972E+03  0.47000000000E+01 0. -1.
        -13    1    6    6    0    0 -0.74099557546E+01 -0.20289722949E+02  0.88652994507E+02  0.91246554657E+02  0.00000000000E+00 0.  1.
         14    1    6    6    0    0 -0.60708987464E+02  0.59531374420E+02  0.15238539921E+03  0.17450179252E+03  0.00000000000E+00 0. -1.
         -5    1    3    3    0  503  0.80209495850E+02 -0.15472140989E+03  0.38598904682E+03  0.42353501882E+03  0.47000000000E+01 0.  1.
         11    1    4    4    0    0  0.57020885867E+02  0.77630184395E+00  0.57149592408E+02  0.80734503045E+02  0.00000000000E+00 0. -1.
        -12    1    4    4    0    0 -0.17151497458E+02 -0.34391439452E+02  0.40878066402E+02  0.56106695549E+02  0.00000000000E+00 0.  1.
</event>
<event>
12    1  0.8313893E-002  0.1784867E+03  0.7818608E-02  0.1170375E+00
         21   -1    0    0  501  502  0.00000000000E+00  0.00000000000E+00  0.52213761732E+02  0.52213761732E+02  0.00000000000E+00 0.  1.
         21   -1    0    0  502  503 -0.00000000000E+00 -0.00000000000E+00 -0.66242538736E+03  0.66242538736E+03  0.00000000000E+00 0.  1.
         -6    2    1    2    0  503 -0.28636244668E+02  0.37519191023E+02 -0.41558519674E+03  0.45056159994E+03  0.16753201302E+03 0.  0.
        -24    2    3    3    0    0 -0.68057342092E+02 -0.79541824899E+01 -0.19943479801E+03  0.22614026519E+03  0.81670741704E+02 0.  0.
          6    2    1    2  501    0  0.28636244668E+02 -0.37519191023E+02 -0.19462642889E+03  0.26407754915E+03  0.17213303268E+03 0.  0.
         24    2    5    5    0    0  0.46126117416E+02  0.31317892201E+02 -0.16183340298E+03  0.18570719619E+03  0.72032515679E+02 0.  0.
          5    1    5    5  501    0 -0.17489872748E+02 -0.68837083224E+02 -0.32793025904E+02  0.78370352962E+02  0.47000000000E+01 0. -1.
        -11    1    6    6    0    0 -0.26039264203E+01 -0.14254446797E+02 -0.50960232627E+01  0.15360310523E+02  0.00000000000E+00 0.  1.
         12    1    6    6    0    0  0.48730043836E+02  0.45572338998E+02 -0.15673737972E+03  0.17034688566E+03  0.00000000000E+00 0. -1.
         -5    1    3    3    0  503  0.39421097424E+02  0.45473373513E+02 -0.21615039873E+03  0.22442133475E+03  0.47000000000E+01 0.  1.
         13    1    4    4    0    0 -0.28126508938E+02  0.92849585809E+01 -0.92272148338E+01  0.31023417840E+02  0.00000000000E+00 0. -1.
        -14    1    4    4    0    0 -0.39930833153E+02 -0.17239141071E+02 -0.19020758318E+03  0.19511684735E+03  0.00000000000E+00 0.  1.
</event>
<event>
12    1  0.8313893E-002  0.1960650E+03  0.7818608E-02  0.1155146E+00
         21   -1    0    0  501  502  0.00000000000E+00  0.00000000000E+00  0.35996607342E+02  0.35996607342E+02  0.00000000000E+00 0. -1.
         21   -1    0    0  502  503 -0.00000000000E+00 -0.00000000000E+00 -0.10231799262E+04  0.10231799262E+04  0.00000000000E+00 0. -1.
         -6    2    1    2    0  503 -0.50506018087E+02  0.53545923979E+02 -0.46917859961E+03  0.50849782256E+03  0.18172356307E+03 0.  0.
        -24    2    3    3    0    0 -0.38060772519E+02  0.10533421482E+03 -0.37723031704E+03  0.40213294174E+03  0.82850899318E+02 0.  0.
          6    2    1    2  501    0  0.50506018087E+02 -0.53545923979E+02 -0.51800471923E+03  0.55067871096E+03  0.17175601803E+03 0.  0.
         24    2    5    5    0    0 -0.29246711682E+02 -0.61707476395E+02 -0.27325326821E+03  0.29308897589E+03  0.81059338821E+02 0.  0.
          5    1    5    5  501    0  0.79752729769E+02  0.81615524164E+01 -0.24475145101E+03  0.25758973508E+03  0.47000000000E+01 0. -1.
        -13    1    6    6    0    0  0.20110383958E+02 -0.20201703001E+02 -0.29795562333E+02  0.41234838206E+02  0.00000000000E+00 0.  1.
         14    1    6    6    0    0 -0.49357095640E+02 -0.41505773394E+02 -0.24345770588E+03  0.25185413768E+03  0.00000000000E+00 0. -1.
         -5    1    3    3    0  503 -0.12445245568E+02 -0.51788290836E+02 -0.91948282566E+02  0.10636488082E+03  0.47000000000E+01 0.  1.
         11    1    4    4    0    0  0.19224342190E+02  0.50517300501E+02 -0.98627231937E+02  0.11246734576E+03  0.00000000000E+00 0. -1.
        -12    1    4    4    0    0 -0.57285114710E+02  0.54816914314E+02 -0.27860308511E+03  0.28966559598E+03  0.00000000000E+00 0.  1.
</event>
<event>
12    1  0.8313893E-002  0.2216310E+03  0.7818608E-02  0.1132736E+00
         21   -1    0    0  503  502  0.00000000000E+00  0.00000000000E+00  0.10991679148E+03  0.10991679148E+03  0.00000000000E+00 0. -1.
         21   -1    0    0  501  503 -0.00000000000E+00 -0.00000000000E+00 -0.85091726531E+03  0.85091726531E+03  0.00000000000E+00 0. -1.
          6    2    1    2  501    0 -0.11043145974E+03 -0.85187323858E+02 -0.70197261674E+03  0.73612896039E+03  0.17224489608E+03 0.  0.
         24    2    3    3    0    0 -0.99511941683E+02 -0.11075378980E+03 -0.40221984055E+03  0.43505306150E+03  0.72947499632E+02 0.  0.
         -6    2    1    2    0  502  0.11043145974E+03  0.85187323858E+02 -0.39027857093E+02  0.22470509639E+03  0.17180576029E+03 0.  0.
        -24    2    5    5    0    0  0.26789137346E+02  0.68726122257E+01  0.31881360845E+02  0.89873945162E+02  0.79347426997E+02 0.  0.
          5    1    3    3  501    0 -0.10919518060E+02  0.25566465938E+02 -0.29975277619E+03  0.30107589889E+03  0.47000000000E+01 0. -1.
        -13    1    4    4    0    0 -0.19185581172E+02  0.34391557361E+00 -0.15233028693E+02  0.24499999306E+02  0.00000000000E+00 0.  1.
         14    1    4    4    0    0 -0.80326360512E+02 -0.11109770537E+03 -0.38698681185E+03  0.41055306220E+03  0.00000000000E+00 0. -1.
         -5    1    5    5    0  502  0.83642322398E+02  0.78314711632E+02 -0.70909217938E+02  0.13483115123E+03  0.47000000000E+01 0.  1.
         13    1    6    6    0    0  0.25432658379E+02  0.29386871502E+02 -0.11882353656E+02  0.40639865371E+02  0.00000000000E+00 0. -1.
        -14    1    6    6    0    0  0.13564789663E+01 -0.22514259276E+02  0.43763714501E+02  0.49234079791E+02  0.00000000000E+00 0.  1.
</event>
<event>
12    1  0.8313893E-002  0.2124991E+03  0.7818608E-02  0.1139742E+00
         21   -1    0    0  501  502  0.00000000000E+00  0.00000000000E+00  0.56848726920E+02  0.56848726920E+02  0.00000000000E+00 0. -1.
         21   -1    0    0  502  503 -0.00000000000E+00 -0.00000000000E+00 -0.12402935149E+04  0.12402935149E+04  0.00000000000E+00 0.  1.
         -6    2    1    2    0  503  0.61624489407E+02  0.10801780969E+03 -0.98116004567E+03  0.10037568712E+04  0.17142752488E+03 0.  0.
        -24    2    3    3    0    0  0.70331629506E+02  0.14039221428E+03 -0.73612615555E+03  0.75639556928E+03  0.74806606696E+02 0.  0.
          6    2    1    2  501    0 -0.61624489407E+02 -0.10801780969E+03 -0.20228474235E+03  0.29338537070E+03  0.17230912293E+03 0.  0.
         24    2    5    5    0    0 -0.10719871952E+03 -0.60240153610E+02 -0.14835178844E+03  0.20800054541E+03  0.78329637965E+02 0.  0.
          5    1    5    5  501    0  0.45574230117E+02 -0.47777656082E+02 -0.53932953917E+02  0.85384825290E+02  0.47000000000E+01 0. -1.
        -13    1    6    6    0    0 -0.49356335659E+02 -0.65571411175E+02 -0.57660314096E+02  0.10030139408E+03  0.00000000000E+00 0.  1.
         14    1    6    6    0    0 -0.57842383866E+02  0.53312575656E+01 -0.90691474342E+02  0.10769915133E+03  0.00000000000E+00 0. -1.
         -5    1    3    3    0  503 -0.87071400988E+01 -0.32374404591E+02 -0.24503389012E+03  0.24736130188E+03  0.47000000000E+01 0.  1.
         11    1    4    4    0    0  0.43877981967E+02  0.13501304220E+03 -0.67177553876E+03  0.68661209816E+03  0.00000000000E+00 0. -1.
        -12    1    4    4    0    0  0.26453647539E+02  0.53791720816E+01 -0.64350616788E+02  0.69783471119E+02  0.00000000000E+00 0.  1.
</event>
<event>
12    1  0.8313893E-002  0.2075124E+03  0.7818608E-02  0.1143810E+00
         21   -1    0    0  501  502  0.00000000000E+00  0.00000000000E+00  0.31350317734E+03  0.31350317734E+03  0.00000000000E+00 0.  1.
         21   -1    0    0  502  503 -0.00000000000E+00 -0.00000000000E+00 -0.21144290926E+03  0.21144290926E+03  0.00000000000E+00 0.  1.
         -6    2    1    2    0  503  0.88848790732E+02 -0.74273059380E+02 -0.10512083244E+03  0.23261940067E+03  0.17219408001E+03 0.  0.
        -24    2    3    3    0    0  0.50047408321E+01 -0.55000621097E+02  0.37030721468E+01  0.93817441785E+02  0.75748821033E+02 0.  0.
          6    2    1    2  501    0 -0.88848790732E+02  0.74273059380E+02  0.20718110051E+03  0.29232668593E+03  0.17064667572E+03 0.  0.
         24    2    5    5    0    0 -0.35253059555E+02  0.34697312439E+02  0.20531340469E+03  0.22551111563E+03  0.79088478497E+02 0.  0.
          5    1    5    5  501    0 -0.53595731178E+02  0.39575746941E+02  0.18676958215E+01  0.66815570297E+02  0.47000000000E+01 0. -1.
        -13    1    6    6    0    0 -0.87654979257E+01 -0.20392892602E+02  0.11045497063E+03  0.11266323517E+03  0.00000000000E+00 0.  1.
         14    1    6    6    0    0 -0.26487561629E+02  0.55090205041E+02  0.94858434056E+02  0.11284788046E+03  0.00000000000E+00 0. -1.
         -5    1    3    3    0  503  0.83844049900E+02 -0.19272438283E+02 -0.10882390458E+03  0.13880195888E+03  0.47000000000E+01 0.  1.
         11    1    4    4    0    0 -0.32785658887E+02 -0.89132229993E+01  0.40517965606E+01  0.34216399990E+02  0.00000000000E+00 0. -1.
        -12    1    4    4    0    0  0.37790399719E+02 -0.46087398097E+02 -0.34872441385E+00  0.59601041795E+02  0.00000000000E+00 0.  1.
</event>
<event>
12    1  0.8313893E-002  0.2228099E+03  0.7818608E-02  0.1131936E+00
         21   -1    0    0  501  502  0.00000000000E+00  0.00000000000E+00  0.91220360407E+03  0.91220360407E+03  0.00000000000E+00 0. -1.
         21   -1    0    0  502  503 -0.00000000000E+00 -0.00000000000E+00 -0.60094813451E+02  0.60094813451E+02  0.00000000000E+00 0.  1.
         -6    2    1    2    0  503 -0.12793627889E+03  0.56741730378E+02  0.57707117733E+03  0.61833525337E+03  0.17245296876E+03 0.  0.
        -24    2    3    3    0    0 -0.17148264786E+02  0.72040018039E+02  0.30711557761E+03  0.32609196860E+03  0.80821821246E+02 0.  0.
          6    2    1    2  501    0  0.12793627889E+03 -0.56741730378E+02  0.27503761329E+03  0.35396316415E+03  0.17336930936E+03 0.  0.
         24    2    5    5    0    0  0.16036528296E+03 -0.22240289451E+02  0.22789934653E+03  0.28698483986E+03  0.64888610006E+02 0.  0.
          5    1    5    5  501    0 -0.32429004069E+02 -0.34501440927E+02  0.47138266760E+02  0.66978324286E+02  0.47000000000E+01 0. -1.
        -13    1    6    6    0    0  0.62011214793E+02 -0.11773650633E+02  0.40240161767E+02  0.74855061474E+02  0.00000000000E+00 0.  1.
         14    1    6    6    0    0  0.98354068168E+02 -0.10466638818E+02  0.18765918476E+03  0.21212977839E+03  0.00000000000E+00 0. -1.
         -5    1    3    3    0  503 -0.11078801411E+03 -0.15298287661E+02  0.26995559971E+03  0.29224328477E+03  0.47000000000E+01 0.  1.
         11    1    4    4    0    0 -0.46698536523E+02  0.34080228553E+02  0.20853374074E+03  0.21639902107E+03  0.00000000000E+00 0. -1.
        -12    1    4    4    0    0  0.29550271738E+02  0.37959789486E+02  0.98581836874E+02  0.10969294754E+03  0.00000000000E+00 0.  1.
</event>
<event>
12    1  0.8313893E-002  0.1979464E+03  0.7818608E-02  0.1151582E+00
         21   -1    0    0  503  502  0.00000000000E+00  0.00000000000E+00  0.18634531632E+03  0.18634531632E+03  0.00000000000E+00 0.  1.
         21   -1    0    0  501  503 -0.00000000000E+00 -0.00000000000E+00 -0.22112529867E+03  0.22112529867E+03  0.00000000000E+00 0.  1.
          6    2    1    2  501    0 -0.85678036847E+02  0.46970850415E+02 -0.63519722234E+02  0.20744869650E+03  0.17161940386E+03 0.  0.
         24    2    3    3    0    0 -0.40182009986E+02  0.79213834535E+02 -0.87842964808E+02  0.14643059579E+03  0.76394420012E+02 0.  0.
         -6    2    1    2    0  502  0.85678036847E+02 -0.46970850415E+02  0.28739739881E+02  0.20002191849E+03  0.17215054005E+03 0.  0.
        -24    2    5    5    0    0 -0.18228206054E+02 -0.43401067113E+01 -0.72976274159E+01  0.81976717550E+02  0.79472151300E+02 0.  0.
          5    1    3    3  501    0 -0.45496026861E+02 -0.32242984120E+02  0.24323242573E+02  0.61018100711E+02  0.47000000000E+01 0. -1.
        -11    1    4    4    0    0 -0.41406163947E+02  0.11422361174E+02 -0.11788443246E+02  0.44541083752E+02  0.00000000000E+00 0.  1.
         12    1    4    4    0    0  0.12241539616E+01  0.67791473361E+02 -0.76054521561E+02  0.10188951204E+03  0.00000000000E+00 0. -1.
         -5    1    5    5    0  502  0.10390624290E+03 -0.42630743703E+02  0.36037367297E+02  0.11804520094E+03  0.47000000000E+01 0.  1.
         13    1    6    6    0    0 -0.15377004617E+01 -0.39768644296E+02 -0.14109708904E+02  0.42225507424E+02  0.00000000000E+00 0. -1.
        -14    1    6    6    0    0 -0.16690505592E+02  0.35428537585E+02  0.68120814879E+01  0.39751210126E+02  0.00000000000E+00 0.  1.
</event>
<event>
12    1  0.8313893E-002  0.2621321E+03  0.7818608E-02  0.1105964E+00
         21   -1    0    0  503  502  0.00000000000E+00  0.00000000000E+00  0.24055333654E+03  0.24055333654E+03  0.00000000000E+00 0.  1.
         21   -1    0    0  501  503 -0.00000000000E+00 -0.00000000000E+00 -0.34571644848E+03  0.34571644848E+03  0.00000000000E+00 0. -1.
          6    2    1    2  501    0 -0.12440143848E+03  0.15383602000E+03 -0.17552993824E+03  0.31547424449E+03  0.17196511499E+03 0.  0.
         24    2    3    3    0    0 -0.12938722460E+03  0.10911192650E+03 -0.68061825431E+02  0.19886983688E+03  0.79185437716E+02 0.  0.
         -6    2    1    2    0  502  0.12440143848E+03 -0.15383602000E+03  0.70366826313E+02  0.27079554053E+03  0.17098975285E+03 0.  0.
        -24    2    5    5    0    0  0.13751620666E+03 -0.78473917974E+02  0.18018909685E+02  0.17798477638E+03  0.79278222854E+02 0.  0.
          5    1    3    3  501    0  0.49857861193E+01  0.44724093504E+02 -0.10746811281E+03  0.11660440761E+03  0.47000000000E+01 0. -1.
        -11    1    4    4    0    0 -0.12229751550E+03  0.63337824560E+02 -0.65423400261E+02  0.15247486225E+03  0.00000000000E+00 0.  1.
         12    1    4    4    0    0 -0.70897090997E+01  0.45774101938E+02 -0.26384251706E+01  0.46394974628E+02  0.00000000000E+00 0. -1.
         -5    1    5    5    0  502 -0.13114768187E+02 -0.75362102028E+02  0.52347916628E+02  0.92810764150E+02  0.47000000000E+01 0.  1.
         13    1    6    6    0    0  0.66675851476E+02 -0.61655691556E+02 -0.23985709136E+02  0.93927672781E+02  0.00000000000E+00 0. -1.
        -14    1    6    6    0    0  0.70840355188E+02 -0.16818226418E+02  0.42004618821E+02  0.84057103598E+02  0.00000000000E+00 0.  1.
</event>
<event>
12    1  0.8313893E-002  0.1922794E+03  0.7818608E-02  0.1156465E+00
         21   -1    0    0  501  502  0.00000000000E+00  0.00000000000E+00  0.19778783376E+03  0.19778783376E+03  0.00000000000E+00 0.  1.
         21   -1    0    0  502  503 -0.00000000000E+00 -0.00000000000E+00 -0.21687814331E+03  0.21687814331E+03  0.00000000000E+00 0.  1.
         -6    2    1    2    0  503  0.49878571012E+02  0.70869021505E+02 -0.86840670323E+02  0.21079967272E+03  0.17142027284E+03 0.  0.
        -24    2    3    3    0    0  0.85375317371E+02  0.49652094362E+02 -0.11459702140E+02  0.12469184866E+03  0.75249299385E+02 0.  0.
          6    2    1    2  501    0 -0.49878571012E+02 -0.70869021505E+02  0.67750360769E+02  0.20386630436E+03  0.17164226931E+03 0.  0.
         24    2    5    5    0    0 -0.11287596378E+01  0.17668749475E+01  0.82071068609E+02  0.11509868506E+03  0.80670013359E+02 0.  0.
          5    1    5    5  501    0 -0.48749811374E+02 -0.72635896452E+02 -0.14320707840E+02  0.88767619296E+02  0.47000000000E+01 0. -1.
        -11    1    6    6    0    0 -0.58980784952E+01 -0.10387347053E+02  0.95572906482E+02  0.96316482298E+02  0.00000000000E+00 0.  1.
         12    1    6    6    0    0  0.47693188574E+01  0.12154222001E+02 -0.13501837873E+02  0.18782202766E+02  0.00000000000E+00 0. -1.
         -5    1    3    3    0  503 -0.35496746359E+02  0.21216927143E+02 -0.75380968184E+02  0.86107824057E+02  0.47000000000E+01 0.  1.
         13    1    4    4    0    0  0.10207237329E+02 -0.14686561524E+02  0.13782681163E+02  0.22579749408E+02  0.00000000000E+00 0. -1.
        -14    1    4    4    0    0  0.75168080042E+02  0.64338655886E+02 -0.25242383303E+02  0.10211209925E+03  0.00000000000E+00 0.  1.
</event>
<event>
12    1  0.8313893E-002  0.1761770E+03  0.7818608E-02  0.1171777E+00
         21   -1    0    0  503  502  0.00000000000E+00  0.00000000000E+00  0.80093562857E+03  0.80093562857E+03  0.00000000000E+00 0.  1.
         21   -1    0    0  501  503 -0.00000000000E+00 -0.00000000000E+00 -0.39441896021E+02  0.39441896021E+02  0.00000000000E+00 0.  1.
          6    2    1    2  501    0  0.31266361598E+02  0.16694934269E+02  0.31874822524E+03  0.36419603312E+03  0.17257465993E+03 0.  0.
         24    2    3    3    0    0  0.77041881091E+02 -0.25895671535E+02  0.20703821732E+03  0.23609227144E+03  0.79175122077E+02 0.  0.
         -6    2    1    2    0  502 -0.31266361598E+02 -0.16694934269E+02  0.44274550730E+03  0.47618149146E+03  0.17166514607E+03 0.  0.
        -24    2    5    5    0    0  0.48303764721E+02  0.20332182099E+00  0.24992868430E+03  0.26685549381E+03  0.80088777698E+02 0.  0.
          5    1    3    3  501    0 -0.45775519494E+02  0.42590605805E+02  0.11171000793E+03  0.12810376169E+03  0.47000000000E+01 0. -1.
        -13    1    4    4    0    0  0.43952088093E+02 -0.30350367807E+02  0.42661402500E+02  0.68358804386E+02  0.00000000000E+00 0.  1.
         14    1    4    4    0    0  0.33089792999E+02  0.44546962719E+01  0.16437681482E+03  0.16773346705E+03  0.00000000000E+00 0. -1.
         -5    1    5    5    0  502 -0.79570126319E+02 -0.16898256090E+02  0.19281682300E+03  0.20932599765E+03  0.47000000000E+01 0.  1.
         11    1    6    6    0    0 -0.15416802478E+02 -0.71927915757E+01  0.13040012593E+02  0.21434924253E+02  0.00000000000E+00 0. -1.
        -12    1    6    6    0    0  0.63720567199E+02  0.73961133967E+01  0.23688867171E+03  0.24542056956E+03  0.00000000000E+00 0.  1.
</event>
<event>
12    1  0.8313893E-002  0.2424290E+03  0.7818608E-02  0.1118269E+00
         21   -1    0    0  501  502  0.00000000000E+00  0.00000000000E+00  0.36282265603E+02  0.36282265603E+02  0.00000000000E+00 0. -1.
         21   -1    0    0  502  503 -0.00000000000E+00 -0.00000000000E+00 -0.17127058271E+04  0.17127058271E+04  0.00000000000E+00 0. -1.
         -6    2    1    2    0  503  0.41823869344E+02  0.16542794049E+03 -0.10446924714E+04  0.10723375314E+04  0.17149280438E+03 0.  0.
        -24    2    3    3    0    0  0.16495075140E+02  0.18703028005E+03 -0.81109603658E+03  0.83633415591E+03  0.79533808112E+02 0.  0.
          6    2    1    2  501    0 -0.41823869344E+02 -0.16542794049E+03 -0.63173109013E+03  0.67665056132E+03  0.17220967554E+03 0.  0.
         24    2    5    5    0    0 -0.85486886942E+01 -0.20310188745E+02 -0.34825120742E+03  0.35641731285E+03  0.72586593721E+02 0.  0.
          5    1    5    5  501    0 -0.33275180650E+02 -0.14511775174E+03 -0.28347988271E+03  0.32023324846E+03  0.47000000000E+01 0. -1.
        -13    1    6    6    0    0  0.21257974667E+02 -0.32863228136E+02 -0.24824146824E+03  0.25130801779E+03  0.00000000000E+00 0.  1.
         14    1    6    6    0    0 -0.29806663361E+02  0.12553039390E+02 -0.10000973918E+03  0.10510929507E+03  0.00000000000E+00 0. -1.
         -5    1    3    3    0  503  0.25328794205E+02 -0.21602339559E+02 -0.23359643484E+03  0.23600337552E+03  0.47000000000E+01 0.  1.
         13    1    4    4    0    0  0.59940843891E+01  0.66903413689E+02 -0.15031875495E+03  0.16464423434E+03  0.00000000000E+00 0. -1.
        -14    1    4    4    0    0  0.10500990751E+02  0.12012686636E+03 -0.66077728163E+03  0.67168992157E+03  0.00000000000E+00 0.  1.
</event>
<event>
12    1  0.8313893E-002  0.1907328E+03  0.7818608E-02  0.1158069E+00
         21   -1    0    0  503  502  0.00000000000E+00  0.00000000000E+00  0.14323537969E+04  0.14323537969E+04  0.00000000000E+00 0.  1.
         21   -1    0    0  501  503 -0.00000000000E+00 -0.00000000000E+00 -0.25259919997E+02  0.25259919997E+02  0.00000000000E+00 0.  1.
          6    2    1    2  501    0  0.11869265566E+02 -0.79557479417E+02  0.72176576913E+03  0.74623926036E+03  0.17163023108E+03 0.  0.
         24    2    3    3    0    0 -0.14358866634E+02 -0.11718594665E+03  0.54530127476E+03  0.56385059778E+03  0.81457309191E+02 0.  0.
         -6    2    1    2    0  502 -0.11869265566E+02  0.79557479417E+02  0.68532810773E+03  0.71137445649E+03  0.17294140657E+03 0.  0.
        -24    2    5    5    0    0  0.19943154824E+02  0.21729165873E+01  0.16978952819E+03  0.18906945206E+03  0.80723743904E+02 0.  0.
          5    1    3    3  501    0  0.26228132200E+02  0.37628467229E+02  0.17646449437E+03  0.18238866258E+03  0.47000000000E+01 0. -1.
        -13    1    4    4    0    0  0.14939768256E+01 -0.39668709682E+02  0.58725649015E+02  0.70883992176E+02  0.00000000000E+00 0.  1.
         14    1    4    4    0    0 -0.15852843460E+02 -0.77517236964E+02  0.48657562574E+03  0.49296660560E+03  0.00000000000E+00 0. -1.
         -5    1    5    5    0  502 -0.31812420390E+02  0.77384562830E+02  0.51553857955E+03  0.52230500443E+03  0.47000000000E+01 0.  1.
         13    1    6    6    0    0 -0.12162146758E+02 -0.17665810879E+01 -0.35067435460E+01  0.12780292360E+02  0.00000000000E+00 0. -1.
        -14    1    6    6    0    0  0.32105301582E+02  0.39394976752E+01  0.17329627173E+03  0.17628915970E+03  0.00000000000E+00 0.  1.
</event>
<event>
12    1  0.8313893E-002  0.2181630E+03  0.7818608E-02  0.1135275E+00
         21   -1    0    0  501  502  0.00000000000E+00  0.00000000000E+00  0.10929004238E+03  0.10929004238E+03  0.00000000000E+00 0. -1.
         21   -1    0    0  502  503 -0.00000000000E+00 -0.00000000000E+00 -0.59395341405E+03  0.59395341405E+03  0.00000000000E+00 0. -1.
         -6    2    1    2    0  503 -0.56243080298E+02  0.12157194857E+03 -0.42406935571E+03  0.47689610839E+03  0.17219772643E+03 0.  0.
        -24    2    3    3    0    0 -0.11800512486E+02  0.13957561362E+03 -0.37555928005E+03  0.40852512603E+03  0.78913888231E+02 0.  0.
          6    2    1    2  501    0  0.56243080298E+02 -0.12157194857E+03 -0.60594015953E+02  0.22634734804E+03  0.17210015815E+03 0.  0.
         24    2    5    5    0    0 -0.92561348699E+01 -0.64088514853E+02 -0.87447979845E+02  0.13503624402E+03  0.79966394517E+02 0.  0.
          5    1    5    5  501    0  0.65499215168E+02 -0.57483433722E+02  0.26853963892E+02  0.91311104017E+02  0.47000000000E+01 0. -1.
        -11    1    6    6    0    0 -0.32702131016E+02 -0.22381844859E+02 -0.53138004290E+01  0.39982656581E+02  0.00000000000E+00 0.  1.
         12    1    6    6    0    0  0.23445996146E+02 -0.41706669994E+02 -0.82134179416E+02  0.95053587442E+02  0.00000000000E+00 0. -1.
         -5    1    3    3    0  503 -0.44442567813E+02 -0.18003665041E+02 -0.48510075662E+02  0.68370982364E+02  0.47000000000E+01 0.  1.
         11    1    4    4    0    0 -0.34117632095E+02  0.13321824586E+03 -0.31765248567E+03  0.34614190082E+03  0.00000000000E+00 0. -1.
        -12    1    4    4    0    0  0.22317119609E+02  0.63573677530E+01 -0.57906794380E+02  0.62383225212E+02  0.00000000000E+00 0.  1.
</event>
<event>
12    1  0.8313893E-002  0.2183982E+03  0.7818608E-02  0.1135154E+00
         21   -1    0    0  503  502  0.00000000000E+00  0.00000000000E+00  0.92926056499E+03  0.92926056499E+03  0.00000000000E+00 0.  1.
         21   -1    0    0  501  503 -0.00000000000E+00 -0.00000000000E+00 -0.52491103693E+02  0.52491103693E+02  0.00000000000E+00 0. -1.
          6    2    1    2  501    0 -0.13322855774E+03 -0.12883808778E+02  0.51454324200E+03  0.55897453851E+03  0.17257446418E+03 0.  0.
         24    2    3    3    0    0 -0.14756166929E+03 -0.56644033784E+02  0.42144856972E+03  0.45500770059E+03  0.66559130668E+02 0.  0.
         -6    2    1    2    0  502  0.13322855774E+03  0.12883808778E+02  0.36222621930E+03  0.42277713018E+03  0.17209540007E+03 0.  0.
        -24    2    5    5    0    0  0.14238643264E+03  0.49922498394E+02  0.33437987219E+03  0.37530882234E+03  0.79250622447E+02 0.  0.
          5    1    3    3  501    0  0.14333111546E+02  0.43760225006E+02  0.93094672284E+02  0.10396683792E+03  0.47000000000E+01 0. -1.
        -11    1    4    4    0    0 -0.32014309244E+02 -0.52745795032E+01  0.17531028699E+03  0.17828750352E+03  0.00000000000E+00 0.  1.
         12    1    4    4    0    0 -0.11554736004E+03 -0.51369454281E+02  0.24613828272E+03  0.27672019707E+03  0.00000000000E+00 0. -1.
         -5    1    5    5    0  502 -0.91578748968E+01 -0.37038689616E+02  0.27846347111E+02  0.47468307833E+02  0.47000000000E+01 0.  1.
         11    1    6    6    0    0  0.83268405584E+02  0.20536440162E+01  0.10735151337E+03  0.13587564994E+03  0.00000000000E+00 0. -1.
        -12    1    6    6    0    0  0.59118027055E+02  0.47868854378E+02  0.22702835881E+03  0.23943317240E+03  0.00000000000E+00 0.  1.
</event>
<event>
12    1  0.8313893E-002  0.2270413E+03  0.7818608E-02  0.1128772E+00
         21   -1    0    0  501  502  0.00000000000E+00  0.00000000000E+00  0.48051382069E+03  0.48051382069E+03  0.00000000000E+00 0.  1.
         21   -1    0    0  502  503 -0.00000000000E+00 -0.00000000000E+00 -0.13741238734E+03  0.13741238734E+03  0.00000000000E+00 0.  1.
         -6    2    1    2    0  503  0.11709996668E+03  0.90521158649E+02  0.26602270446E+02  0.22841438061E+03  0.17192721169E+03 0.  0.
        -24    2    3    3    0    0 -0.19267663062E+01  0.18206961426E+02  0.39533191499E+02  0.88464371667E+02  0.76992635697E+02 0.  0.
          6    2    1    2  501    0 -0.11709996668E+03 -0.90521158649E+02  0.31649916290E+03  0.38951182743E+03  0.17216637659E+03 0.  0.
         24    2    5    5    0    0 -0.13714650446E+03 -0.59517822009E+02  0.30783362090E+03  0.35129858132E+03  0.79357546931E+02 0.  0.
          5    1    5    5  501    0  0.20046537783E+02 -0.31003336639E+02  0.86655419978E+01  0.38213246106E+02  0.47000000000E+01 0. -1.
        -11    1    6    6    0    0 -0.59323197212E+02 -0.68846918295E+02  0.16493939600E+03  0.18831926147E+03  0.00000000000E+00 0.  1.
         12    1    6    6    0    0 -0.77823307249E+02  0.93290962861E+01  0.14289422490E+03  0.16297931985E+03  0.00000000000E+00 0. -1.
         -5    1    3    3    0  503  0.11902673298E+03  0.72314197222E+02 -0.12930921053E+02  0.13995000895E+03  0.47000000000E+01 0.  1.
         13    1    4    4    0    0 -0.10686917773E+02 -0.24947759791E+02  0.34864106670E+02  0.44182653428E+02  0.00000000000E+00 0. -1.
        -14    1    4    4    0    0  0.87601514668E+01  0.43154721217E+02  0.46690848287E+01  0.44281718239E+02  0.00000000000E+00 0.  1.
</event>
<event>
12    1  0.8313893E-002  0.2587540E+03  0.7818608E-02  0.1109377E+00
         21   -1    0    0  503  502  0.00000000000E+00  0.00000000000E+00  0.93032109016E+02  0.93032109016E+02  0.00000000000E+00 0. -1.
         21   -1    0    0  501  503 -0.00000000000E+00 -0.00000000000E+00 -0.22448252690E+04  0.22448252690E+04  0.00000000000E+00 0.  1.
          6    2    1    2  501    0  0.15685000880E+03  0.89517320350E+02 -0.20413868095E+04  0.20565333803E+04  0.17162214994E+03 0.  0.
         24    2    3    3    0    0  0.17446309907E+03  0.79377924453E+02 -0.19965770105E+04  0.20071062988E+04  0.73605081502E+02 0.  0.
         -6    2    1    2    0  502 -0.15685000880E+03 -0.89517320350E+02 -0.11040635050E+03  0.28132399774E+03  0.18530610775E+03 0.  0.
        -24    2    5    5    0    0 -0.18279993087E+02  0.18038629762E+02 -0.33447939820E+02  0.89713406610E+02  0.79184470298E+02 0.  0.
          5    1    3    3  501    0 -0.17613090271E+02  0.10139395897E+02 -0.44809799033E+02  0.49427081519E+02  0.47000000000E+01 0. -1.
        -11    1    4    4    0    0  0.42848055651E+02  0.13526474924E+02 -0.84039985799E+03  0.84160016795E+03  0.00000000000E+00 0.  1.
         12    1    4    4    0    0  0.13161504342E+03  0.65851449529E+02 -0.11561771525E+04  0.11655061308E+04  0.00000000000E+00 0. -1.
         -5    1    5    5    0  502 -0.13857001571E+03 -0.10755595011E+03 -0.76958410678E+02  0.19161059113E+03  0.47000000000E+01 0.  1.
         13    1    6    6    0    0 -0.27216848946E+02 -0.22628849840E+02  0.13914705297E+01  0.35422562046E+02  0.00000000000E+00 0. -1.
        -14    1    6    6    0    0  0.89368558593E+01  0.40667479603E+02 -0.34839410350E+02  0.54290844564E+02  0.00000000000E+00 0.  1.
</event>
<event>
12    1  0.8313893E-002  0.2384209E+03  0.7818608E-02  0.1120874E+00
         21   -1    0    0  503  502  0.00000000000E+00  0.00000000000E+00  0.46801788443E+02  0.46801788443E+02  0.00000000000E+00 0.  1.
         21   -1    0    0  501  503 -0.00000000000E+00 -0.00000000000E+00 -0.16124356448E+04  0.16124356448E+04  0.00000000000E+00 0. -1.
          6    2    1    2  501    0 -0.35732636869E+02  0.16134266294E+03 -0.11951169251E+04  0.12186386301E+04  0.17166062373E+03 0.  0.
         24    2    3    3    0    0 -0.37168388230E+02  0.42180929067E+02 -0.79791205345E+03  0.80391537259E+03  0.80346508292E+02 0.  0.
         -6    2    1    2    0  502  0.35732636869E+02 -0.16134266294E+03 -0.37051693121E+03  0.44059880316E+03  0.17186108579E+03 0.  0.
        -24    2    5    5    0    0  0.89506791720E+02 -0.13046409048E+03 -0.29260725931E+03  0.34091353372E+03  0.74637018998E+02 0.  0.
          5    1    3    3  501    0  0.14357513605E+01  0.11916173388E+03 -0.39720487169E+03  0.41472325748E+03  0.47000000000E+01 0. -1.
        -13    1    4    4    0    0 -0.17650843022E+02 -0.15492216854E+01 -0.32579445521E+02  0.37086016471E+02  0.00000000000E+00 0.  1.
         14    1    4    4    0    0 -0.19517545208E+02  0.43730150752E+02 -0.76533260793E+03  0.76682935612E+03  0.00000000000E+00 0. -1.
         -5    1    5    5    0  502 -0.53774154851E+02 -0.30878572461E+02 -0.77909671902E+02  0.99685269438E+02  0.47000000000E+01 0.  1.
         13    1    6    6    0    0  0.60433511339E+02 -0.91098119362E+02 -0.26016108624E+03  0.28219650501E+03  0.00000000000E+00 0. -1.
        -14    1    6    6    0    0  0.29073280381E+02 -0.39365971120E+02 -0.32446173069E+02  0.58717028715E+02  0.00000000000E+00 0.  1.
</event>
<event>
12    1  0.8313893E-002  0.3724742E+03  0.7818608E-02  0.1053792E+00
         21   -1    0    0  503  502  0.00000000000E+00  0.00000000000E+00  0.92278347098E+02  0.92278347098E+02  0.00000000000E+00 0. -1.
         21   -1    0    0  501  503 -0.00000000000E+00 -0.00000000000E+00 -0.15198787446E+04  0.15198787446E+04  0.00000000000E+00 0.  1.
          6    2    1    2  501    0  0.31166674947E+03  0.10930543989E+03 -0.62527276373E+03  0.72758565191E+03  0.17126298455E+03 0.  0.
         24    2    3    3    0    0  0.87243687263E+02  0.53518517661E+02 -0.32266031821E+03  0.34669948292E+03  0.74934356654E+02 0.  0.
         -6    2    1    2    0  502 -0.31166674947E+03 -0.10930543989E+03 -0.80232763381E+03  0.88457143983E+03  0.17220092417E+03 0.  0.
        -24    2    5    5    0    0 -0.99934145657E+02 -0.94741631306E+02 -0.31953149738E+03  0.35716552463E+03  0.80647529406E+02 0.  0.
          5    1    3    3  501    0  0.22442306220E+03  0.55786922228E+02 -0.30261244552E+03  0.38088616899E+03  0.47000000000E+01 0. -1.
        -11    1    4    4    0    0  0.32220187163E+02  0.59676557024E+02 -0.13554866584E+03  0.15156804653E+03  0.00000000000E+00 0.  1.
         12    1    4    4    0    0  0.55023500100E+02 -0.61580393632E+01 -0.18711165237E+03  0.19513143638E+03  0.00000000000E+00 0. -1.
         -5    1    5    5    0  502 -0.21173260381E+03 -0.14563808583E+02 -0.48279613643E+03  0.52740591520E+03  0.47000000000E+01 0.  1.
         11    1    6    6    0    0 -0.59827657684E+02 -0.95752929985E+02 -0.27473068440E+03  0.29702680211E+03  0.00000000000E+00 0. -1.
        -12    1    6    6    0    0 -0.40106487973E+02  0.10112986792E+01 -0.44800812982E+02  0.60138722521E+02  0.00000000000E+00 0.  1.
</event>
<event>
12    1  0.8313893E-002  0.1892654E+03  0.7818608E-02  0.1159195E+00
         21   -1    0    0  503  502  0.00000000000E+00  0.00000000000E+00  0.15003449640E+03  0.15003449640E+03  0.00000000000E+00 0.  1.
         21   -1    0    0  501  503 -0.00000000000E+00 -0.00000000000E+00 -0.41484249113E+03  0.41484249113E+03  0.00000000000E+00 0.  1.
          6    2    1    2  501    0  0.27326847959E+02  0.77385902289E+02 -0.31655710591E+03  0.36866444190E+03  0.17020497915E+03 0.  0.
         24    2    3    3    0    0 -0.30333219140E+02  0.67219988915E+02 -0.27789134306E+03  0.29834260781E+03  0.79662299716E+02 0.  0.
         -6    2    1    2    0  502 -0.27326847959E+02 -0.77385902289E+02  0.51749111180E+02  0.19621254563E+03  0.17054635165E+03 0.  0.
        -24    2    5    5    0    0  0.27356777293E+02 -0.28717598866E+02  0.77269084814E+02  0.11854490962E+03  0.80680173406E+02 0.  0.
          5    1    3    3  501    0  0.57660067098E+02  0.10165913374E+02 -0.38665762848E+02  0.70321834086E+02  0.47000000000E+01 0. -1.
        -11    1    4    4    0    0  0.15735911451E+02  0.34858231500E+02 -0.19110532077E+03  0.19489473784E+03  0.00000000000E+00 0.  1.
         12    1    4    4    0    0 -0.46069130591E+02  0.32361757415E+02 -0.86786022293E+02  0.10344786997E+03  0.00000000000E+00 0. -1.
         -5    1    5    5    0  502 -0.54683625251E+02 -0.48668303423E+02 -0.25519973634E+02  0.77667636008E+02  0.47000000000E+01 0.  1.
         11    1    6    6    0    0  0.24846541517E+02  0.25499307240E+02  0.29267051519E+02  0.46088237108E+02  0.00000000000E+00 0. -1.
        -12    1    6    6    0    0  0.25102357762E+01 -0.54216906107E+02  0.48002033295E+02  0.72456672515E+02  0.00000000000E+00 0.  1.
</event>
<event>
12    1  0.8313893E-002  0.1779749E+03  0.7818608E-02  0.1169828E+00
         21   -1    0    0  503  502  0.00000000000E+00  0.00000000000E+00  0.41455350941E+03  0.41455350941E+03  0.00000000000E+00 0. -1.
         21   -1    0    0  501  503 -0.00000000000E+00 -0.00000000000E+00 -0.81877110634E+02  0.81877110634E+02  0.00000000000E+00 0.  1.
          6    2    1    2  501    0  0.22684804396E+02 -0.38635598346E+02  0.10176079809E+03  0.20501300368E+03  0.17224332161E+03 0.  0.
         24    2    3    3    0    0 -0.32573207185E+02 -0.56921386101E+02  0.20647654645E+02  0.10506676855E+03  0.79445844377E+02 0.  0.
         -6    2    1    2    0  502 -0.22684804396E+02  0.38635598346E+02  0.23091560068E+03  0.29141761636E+03  0.17203169091E+03 0.  0.
        -24    2    5    5    0    0  0.55422773008E+01  0.89183128666E+02  0.15607652517E+03  0.19668220489E+03  0.79621986507E+02 0.  0.
          5    1    3    3  501    0  0.55258011580E+02  0.18285787755E+02  0.81113143449E+02  0.99946235135E+02  0.47000000000E+01 0. -1.
        -11    1    4    4    0    0 -0.56456888802E+02 -0.29515490624E+02  0.25037325865E+02  0.68450070609E+02  0.00000000000E+00 0.  1.
         12    1    4    4    0    0  0.23883681617E+02 -0.27405895477E+02 -0.43896712204E+01  0.36616697938E+02  0.00000000000E+00 0. -1.
         -5    1    5    5    0  502 -0.28227081696E+02 -0.50547530320E+02  0.74839075507E+02  0.94735411464E+02  0.47000000000E+01 0.  1.
         11    1    6    6    0    0  0.21768260408E+02  0.77185530713E+02  0.64521235799E+02  0.10292936015E+03  0.00000000000E+00 0. -1.
        -12    1    6    6    0    0 -0.16225983107E+02  0.11997597952E+02  0.91555289373E+02  0.93752844738E+02  0.00000000000E+00 0.  1.
</event>
<event>
12    1  0.8313893E-002  0.1949503E+03  0.7818608E-02  0.1154713E+00
         21   -1    0    0  501  502  0.00000000000E+00  0.00000000000E+00  0.62340337063E+03  0.62340337063E+03  0.00000000000E+00 0.  1.
         21   -1    0    0  502  503 -0.00000000000E+00 -0.00000000000E+00 -0.64371543475E+02  0.64371543475E+02  0.00000000000E+00 0.  1.
         -6    2    1    2    0  503 -0.84586649834E+02  0.16443382298E+01  0.18850224566E+03  0.26908912591E+03  0.17238983695E+03 0.  0.
        -24    2    3    3    0    0 -0.38550887464E+02  0.41521749518E+02  0.18088706888E+03  0.20752955910E+03  0.84487629883E+02 0.  0.
          6    2    1    2  501    0  0.84586649834E+02 -0.16443382298E+01  0.37052958150E+03  0.41868578820E+03  0.17563602506E+03 0.  0.
         24    2    5    5    0    0  0.41027739165E+02 -0.66376023542E+01  0.36304912743E+03  0.37396041980E+03  0.79463158150E+02 0.  0.
          5    1    5    5  501    0  0.43558910669E+02  0.49932641244E+01  0.74804540638E+01  0.44725368398E+02  0.47000000000E+01 0. -1.
        -11    1    6    6    0    0  0.59167293526E+02 -0.11690246086E+02  0.17767096705E+03  0.18762836409E+03  0.00000000000E+00 0.  1.
         12    1    6    6    0    0 -0.18139554361E+02  0.50526437322E+01  0.18537816038E+03  0.18633205572E+03  0.00000000000E+00 0. -1.
         -5    1    3    3    0  503 -0.46035762370E+02 -0.39877411288E+02  0.76151767755E+01  0.61559566806E+02  0.47000000000E+01 0.  1.
         11    1    4    4    0    0  0.17538210557E+02  0.49029136553E+01  0.10388718364E+03  0.10547120136E+03  0.00000000000E+00 0. -1.
        -12    1    4    4    0    0 -0.56089098021E+02  0.36618835863E+02  0.76999885246E+02  0.10205835774E+03  0.00000000000E+00 0.  1.
</event>
<event>
12    1  0.8313893E-002  0.1860686E+03  0.7818608E-02  0.1163268E+00
         21   -1    0    0  501  502  0.00000000000E+00  0.00000000000E+00  0.39187315416E+02  0.39187315416E+02  0.00000000000E+00 0. -1.
         21   -1    0    0  502  503 -0.00000000000E+00 -0.00000000000E+00 -0.19337933166E+04  0.19337933166E+04  0.00000000000E+00 0. -1.
         -6    2    1    2    0  503  0.96249432206E+01 -0.55656993610E+02 -0.16885580632E+04  0.16987789273E+04  0.17728838297E+03 0.  0.
        -24    2    3    3    0    0  0.48963473509E+02 -0.72086764176E+02 -0.15313885335E+04  0.15358623585E+04  0.78284229193E+02 0.  0.
          6    2    1    2  501    0 -0.96249432206E+01  0.55656993610E+02 -0.20604793800E+03  0.27420170469E+03  0.17187344655E+03 0.  0.
         24    2    5    5    0    0 -0.34988669537E+02  0.96723896073E+02 -0.13791300962E+03  0.19056996695E+03  0.81958495684E+02 0.  0.
          5    1    5    5  501    0  0.25363726316E+02 -0.41066902463E+02 -0.68134928382E+02  0.83631737733E+02  0.47000000000E+01 0. -1.
        -13    1    6    6    0    0  0.19044766255E+02  0.66486752498E+02 -0.64977085713E+02  0.94895800999E+02  0.00000000000E+00 0.  1.
         14    1    6    6    0    0 -0.54033435792E+02  0.30237143575E+02 -0.72935923908E+02  0.95674165956E+02  0.00000000000E+00 0. -1.
         -5    1    3    3    0  503 -0.39338530288E+02  0.16429770566E+02 -0.15716952971E+03  0.16291656882E+03  0.47000000000E+01 0.  1.
         13    1    4    4    0    0  0.37969651120E+02  0.17483097982E+01 -0.73523533701E+03  0.73621719064E+03  0.00000000000E+00 0. -1.
        -14    1    4    4    0    0  0.10993822389E+02 -0.73835073974E+02 -0.79615319647E+03  0.79964516789E+03  0.00000000000E+00 0.  1.
</event>
<event>
12    1  0.8313893E-002  0.2490867E+03  0.7818608E-02  0.1113945E+00
         21   -1    0    0  501  502  0.00000000000E+00  0.00000000000E+00  0.17284516405E+03  0.17284516405E+03  0.00000000000E+00 0. -1.
         21   -1    0    0  502  503 -0.00000000000E+00 -0.00000000000E+00 -0.55764290623E+03  0.55764290623E+03  0.00000000000E+00 0.  1.
         -6    2    1    2    0  503 -0.12506483951E+03  0.12958089100E+03 -0.41062437687E+03  0.48006600090E+03  0.17151840993E+03 0.  0.
        -24    2    3    3    0    0 -0.11383089501E+03  0.13327020533E+03 -0.42150009220E+03  0.46332731119E+03  0.79318656553E+02 0.  0.
          6    2    1    2  501    0  0.12506483951E+03 -0.12958089100E+03  0.25826634693E+02  0.25042206938E+03  0.17208072635E+03 0.  0.
         24    2    5    5    0    0  0.46446002790E+02 -0.13847802620E+02 -0.36957208033E+02  0.96997918285E+02  0.75457061389E+02 0.  0.
          5    1    5    5  501    0  0.78618836716E+02 -0.11573308838E+03  0.62783842726E+02  0.15342415109E+03  0.47000000000E+01 0. -1.
        -13    1    6    6    0    0 -0.65127670550E+01  0.22050557599E+02 -0.20813214426E+02  0.31013434506E+02  0.00000000000E+00 0.  1.
         14    1    6    6    0    0  0.52958769845E+02 -0.35898360219E+02 -0.16143993608E+02  0.65984483779E+02  0.00000000000E+00 0. -1.
         -5    1    3    3    0  503 -0.11233944498E+02 -0.36893143331E+01  0.10875715333E+02  0.16738689711E+02  0.47000000000E+01 0.  1.
         13    1    4    4    0    0 -0.36357031091E+02  0.38713975356E+02 -0.52794457032E+02  0.74885648097E+02  0.00000000000E+00 0. -1.
        -14    1    4    4    0    0 -0.77473863917E+02  0.94556229973E+02 -0.36870563517E+03  0.38844166309E+03  0.00000000000E+00 0.  1.
</event>
<event>
12    1  0.8313893E-002  0.2634796E+03  0.7818608E-02  0.1105095E+00
         21   -1    0    0  501  502  0.00000000000E+00  0.00000000000E+00  0.25345332633E+03  0.25345332633E+03  0.00000000000E+00 0. -1.
         21   -1    0    0  502  503 -0.00000000000E+00 -0.00000000000E+00 -0.27528094033E+03  0.27528094033E+03  0.00000000000E+00 0. -1.
         -6    2    1    2    0  503  0.19467752416E+03  0.30542472457E+02 -0.30781005185E+02  0.26527153140E+03  0.17489806761E+03 0.  0.
        -24    2    3    3    0    0  0.97148570146E+02  0.43922465711E+02 -0.82378471051E+02  0.15402716267E+03  0.74639980376E+02 0.  0.
          6    2    1    2  501    0 -0.19467752416E+03 -0.30542472457E+02  0.89533911778E+01  0.26346273526E+03  0.17464326102E+03 0.  0.
         24    2    5    5    0    0 -0.20295762039E+03  0.27288492206E+01 -0.18918120668E+02  0.21902792894E+03  0.80100537289E+02 0.  0.
          5    1    5    5  501    0  0.82800962294E+01 -0.33271321678E+02  0.27871511846E+02  0.44434806316E+02  0.47000000000E+01 0. -1.
        -11    1    6    6    0    0 -0.47367196857E+02  0.35310661547E+02 -0.89035289427E+01  0.59747527017E+02  0.00000000000E+00 0.  1.
         12    1    6    6    0    0 -0.15559042353E+03 -0.32581812326E+02 -0.10014591725E+02  0.15928040193E+03  0.00000000000E+00 0. -1.
         -5    1    3    3    0  503  0.97528954017E+02 -0.13379993254E+02  0.51597465866E+02  0.11124436873E+03  0.47000000000E+01 0.  1.
         13    1    4    4    0    0  0.88804371388E+02  0.10147844276E+02 -0.36735295134E+02  0.96636830607E+02  0.00000000000E+00 0. -1.
        -14    1    4    4    0    0  0.83441987576E+01  0.33774621435E+02 -0.45643175917E+02  0.57390332059E+02  0.00000000000E+00 0.  1.
</event>
<event>
12    1  0.8313893E-002  0.3295903E+03  0.7818608E-02  0.1071584E+00
         21   -1    0    0  503  502  0.00000000000E+00  0.00000000000E+00  0.41191129496E+03  0.41191129496E+03  0.00000000000E+00 0. -1.
         21   -1    0    0  501  503 -0.00000000000E+00 -0.00000000000E+00 -0.35242942715E+03  0.35242942715E+03  0.00000000000E+00 0.  1.
          6    2    1    2  501    0 -0.19601396275E+03 -0.19881151275E+03  0.22344375971E+03  0.39621947193E+03  0.17063195770E+03 0.  0.
         24    2    3    3    0    0 -0.14169371748E+03 -0.96849908383E+02  0.67116950286E+02  0.20177920049E+03  0.82177529831E+02 0.  0.
         -6    2    1    2    0  502  0.19601396275E+03  0.19881151275E+03 -0.16396189190E+03  0.36812125018E+03  0.17516352831E+03 0.  0.
        -24    2    5    5    0    0  0.13325701778E+03  0.19695081603E+03 -0.17237299870E+03  0.30460170161E+03  0.80763167476E+02 0.  0.
          5    1    3    3  501    0 -0.54320245271E+02 -0.10196160436E+03  0.15632680942E+03  0.19444027143E+03  0.47000000000E+01 0. -1.
        -11    1    4    4    0    0 -0.85435574676E+01 -0.31129922928E+02 -0.10866219699E+02  0.34060816289E+02  0.00000000000E+00 0.  1.
         12    1    4    4    0    0 -0.13315016001E+03 -0.65719985455E+02  0.77983169985E+02  0.16771838420E+03  0.00000000000E+00 0. -1.
         -5    1    5    5    0  502  0.62756944966E+02  0.18606967190E+01  0.84111067996E+01  0.63519548576E+02  0.47000000000E+01 0.  1.
         11    1    6    6    0    0  0.11805379594E+03  0.10682024915E+03 -0.99931510041E+02  0.18797226142E+03  0.00000000000E+00 0. -1.
        -12    1    6    6    0    0  0.15203221844E+02  0.90130566877E+02 -0.72441488656E+02  0.11662944019E+03  0.00000000000E+00 0.  1.
</event>
<event>
12    1  0.8313893E-002  0.3646422E+03  0.7818608E-02  0.1057688E+00
         21   -1    0    0  503  502  0.00000000000E+00  0.00000000000E+00  0.13216237654E+04  0.13216237654E+04  0.00000000000E+00 0. -1.
         21   -1    0    0  501  503 -0.00000000000E+00 -0.00000000000E+00 -0.17299132375E+03  0.17299132375E+03  0.00000000000E+00 0.  1.
          6    2    1    2  501    0 -0.19101225319E+03 -0.24535516493E+03  0.78170169267E+02  0.36375108791E+03  0.17181222532E+03 0.  0.
         24    2    3    3    0    0 -0.19991933112E+03 -0.18164077418E+03  0.30212100284E+02  0.28337120232E+03  0.80158327722E+02 0.  0.
         -6    2    1    2    0  502  0.19101225319E+03  0.24535516493E+03  0.10704622724E+04  0.11308640012E+04  0.19047066667E+03 0.  0.
        -24    2    5    5    0    0  0.16481364417E+03  0.85499244656E+02  0.62501041433E+03  0.65684951812E+03  0.79621688549E+02 0.  0.
          5    1    3    3  501    0  0.89070779352E+01 -0.63714390753E+02  0.47958068983E+02  0.80379885586E+02  0.47000000000E+01 0. -1.
        -11    1    4    4    0    0 -0.13283889122E+03 -0.15826249655E+03  0.43368644031E+02  0.21112562166E+03  0.00000000000E+00 0.  1.
         12    1    4    4    0    0 -0.67080439901E+02 -0.23378277620E+02 -0.13156543748E+02  0.72245580662E+02  0.00000000000E+00 0. -1.
         -5    1    5    5    0  502  0.26198609018E+02  0.15985592027E+03  0.44545185803E+03  0.47401448310E+03  0.47000000000E+01 0.  1.
         13    1    6    6    0    0 -0.11348067941E+01  0.89594464396E+01  0.11011464754E+03  0.11048436573E+03  0.00000000000E+00 0. -1.
        -14    1    6    6    0    0  0.16594845096E+03  0.76539798216E+02  0.51489576679E+03  0.54636515239E+03  0.00000000000E+00 0.  1.
</event>
<event>
12    1  0.8313893E-002  0.1765532E+03  0.7818608E-02  0.1172750E+00
         21   -1    0    0  501  502  0.00000000000E+00  0.00000000000E+00  0.59044317812E+03  0.59044317812E+03  0.00000000000E+00 0.  1.
         21   -1    0    0  502  503 -0.00000000000E+00 -0.00000000000E+00 -0.50954707173E+02  0.50954707173E+02  0.00000000000E+00 0.  1.
         -6    2    1    2    0  503 -0.23161536287E+02  0.32684910336E+02  0.26554060362E+03  0.31548615500E+03  0.16557458046E+03 0.  0.
        -24    2    3    3    0    0  0.17698599861E+02  0.68242618489E+02  0.12964850678E+03  0.16912135964E+03  0.82601474325E+02 0.  0.
          6    2    1    2  501    0  0.23161536287E+02 -0.32684910336E+02  0.27394786732E+03  0.32591173030E+03  0.17194842775E+03 0.  0.
         24    2    5    5    0    0  0.29986452259E+02  0.42168133596E+02  0.19580781199E+03  0.21738746614E+03  0.78989064984E+02 0.  0.
          5    1    5    5  501    0 -0.68249159720E+01 -0.74853043932E+02  0.78140055335E+02  0.10852426416E+03  0.47000000000E+01 0. -1.
        -13    1    6    6    0    0  0.47789385080E+02  0.17237856883E+02  0.62190374231E+02  0.80303248273E+02  0.00000000000E+00 0.  1.
         14    1    6    6    0    0 -0.17802932821E+02  0.24930276713E+02  0.13361743776E+03  0.13708421786E+03  0.00000000000E+00 0. -1.
         -5    1    3    3    0  503 -0.40860136148E+02 -0.35557708153E+02  0.13589209684E+03  0.14636479536E+03  0.47000000000E+01 0.  1.
         13    1    4    4    0    0 -0.22030015442E+02  0.63824832355E+02  0.92731768411E+02  0.11470881256E+03  0.00000000000E+00 0. -1.
        -14    1    4    4    0    0  0.39728615303E+02  0.44177861333E+01  0.36916738370E+02  0.54412547083E+02  0.00000000000E+00 0.  1.
</event>
<event>
12    1  0.8313893E-002  0.3076210E+03  0.7818608E-02  0.1081549E+00
         21   -1    0    0  503  502  0.00000000000E+00  0.00000000000E+00  0.24605087774E+03  0.24605087774E+03  0.00000000000E+00 0.  1.
         21   -1    0    0  501  503 -0.00000000000E+00 -0.00000000000E+00 -0.54565589379E+03  0.54565589379E+03  0.00000000000E+00 0. -1.
          6    2    1    2  501    0 -0.21066915610E+03 -0.14392930783E+03 -0.36517702618E+03  0.47717475148E+03  0.17100977754E+03 0.  0.
         24    2    3    3    0    0 -0.49382116960E+02 -0.45274846423E+02 -0.77118512977E+02  0.13257932380E+03  0.84508028378E+02 0.  0.
         -6    2    1    2    0  502  0.21066915610E+03  0.14392930783E+03  0.65572010126E+02  0.31453202006E+03  0.17185332160E+03 0.  0.
        -24    2    5    5    0    0  0.11258308670E+03  0.12209602723E+03 -0.16343444333E+02  0.18480229782E+03  0.79387592420E+02 0.  0.
          5    1    3    3  501    0 -0.16128703914E+03 -0.98654461403E+02 -0.28805851320E+03  0.34459542768E+03  0.47000000000E+01 0. -1.
        -13    1    4    4    0    0  0.16415647925E+02  0.12195551255E+02 -0.13414080914E+02  0.24456952671E+02  0.00000000000E+00 0.  1.
         14    1    4    4    0    0 -0.65797764885E+02 -0.57470397678E+02 -0.63704432063E+02  0.10812237112E+03  0.00000000000E+00 0. -1.
         -5    1    5    5    0  502  0.98086069405E+02  0.21833280595E+02  0.81915454459E+02  0.12972972224E+03  0.47000000000E+01 0.  1.
         13    1    6    6    0    0  0.19529466776E+02  0.53614624668E+02 -0.36195763448E+02  0.67572637528E+02  0.00000000000E+00 0. -1.
        -14    1    6    6    0    0  0.93053619923E+02  0.68481402563E+02  0.19852319115E+02  0.11722966029E+03  0.00000000000E+00 0.  1.
</event>
<event>
12    1  0.8313893E-002  0.1796964E+03  0.7818608E-02  0.1168505E+00
         21   -1    0    0  503  502  0.00000000000E+00  0.00000000000E+00  0.36778123821E+03  0.36778123821E+03  0.00000000000E+00 0. -1.
         21   -1    0    0  501  503 -0.00000000000E+00 -0.00000000000E+00 -0.98402115412E+02  0.98402115412E+02  0.00000000000E+00 0. -1.
          6    2    1    2  501    0  0.46547304238E+02  0.19878248324E+01  0.55845753575E+02  0.18817424999E+03  0.17355171330E+03 0.  0.
         24    2    3    3    0    0  0.25810590790E+02  0.42146939468E+02  0.90818362914E+02  0.13083369561E+03  0.80168134322E+02 0.  0.
         -6    2    1    2    0  502 -0.46547304238E+02 -0.19878248324E+01  0.21353336922E+03  0.27800910363E+03  0.17181955346E+03 0.  0.
        -24    2    5    5    0    0 -0.53415733959E+02 -0.27067682441E+02  0.22735817210E+03  0.24818646526E+03  0.79491402389E+02 0.  0.
          5    1    3    3  501    0  0.20736713448E+02 -0.40159114636E+02 -0.34972609339E+02  0.57340554383E+02  0.47000000000E+01 0. -1.
        -11    1    4    4    0    0 -0.57754298013E+01 -0.11858871275E+02 -0.68360065091E+01  0.14856628228E+02  0.00000000000E+00 0.  1.
         12    1    4    4    0    0  0.31586020591E+02  0.54005810743E+02  0.97654369423E+02  0.11597706738E+03  0.00000000000E+00 0. -1.
         -5    1    5    5    0  502  0.68684297219E+01  0.25079857609E+02 -0.13824802876E+02  0.29822638365E+02  0.47000000000E+01 0.  1.
         13    1    6    6    0    0  0.24891156473E+01 -0.27264233069E+02  0.15149807399E+03  0.15395194226E+03  0.00000000000E+00 0. -1.
        -14    1    6    6    0    0 -0.55904849607E+02  0.19655062852E+00  0.75860098103E+02  0.94234523005E+02  0.00000000000E+00 0.  1.
</event>
<event>
12    1  0.8313893E-002  0.2413313E+03  0.7818608E-02  0.1119339E+00
         21   -1    0    0  503  502  0.00000000000E+00  0.00000000000E+00  0.45747694702E+03  0.45747694702E+03  0.00000000000E+00 0.  1.
         21   -1    0    0  501  503 -0.00000000000E+00 -0.00000000000E+00 -0.30127275130E+03  0.30127275130E+03  0.00000000000E+00 0.  1.
          6    2    1    2  501    0 -0.78378730107E+02  0.15010324232E+03 -0.21147793807E+03  0.31894186657E+03  0.16830563647E+03 0.  0.
         24    2    3    3    0    0 -0.25199336314E+02  0.64821148216E+02 -0.18781462529E+03  0.21558265860E+03  0.79779454819E+02 0.  0.
         -6    2    1    2    0  502  0.78378730107E+02 -0.15010324232E+03  0.36768213380E+03  0.43980783175E+03  0.17194932006E+03 0.  0.
        -24    2    5    5    0    0 -0.11614596553E+02 -0.10485411390E+03  0.26385733326E+03  0.29507372494E+03  0.79489161430E+02 0.  0.
          5    1    3    3  501    0 -0.53179393793E+02  0.85282094103E+02 -0.23663312786E+02  0.10335920796E+03  0.47000000000E+01 0. -1.
        -13    1    4    4    0    0 -0.71358264045E+01  0.78550680394E+02 -0.11604808481E+03  0.14031495785E+03  0.00000000000E+00 0.  1.
         14    1    4    4    0    0 -0.18063509909E+02 -0.13729532179E+02 -0.71766540476E+02  0.75267700749E+02  0.00000000000E+00 0. -1.
         -5    1    5    5    0  502  0.89993326660E+02 -0.45249128422E+02  0.10382480054E+03  0.14473410681E+03  0.47000000000E+01 0.  1.
         13    1    6    6    0    0  0.61904832202E+01  0.12031769533E+02  0.21304594767E+02  0.25238290726E+02  0.00000000000E+00 0. -1.
        -14    1    6    6    0    0 -0.17805079773E+02 -0.11688588343E+03  0.24255273849E+03  0.26983543422E+03  0.00000000000E+00 0.  1.
</event>
<event>
12    1  0.8313893E-002  0.2931617E+03  0.7818608E-02  0.1088944E+00
         21   -1    0    0  503  502  0.00000000000E+00  0.00000000000E+00  0.20831637739E+03  0.20831637739E+03  0.00000000000E+00 0. -1.
         21   -1    0    0  501  503 -0.00000000000E+00 -0.00000000000E+00 -0.45700763679E+03  0.45700763679E+03  0.00000000000E+00 0.  1.
          6    2    1    2  501    0 -0.15361927236E+03  0.17898629652E+03 -0.23066965857E+03  0.37160891529E+03  0.17102549328E+03 0.  0.
         24    2    3    3    0    0 -0.17320008505E+03  0.11176938647E+03 -0.17654625963E+03  0.28299202336E+03  0.80157584043E+02 0.  0.
         -6    2    1    2    0  502  0.15361927236E+03 -0.17898629652E+03 -0.18021600825E+02  0.29371509890E+03  0.17409424471E+03 0.  0.
        -24    2    5    5    0    0  0.13886522830E+03 -0.16853520931E+03 -0.66307232212E+02  0.24194156088E+03  0.80320616474E+02 0.  0.
          5    1    3    3  501    0  0.19580812688E+02  0.67216910051E+02 -0.54123398940E+02  0.88616891929E+02  0.47000000000E+01 0. -1.
        -13    1    4    4    0    0 -0.10088515253E+03  0.92420225272E+02 -0.15130692747E+03  0.20399288797E+03  0.00000000000E+00 0.  1.
         14    1    4    4    0    0 -0.72314932520E+02  0.19349161198E+02 -0.25239332164E+02  0.78999135391E+02  0.00000000000E+00 0. -1.
         -5    1    5    5    0  502  0.14754044064E+02 -0.10451087209E+02  0.48285631387E+02  0.51773538015E+02  0.47000000000E+01 0.  1.
         13    1    6    6    0    0  0.13680757848E+03 -0.12778696895E+03 -0.34847576124E+02  0.19042105063E+03  0.00000000000E+00 0. -1.
        -14    1    6    6    0    0  0.20576498230E+01 -0.40748240363E+02 -0.31459656089E+02  0.51520510253E+02  0.00000000000E+00 0.  1.
</event>
<event>
12    1  0.8313893E-002  0.1901523E+03  0.7818608E-02  0.1158867E+00
         21   -1    0    0  501  502  0.00000000000E+00  0.00000000000E+00  0.62268600182E+02  0.62268600182E+02  0.00000000000E+00 0.  1.
         21   -1    0    0  502  503 -0.00000000000E+00 -0.00000000000E+00 -0.67002694655E+03  0.67002694655E+03  0.00000000000E+00 0. -1.
         -6    2    1    2    0  503  0.63112864394E+02 -0.41160451719E+02 -0.44457365879E+03  0.48353244852E+03  0.17458658094E+03 0.  0.
        -24    2    3    3    0    0  0.94510137139E+02  0.67993423441E+01 -0.19386146888E+03  0.22630759989E+03  0.68223629152E+02 0.  0.
          6    2    1    2  501    0 -0.63112864394E+02  0.41160451719E+02 -0.16318468758E+03  0.24876309821E+03  0.17197796468E+03 0.  0.
         24    2    5    5    0    0  0.29261986715E+02 -0.18174703347E+01 -0.59774920248E+02  0.10351887326E+03  0.79268839819E+02 0.  0.
          5    1    5    5  501    0 -0.92374851109E+02  0.42977922054E+02 -0.10340976733E+03  0.14524422495E+03  0.47000000000E+01 0. -1.
        -11    1    6    6    0    0 -0.24938771528E+02 -0.12177708136E+02 -0.10942002100E+02  0.29832303142E+02  0.00000000000E+00 0.  1.
         12    1    6    6    0    0  0.54200758244E+02  0.10360237802E+02 -0.48832918148E+02  0.73686570122E+02  0.00000000000E+00 0. -1.
         -5    1    3    3    0  503 -0.31397272745E+02 -0.47959794063E+02 -0.25071218991E+03  0.25722484863E+03  0.47000000000E+01 0.  1.
         11    1    4    4    0    0  0.69977609130E+02  0.19304972276E+02 -0.75308832693E+02  0.10459908229E+03  0.00000000000E+00 0. -1.
        -12    1    4    4    0    0  0.24532528008E+02 -0.12505629932E+02 -0.11855263618E+03  0.12170851760E+03  0.00000000000E+00 0.  1.
</event>
<event>
12    1  0.8313893E-002  0.1925452E+03  0.7818608E-02  0.1156442E+00
         21   -1    0    0  503  502  0.00000000000E+00  0.00000000000E+00  0.23309739854E+04  0.23309739854E+04  0.00000000000E+00 0. -1.
         21   -1    0    0  501  503 -0.00000000000E+00 -0.00000000000E+00 -0.16704421896E+02  0.16704421896E+02  0.00000000000E+00 0. -1.
          6    2    1    2  501    0 -0.26352014097E+02  0.78361339476E+02  0.88214437627E+03  0.90266760624E+03  0.17261279961E+03 0.  0.
         24    2    3    3    0    0 -0.51535760529E+02 -0.99899570589E+01  0.40218874730E+03  0.41397581332E+03  0.82851986711E+02 0.  0.
         -6    2    1    2    0  502  0.26352014097E+02 -0.78361339476E+02  0.14321251872E+04  0.14450108011E+04  0.17389288399E+03 0.  0.
        -24    2    5    5    0    0  0.55878152868E+02 -0.11193231658E+03  0.11142954341E+04  0.11240175841E+04  0.78166510677E+02 0.  0.
          5    1    3    3  501    0  0.25183746431E+02  0.88351296535E+02  0.47995562897E+03  0.48869179292E+03  0.47000000000E+01 0. -1.
        -13    1    4    4    0    0 -0.12170849398E+02 -0.31583223146E+02  0.30552005989E+03  0.30738922648E+03  0.00000000000E+00 0.  1.
         14    1    4    4    0    0 -0.39364911131E+02  0.21593266087E+02  0.96668687410E+02  0.10658658684E+03  0.00000000000E+00 0. -1.
         -5    1    5    5    0  502 -0.29526138770E+02  0.33570977100E+02  0.31782975313E+03  0.32099321699E+03  0.47000000000E+01 0.  1.
         13    1    6    6    0    0  0.20054619808E+02 -0.82304900721E+02  0.43740868388E+03  0.44553635226E+03  0.00000000000E+00 0. -1.
        -14    1    6    6    0    0  0.35823533059E+02 -0.29627415855E+02  0.67688675022E+03  0.67848123181E+03  0.00000000000E+00 0.  1.
</event>
<event>
12    1  0.8313893E-002  0.1743901E+03  0.7818608E-02  0.1173641E+00
         21   -1    0    0  503  502  0.00000000000E+00  0.00000000000E+00  0.33338380411E+03  0.33338380411E+03  0.00000000000E+00 0. -1.
         21   -1    0    0  501  503 -0.00000000000E+00 -0.00000000000E+00 -0.10277730108E+03  0.10277730108E+03  0.00000000000E+00 0. -1.
          6    2    1    2  501    0 -0.22449098580E+02 -0.65944983488E+01  0.39936307471E+02  0.17776792699E+03  0.17163646983E+03 0.  0.
         24    2    3    3    0    0 -0.74854044966E+02 -0.25778348642E+02  0.79910730916E+01  0.11329400577E+03  0.80647524377E+02 0.  0.
         -6    2    1    2    0  502  0.22449098580E+02  0.65944983488E+01  0.19067019556E+03  0.25839317819E+03  0.17281337224E+03 0.  0.
        -24    2    5    5    0    0  0.33804748410E+02 -0.57084245418E+02  0.15528267413E+03  0.18451287051E+03  0.74370144603E+02 0.  0.
          5    1    3    3  501    0  0.52404946385E+02  0.19183850293E+02  0.31945234380E+02  0.64473921218E+02  0.47000000000E+01 0. -1.
        -13    1    4    4    0    0 -0.20567928753E+02 -0.49292476893E+02 -0.11965990145E+01  0.53424898882E+02  0.00000000000E+00 0.  1.
         14    1    4    4    0    0 -0.54286116213E+02  0.23514128251E+02  0.91876721061E+01  0.59869106888E+02  0.00000000000E+00 0. -1.
         -5    1    5    5    0  502 -0.11355649830E+02  0.63678743767E+02  0.35387521434E+02  0.73880307688E+02  0.47000000000E+01 0.  1.
         13    1    6    6    0    0  0.31411345194E+02  0.50404824715E+01  0.26104502274E+02  0.41152449616E+02  0.00000000000E+00 0. -1.
        -14    1    6    6    0    0  0.23934032158E+01 -0.62124727890E+02  0.12917817185E+03  0.14336042089E+03  0.00000000000E+00 0.  1.
</event>
<event>
12    1  0.8313893E-002  0.2097080E+03  0.7818608E-02  0.1142226E+00
         21   -1    0    0  503  502  0.00000000000E+00  0.00000000000E+00  0.15481007203E+03  0.15481007203E+03  0.00000000000E+00 0. -1.
         21   -1    0    0  501  503 -0.00000000000E+00 -0.00000000000E+00 -0.38965767425E+03  0.38965767425E+03  0.00000000000E+00 0. -1.
          6    2    1    2  501    0 -0.11880125865E+03 -0.21759236931E+02 -0.26063004552E+03  0.33318076179E+03  0.16880223916E+03 0.  0.
         24    2    3    3    0    0 -0.49769600794E+01 -0.31464936692E+02 -0.15665506795E+03  0.17863931908E+03  0.79726931674E+02 0.  0.
         -6    2    1    2    0  502  0.11880125865E+03  0.21759236931E+02  0.25782443298E+02  0.21128698449E+03  0.17143585385E+03 0.  0.
        -24    2    5    5    0    0  0.28605776193E+02 -0.26543850587E+02 -0.32642429538E+02  0.93371891800E+02  0.78293777125E+02 0.  0.
          5    1    3    3  501    0 -0.11382429857E+03  0.97056997617E+01 -0.10397497757E+03  0.15454144270E+03  0.47000000000E+01 0. -1.
        -13    1    4    4    0    0  0.20694912882E+01 -0.42095983820E+02 -0.30953111393E+02  0.52291966427E+02  0.00000000000E+00 0.  1.
         14    1    4    4    0    0 -0.70464513676E+01  0.10631047128E+02 -0.12570195656E+03  0.12634735265E+03  0.00000000000E+00 0. -1.
         -5    1    5    5    0  502  0.90195482453E+02  0.48303087518E+02  0.58424872836E+02  0.11791509269E+03  0.47000000000E+01 0.  1.
         13    1    6    6    0    0  0.30995871781E+02 -0.27846550307E+02  0.16014425922E+02  0.44638954614E+02  0.00000000000E+00 0. -1.
        -14    1    6    6    0    0 -0.23900955880E+01  0.13026997196E+01 -0.48656855460E+02  0.48732937186E+02  0.00000000000E+00 0.  1.
</event>
<event>
12    1  0.8313893E-002  0.1862741E+03  0.7818608E-02  0.1162351E+00
         21   -1    0    0  503  502  0.00000000000E+00  0.00000000000E+00  0.10510939453E+04  0.10510939453E+04  0.00000000000E+00 0.  1.
         21   -1    0    0  501  503 -0.00000000000E+00 -0.00000000000E+00 -0.52023207957E+02  0.52023207957E+02  0.00000000000E+00 0.  1.
          6    2    1    2  501    0  0.31712577756E+02 -0.56362785749E+02  0.16112588974E+03  0.24471769810E+03  0.17246085995E+03 0.  0.
         24    2    3    3    0    0 -0.29914173849E+02  0.71813530307E+01  0.38419860174E+02  0.93342093139E+02  0.79310976966E+02 0.  0.
         -6    2    1    2    0  502 -0.31712577756E+02  0.56362785749E+02  0.83794484765E+03  0.85839945519E+03  0.17468716546E+03 0.  0.
        -24    2    5    5    0    0 -0.53323807046E+02 -0.13232906477E+02  0.27567555620E+03  0.29140787527E+03  0.76830978577E+02 0.  0.
          5    1    3    3  501    0  0.61626751605E+02 -0.63544138780E+02  0.12270602956E+03  0.15137560496E+03  0.47000000000E+01 0. -1.
        -13    1    4    4    0    0 -0.13017742537E+02 -0.33366604754E+02  0.33671761801E+02  0.49158717196E+02  0.00000000000E+00 0.  1.
         14    1    4    4    0    0 -0.16896431311E+02  0.40547957785E+02  0.47480983734E+01  0.44183375943E+02  0.00000000000E+00 0. -1.
         -5    1    5    5    0  502  0.21611229290E+02  0.69595692226E+02  0.56226929144E+03  0.56699157993E+03  0.47000000000E+01 0.  1.
         13    1    6    6    0    0 -0.17135814142E+02  0.21295359487E+02  0.29557759941E+02  0.40259031716E+02  0.00000000000E+00 0. -1.
        -14    1    6    6    0    0 -0.36187992904E+02 -0.34528265964E+02  0.24611779626E+03  0.25114884355E+03  0.00000000000E+00 0.  1.
</event>
<event>
12    1  0.8313893E-002  0.1861885E+03  0.7818608E-02  0.1162725E+00
         21   -1    0    0  501  502  0.00000000000E+00  0.00000000000E+00  0.26580326541E+03  0.26580326541E+03  0.00000000000E+00 0. -1.
         21   -1    0    0  502  503 -0.00000000000E+00 -0.00000000000E+00 -0.16369064117E+03  0.16369064117E+03  0.00000000000E+00 0. -1.
         -6    2    1    2    0  503 -0.60986623974E+02  0.12579956783E+02 -0.48722303570E+02  0.19245786292E+03  0.17546664218E+03 0.  0.
        -24    2    3    3    0    0 -0.57983472169E+02  0.58806974712E+02  0.13394230070E+02  0.11482726420E+03  0.78648279599E+02 0.  0.
          6    2    1    2  501    0  0.60986623974E+02 -0.12579956783E+02  0.15083492781E+03  0.23703604365E+03  0.17192232818E+03 0.  0.
         24    2    5    5    0    0 -0.10157195790E+02  0.36083276872E+02  0.79719138199E+02  0.12519196051E+03  0.88953439991E+02 0.  0.
          5    1    5    5  501    0  0.71143819763E+02 -0.48663233655E+02  0.71115789615E+02  0.11184408314E+03  0.47000000000E+01 0. -1.
        -13    1    6    6    0    0 -0.58108355655E+00 -0.12416304632E+02 -0.14312806795E+02  0.18956759141E+02  0.00000000000E+00 0.  1.
         14    1    6    6    0    0 -0.95761122331E+01  0.48499581504E+02  0.94031944994E+02  0.10623520137E+03  0.00000000000E+00 0. -1.
         -5    1    3    3    0  503 -0.30031518045E+01 -0.46227017928E+02 -0.62116533640E+02  0.77630598727E+02  0.47000000000E+01 0.  1.
         13    1    4    4    0    0 -0.57766979960E+00 -0.17669900820E+02 -0.26141584316E+01  0.17871567410E+02  0.00000000000E+00 0. -1.
        -14    1    4    4    0    0 -0.57405802370E+02  0.76476875531E+02  0.16008388501E+02  0.96955696785E+02  0.00000000000E+00 0.  1.
</event>
<event>
12    1  0.8313893E-002  0.1723855E+03  0.7818608E-02  0.1175496E+00
         21   -1    0    0  501  502  0.00000000000E+00  0.00000000000E+00  0.20659241448E+03  0.20659241448E+03  0.00000000000E+00 0.  1.
         21   -1    0    0  502  503 -0.00000000000E+00 -0.00000000000E+00 -0.14413450627E+03  0.14413450627E+03  0.00000000000E+00 0.  1.
         -6    2    1    2    0  503 -0.19327125004E+02  0.41898073419E+01  0.19308891651E+02  0.17302325412E+03  0.17080140785E+03 0.  0.
        -24    2    3    3    0    0  0.51542179167E+02  0.14192927071E+02  0.30370073774E+02  0.10044942669E+03  0.79433686362E+02 0.  0.
          6    2    1    2  501    0  0.19327125004E+02 -0.41898073419E+01  0.43149016566E+02  0.17770366663E+03  0.17124737445E+03 0.  0.
         24    2    5    5    0    0  0.21148171201E+02 -0.69991832282E+02  0.24287443089E+02  0.10906641982E+03  0.77197812852E+02 0.  0.
          5    1    5    5  501    0 -0.18210461971E+01  0.65802024940E+02  0.18861573477E+02  0.68637246809E+02  0.47000000000E+01 0. -1.
        -13    1    6    6    0    0  0.10350782827E+02 -0.22940743151E+01  0.37744040013E+02  0.39204770610E+02  0.00000000000E+00 0.  1.
         14    1    6    6    0    0  0.10797388374E+02 -0.67697757967E+02 -0.13456596924E+02  0.69861649210E+02  0.00000000000E+00 0. -1.
         -5    1    3    3    0  503 -0.70869304170E+02 -0.10003119730E+02 -0.11061182123E+02  0.72573827430E+02  0.47000000000E+01 0.  1.
         11    1    4    4    0    0  0.46432467921E+01 -0.25188517321E+02 -0.95625358327E+01  0.27339773904E+02  0.00000000000E+00 0. -1.
        -12    1    4    4    0    0  0.46898932375E+02  0.39381444392E+02  0.39932609607E+02  0.73109652785E+02  0.00000000000E+00 0.  1.
</event>
<event>
12    1  0.8313893E-002  0.2430816E+03  0.7818608E-02  0.1118764E+00
         21   -1    0    0  501  502  0.00000000000E+00  0.00000000000E+00  0.11746544858E+03  0.11746544858E+03  0.00000000000E+00 0.  1.
         21   -1    0    0  502  503 -0.00000000000E+00 -0.00000000000E+00 -0.52269608063E+03  0.52269608063E+03  0.00000000000E+00 0. -1.
         -6    2    1    2    0  503  0.14447993367E+03  0.91444295907E+02 -0.28438432030E+03  0.37411641640E+03  0.17277772109E+03 0.  0.
        -24    2    3    3    0    0  0.97995045647E+02  0.32705505281E+02 -0.26757224397E+03  0.29720200781E+03  0.77855305903E+02 0.  0.
          6    2    1    2  501    0 -0.14447993367E+03 -0.91444295907E+02 -0.12084631175E+03  0.26604511281E+03  0.16413305729E+03 0.  0.
         24    2    5    5    0    0 -0.30195200002E+02 -0.76740527429E+02 -0.27582115130E+02  0.11772956564E+03  0.79363838735E+02 0.  0.
          5    1    5    5  501    0 -0.11428473367E+03 -0.14703768479E+02 -0.93264196624E+02  0.14831554716E+03  0.47000000000E+01 0. -1.
        -11    1    6    6    0    0  0.15206201929E+02 -0.29392686134E+02  0.18169112808E+02  0.37752817583E+02  0.00000000000E+00 0.  1.
         12    1    6    6    0    0 -0.45401401931E+02 -0.47347841295E+02 -0.45751227939E+02  0.79976748061E+02  0.00000000000E+00 0. -1.
         -5    1    3    3    0  503  0.46484888027E+02  0.58738790626E+02 -0.16812076330E+02  0.76914408595E+02  0.47000000000E+01 0.  1.
         13    1    4    4    0    0  0.83023725581E+02  0.56436815947E+02 -0.19346172032E+03  0.21795754273E+03  0.00000000000E+00 0. -1.
        -14    1    4    4    0    0  0.14971320066E+02 -0.23731310666E+02 -0.74110523651E+02  0.79244465082E+02  0.00000000000E+00 0.  1.
</event>
<event>
12    1  0.8313893E-002  0.2376853E+03  0.7818608E-02  0.1121518E+00
         21   -1    0    0  501  502  0.00000000000E+00  0.00000000000E+00  0.33420303750E+03  0.33420303750E+03  0.00000000000E+00 0.  1.
         21   -1    0    0  502  503 -0.00000000000E+00 -0.00000000000E+00 -0.26365190862E+03  0.26365190862E+03  0.00000000000E+00 0. -1.
         -6    2    1    2    0  503 -0.16136545763E+03  0.25448399740E+02 -0.14443140241E+03  0.27812721644E+03  0.17264960632E+03 0.  0.
        -24    2    3    3    0    0 -0.14060716629E+03  0.11288173211E+02 -0.33145808449E+02  0.16394318911E+03  0.76687199544E+02 0.  0.
          6    2    1    2  501    0  0.16136545763E+03 -0.25448399740E+02  0.21498253129E+03  0.31972772968E+03  0.17123638750E+03 0.  0.
         24    2    5    5    0    0  0.10923761348E+03 -0.82360563864E+02  0.16162831414E+03  0.22578589104E+03  0.78354565795E+02 0.  0.
          5    1    5    5  501    0  0.52127844148E+02  0.56912164124E+02  0.53354217145E+02  0.93941838645E+02  0.47000000000E+01 0. -1.
        -11    1    6    6    0    0  0.18437947697E+02 -0.22281316120E+02  0.92264985570E+02  0.96691481142E+02  0.00000000000E+00 0.  1.
         12    1    6    6    0    0  0.90799665783E+02 -0.60079247744E+02  0.69363328572E+02  0.12909440990E+03  0.00000000000E+00 0. -1.
         -5    1    3    3    0  503 -0.20758291343E+02  0.14160226529E+02 -0.11128559396E+03  0.11418402733E+03  0.47000000000E+01 0.  1.
         11    1    4    4    0    0 -0.84355746685E+00 -0.40306988290E+01 -0.22573057053E+02  0.22945610189E+02  0.00000000000E+00 0. -1.
        -12    1    4    4    0    0 -0.13976360882E+03  0.15318872040E+02 -0.10572751397E+02  0.14099757893E+03  0.00000000000E+00 0.  1.
</event>
<event>
12    1  0.8313893E-002  0.1740729E+03  0.7818608E-02  0.1173828E+00
         21   -1    0    0  501  502  0.00000000000E+00  0.00000000000E+00  0.10656735055E+03  0.10656735055E+03  0.00000000000E+00 0.  1.
         21   -1    0    0  502  503 -0.00000000000E+00 -0.00000000000E+00 -0.48492487927E+03  0.48492487927E+03  0.00000000000E+00 0.  1.
         -6    2    1    2    0  503 -0.11068797529E+02 -0.21297827192E+02 -0.38008416731E+03  0.41804944033E+03  0.17241010585E+03 0.  0.
        -24    2    3    3    0    0 -0.66579973092E+02  0.79223129933E+01 -0.17795007308E+03  0.20635251250E+03  0.80121626566E+02 0.  0.
          6    2    1    2  501    0  0.11068797529E+02  0.21297827192E+02  0.17266385892E+01  0.17344278949E+03  0.17176525907E+03 0.  0.
         24    2    5    5    0    0 -0.34033835115E+02 -0.35520144924E+02 -0.19127523968E+02  0.97815310870E+02  0.82352839900E+02 0.  0.
          5    1    5    5  501    0  0.45102632643E+02  0.56817972115E+02  0.20854162557E+02  0.75627478621E+02  0.47000000000E+01 0. -1.
        -13    1    6    6    0    0 -0.10670361676E+02 -0.56179953442E+02 -0.30263868770E+02  0.64698883607E+02  0.00000000000E+00 0.  1.
         14    1    6    6    0    0 -0.23363473438E+02  0.20659808519E+02  0.11136344802E+02  0.33116427263E+02  0.00000000000E+00 0. -1.
         -5    1    3    3    0  503  0.55511175564E+02 -0.29220140185E+02 -0.20213409423E+03  0.21169692784E+03  0.47000000000E+01 0.  1.
         13    1    4    4    0    0 -0.44960313031E+02 -0.32141985632E+02 -0.12401233702E+03  0.13577038235E+03  0.00000000000E+00 0. -1.
        -14    1    4    4    0    0 -0.21619660061E+02  0.40064298626E+02 -0.53937736058E+02  0.70582130150E+02  0.00000000000E+00 0.  1.
</event>
<event>
12    1  0.8313893E-002  0.2580082E+03  0.7818608E-02  0.1108620E+00
         21   -1    0    0  503  502  0.00000000000E+00  0.00000000000E+00  0.25023835235E+03  0.25023835235E+03  0.00000000000E+00 0. -1.
         21   -1    0    0  501  503 -0.00000000000E+00 -0.00000000000E+00 -0.26478780548E+03  0.26478780548E+03  0.00000000000E+00 0. -1.
          6    2    1    2  501    0  0.10898932862E+03  0.15521514577E+03  0.51762081341E+01  0.25806008456E+03  0.17492226526E+03 0.  0.
         24    2    3    3    0    0 -0.14662484422E+02  0.70790646004E+02  0.14268288584E+02  0.10798669266E+03  0.78938189249E+02 0.  0.
         -6    2    1    2    0  502 -0.10898932862E+03 -0.15521514577E+03 -0.19725661269E+02  0.25696607327E+03  0.17225575715E+03 0.  0.
        -24    2    5    5    0    0 -0.14480770368E+03 -0.12059750130E+03 -0.49160089462E+01  0.20478606653E+03  0.80000859605E+02 0.  0.
          5    1    3    3  501    0  0.12365181304E+03  0.84424499764E+02 -0.90920804500E+01  0.15007339190E+03  0.47000000000E+01 0. -1.
        -11    1    4    4    0    0 -0.24159173215E+02 -0.85524467888E+01  0.11336087173E+02  0.28023505650E+02  0.00000000000E+00 0.  1.
         12    1    4    4    0    0  0.94966887931E+01  0.79343092793E+02  0.29322014108E+01  0.79963187012E+02  0.00000000000E+00 0. -1.
         -5    1    5    5    0  502  0.35818375066E+02 -0.34617644472E+02 -0.14809652323E+02  0.52180006738E+02  0.47000000000E+01 0.  1.
         11    1    6    6    0    0 -0.72305525815E+01 -0.48938520426E+02 -0.43914344643E+01  0.49664316856E+02  0.00000000000E+00 0. -1.
        -12    1    6    6    0    0 -0.13757715110E+03 -0.71658980870E+02 -0.52457448191E+00  0.15512174968E+03  0.00000000000E+00 0.  1.
</event>
<event>
12    1  0.8313893E-002  0.2935146E+03  0.7818608E-02  0.1088539E+00
         21   -1    0    0  501  502  0.00000000000E+00  0.00000000000E+00  0.24093886371E+03  0.24093886371E+03  0.00000000000E+00 0.  1.
         21   -1    0    0  502  503 -0.00000000000E+00 -0.00000000000E+00 -0.37748194508E+03  0.37748194508E+03  0.00000000000E+00 0.  1.
         -6    2    1    2    0  503 -0.12523570126E+03  0.20154322337E+03 -0.13948990546E+03  0.32497422040E+03  0.17276330177E+03 0.  0.
        -24    2    3    3    0    0 -0.35571669929E+02  0.28724557337E+02 -0.21526580857E+02  0.97282837606E+02  0.83127088928E+02 0.  0.
          6    2    1    2  501    0  0.12523570126E+03 -0.20154322337E+03  0.29468240783E+01  0.29344658839E+03  0.17262260775E+03 0.  0.
         24    2    5    5    0    0  0.64080911495E+02 -0.19586683764E+02  0.50526581609E+01  0.10141894674E+03  0.75962306478E+02 0.  0.
          5    1    5    5  501    0  0.61154789770E+02 -0.18195653961E+03 -0.21058340826E+01  0.19202764165E+03  0.47000000000E+01 0. -1.
        -13    1    6    6    0    0  0.61971280721E+02 -0.33283888943E+02 -0.19700337005E+02  0.73050394766E+02  0.00000000000E+00 0.  1.
         14    1    6    6    0    0  0.21096307739E+01  0.13697205180E+02  0.24752995165E+02  0.28368551979E+02  0.00000000000E+00 0. -1.
         -5    1    3    3    0  503 -0.89664031336E+02  0.17281866604E+03 -0.11796332460E+03  0.22769138279E+03  0.47000000000E+01 0.  1.
         11    1    4    4    0    0 -0.18572979155E+02  0.47731524928E+02  0.14421380081E+02  0.53209305860E+02  0.00000000000E+00 0. -1.
        -12    1    4    4    0    0 -0.16998690774E+02 -0.19006967591E+02 -0.35947960938E+02  0.44073531746E+02  0.00000000000E+00 0.  1.
</event>
<event>
12    1  0.8313893E-002  0.2189631E+03  0.7818608E-02  0.1135756E+00
         21   -1    0    0  501  502  0.00000000000E+00  0.00000000000E+00  0.10324151845E+03  0.10324151845E+03  0.00000000000E+00 0.  1.
         21   -1    0    0  502  503 -0.00000000000E+00 -0.00000000000E+00 -0.55170889222E+03  0.55170889222E+03  0.00000000000E+00 0. -1.
         -6    2    1    2    0  503  0.57254347384E+02  0.11883479377E+03 -0.36572820792E+03  0.42626513168E+03  0.17477148484E+03 0.  0.
        -24    2    3    3    0    0  0.64353353650E+02 -0.43606783621E+01 -0.18004093866E+03  0.20326429714E+03  0.68856846087E+02 0.  0.
          6    2    1    2  501    0 -0.57254347384E+02 -0.11883479377E+03 -0.82739165847E+02  0.22868527899E+03  0.16748557777E+03 0.  0.
         24    2    5    5    0    0 -0.36843648384E+02 -0.40915438466E+02 -0.10721146800E+03  0.14437035661E+03  0.79479390204E+02 0.  0.
          5    1    5    5  501    0 -0.20410699000E+02 -0.77919355300E+02  0.24472302149E+02  0.84314922383E+02  0.47000000000E+01 0. -1.
        -11    1    6    6    0    0  0.23228933531E+02  0.11816242332E+01 -0.28271564798E+02  0.36609574772E+02  0.00000000000E+00 0.  1.
         12    1    6    6    0    0 -0.60072581915E+02 -0.42097062700E+02 -0.78939903197E+02  0.10776078184E+03  0.00000000000E+00 0. -1.
         -5    1    3    3    0  503 -0.70990062662E+01  0.12319547213E+03 -0.18568726926E+03  0.22300083454E+03  0.47000000000E+01 0.  1.
         11    1    4    4    0    0  0.31981341585E+02 -0.22364132722E+02 -0.31433926199E+02  0.50110401697E+02  0.00000000000E+00 0. -1.
        -12    1    4    4    0    0  0.32372012065E+02  0.18003454360E+02 -0.14860701246E+03  0.15315389544E+03  0.00000000000E+00 0.  1.
</event>
<event>
12    1  0.8313893E-002  0.2133964E+03  0.7818608E-02  0.1140001E+00
         21   -1    0    0  503  502  0.00000000000E+00  0.00000000000E+00  0.63657623515E+02  0.63657623515E+02  0.00000000000E+00 0.  1.
         21   -1    0    0  501  503 -0.00000000000E+00 -0.00000000000E+00 -0.16605001361E+04  0.16605001361E+04  0.00000000000E+00 0.  1.
          6    2    1    2  501    0  0.11736082554E+03  0.55209578413E+01 -0.14507137759E+04  0.14655235706E+04  0.17142004584E+03 0.  0.
         24    2    3    3    0    0  0.11843340939E+03 -0.45022610664E+02 -0.89326795341E+03  0.90577028768E+03  0.80241320546E+02 0.  0.
         -6    2    1    2    0  502 -0.11736082554E+03 -0.55209578413E+01 -0.14612873666E+03  0.25863418897E+03  0.17814037072E+03 0.  0.
        -24    2    5    5    0    0 -0.20822000493E+02  0.24819907121E+02 -0.13072654932E+03  0.15616648576E+03  0.79050345238E+02 0.  0.
          5    1    3    3  501    0 -0.10725838518E+01  0.50543568505E+02 -0.55744582248E+03  0.55975328293E+03  0.47000000000E+01 0. -1.
        -13    1    4    4    0    0  0.84668759552E+02 -0.15614361905E+02 -0.76663256902E+03  0.77145194473E+03  0.00000000000E+00 0.  1.
         14    1    4    4    0    0  0.33764649837E+02 -0.29408248759E+02 -0.12663538439E+03  0.13431834295E+03  0.00000000000E+00 0. -1.
         -5    1    5    5    0  502 -0.96538825044E+02 -0.30340864962E+02 -0.15402187345E+02  0.10246770322E+03  0.47000000000E+01 0.  1.
         13    1    6    6    0    0 -0.16853989803E+02  0.41971227212E+02 -0.13097082464E+03  0.13856044815E+03  0.00000000000E+00 0. -1.
        -14    1    6    6    0    0 -0.39680106895E+01 -0.17151320091E+02  0.24427531680E+00  0.17606037605E+02  0.00000000000E+00 0.  1.
</event>
<event>
12    1  0.8313893E-002  0.1780937E+03  0.7818608E-02  0.1170605E+00
         21   -1    0    0  503  502  0.00000000000E+00  0.00000000000E+00  0.26399859365E+04  0.26399859365E+04  0.00000000000E+00 0. -1.
         21   -1    0    0  501  503 -0.00000000000E+00 -0.00000000000E+00 -0.96192294314E+02  0.96192294314E+02  0.00000000000E+00 0. -1.
          6    2    1    2  501    0 -0.17120826789E+02  0.23768068283E+02 -0.11514491823E+02  0.17467144194E+03  0.17181235499E+03 0.  0.
         24    2    3    3    0    0  0.38438962063E+02 -0.54497245708E+00 -0.49850716685E+02  0.10277032773E+03  0.81232970578E+02 0.  0.
         -6    2    1    2    0  502  0.17120826789E+02 -0.23768068283E+02  0.25553081340E+04  0.25615067889E+04  0.17566822689E+03 0.  0.
        -24    2    5    5    0    0 -0.72918116281E+00  0.11930948673E+02  0.58529218112E+03  0.59108094982E+03  0.81650919856E+02 0.  0.
          5    1    3    3  501    0 -0.55559788852E+02  0.24313040740E+02  0.38336224862E+02  0.71901114206E+02  0.47000000000E+01 0. -1.
        -13    1    4    4    0    0 -0.21014639981E+02 -0.10536101245E+02 -0.32359377008E+02  0.39996922423E+02  0.00000000000E+00 0.  1.
         14    1    4    4    0    0  0.59453602044E+02  0.99911287878E+01 -0.17491339677E+02  0.62773405310E+02  0.00000000000E+00 0. -1.
         -5    1    5    5    0  502  0.17850007952E+02 -0.35699016956E+02  0.19700159529E+04  0.19704258391E+04  0.47000000000E+01 0.  1.
         13    1    6    6    0    0  0.23513656738E+02  0.22697681744E+02  0.51360046436E+03  0.51463920740E+03  0.00000000000E+00 0. -1.
        -14    1    6    6    0    0 -0.24242837900E+02 -0.10766733072E+02  0.71691716766E+02  0.76441742414E+02  0.00000000000E+00 0.  1.
</event>
<event>
12    1  0.8313893E-002  0.2273967E+03  0.7818608E-02  0.1128599E+00
         21   -1    0    0  501  502  0.00000000000E+00  0.00000000000E+00  0.23870065733E+04  0.23870065733E+04  0.00000000000E+00 0.  1.
         21   -1    0    0  502  503 -0.00000000000E+00 -0.00000000000E+00 -0.23957225627E+02  0.23957225627E+02  0.00000000000E+00 0. -1.
         -6    2    1    2    0  503  0.77252863203E+02 -0.12626458070E+03  0.15609284114E+04  0.15774050731E+04  0.17262244896E+03 0.  0.
        -24    2    3    3    0    0  0.43589443962E+02 -0.13644431442E+03  0.85210174200E+03  0.86769091230E+03  0.79328746409E+02 0.  0.
          6    2    1    2  501    0 -0.77252863203E+02  0.12626458070E+03  0.80212093632E+03  0.83355872588E+03  0.17178883491E+03 0.  0.
         24    2    5    5    0    0 -0.58701402323E+02  0.13516223524E+03  0.79569762119E+03  0.81149803835E+03  0.60660344654E+02 0.  0.
          5    1    5    5  501    0 -0.18551460880E+02 -0.88976545429E+01  0.64233151343E+01  0.22060687534E+02  0.47000000000E+01 0. -1.
        -13    1    6    6    0    0  0.49466454281E+01  0.62540046408E+02  0.30305728836E+03  0.30948254673E+03  0.00000000000E+00 0.  1.
         14    1    6    6    0    0 -0.63648047751E+02  0.72622188836E+02  0.49264033283E+03  0.50201549162E+03  0.00000000000E+00 0. -1.
         -5    1    3    3    0  503  0.33663419241E+02  0.10179733723E+02  0.70882666938E+03  0.70971416077E+03  0.47000000000E+01 0.  1.
         13    1    4    4    0    0  0.10303750483E+02 -0.24682974022E+02  0.46103731816E+02  0.53300755792E+02  0.00000000000E+00 0. -1.
        -14    1    4    4    0    0  0.33285693479E+02 -0.11176134040E+03  0.80599801018E+03  0.81439015650E+03  0.00000000000E+00 0.  1.
</event>
<event>
12    1  0.8313893E-002  0.2200220E+03  0.7818608E-02  0.1134058E+00
         21   -1    0    0  503  502  0.00000000000E+00  0.00000000000E+00  0.16156473546E+04  0.16156473546E+04  0.00000000000E+00 0.  1.
         21   -1    0    0  501  503 -0.00000000000E+00 -0.00000000000E+00 -0.82849804013E+02  0.82849804013E+02  0.00000000000E+00 0. -1.
          6    2    1    2  501    0 -0.42707174744E+02 -0.13023422720E+03  0.86343494486E+02  0.23540488525E+03  0.17080809187E+03 0.  0.
         24    2    3    3    0    0 -0.31908772977E+02 -0.20558286153E+01  0.83522892917E+01  0.84902309082E+02  0.78206426378E+02 0.  0.
         -6    2    1    2    0  502  0.42707174744E+02  0.13023422720E+03  0.14464540561E+04  0.14630922733E+04  0.17211858489E+03 0.  0.
        -24    2    5    5    0    0 -0.43670522145E+01  0.15136630860E+03  0.11402627175E+04  0.11525479552E+04  0.72366384470E+02 0.  0.
          5    1    3    3  501    0 -0.10798401767E+02 -0.12817839858E+03  0.77991205194E+02  0.15050257616E+03  0.47000000000E+01 0. -1.
        -13    1    4    4    0    0  0.57516832857E+01 -0.53736133649E+01  0.36772240332E+02  0.37605255487E+02  0.00000000000E+00 0.  1.
         14    1    4    4    0    0 -0.37660456263E+02  0.33177847495E+01 -0.28419951041E+02  0.47297053595E+02  0.00000000000E+00 0. -1.
         -5    1    5    5    0  502  0.47074226958E+02 -0.21132081403E+02  0.30619133860E+03  0.31054431816E+03  0.47000000000E+01 0.  1.
         11    1    6    6    0    0 -0.56933819571E+01  0.18322036103E+02  0.41052984109E+02  0.45315109062E+02  0.00000000000E+00 0. -1.
        -12    1    6    6    0    0  0.13263297426E+01  0.13304427250E+03  0.10992097334E+04  0.11072328461E+04  0.00000000000E+00 0.  1.
</event>
<event>
12    1  0.8313893E-002  0.2265678E+03  0.7818608E-02  0.1130003E+00
         21   -1    0    0  501  502  0.00000000000E+00  0.00000000000E+00  0.81769071523E+03  0.81769071523E+03  0.00000000000E+00 0. -1.
         21   -1    0    0  502  503 -0.00000000000E+00 -0.00000000000E+00 -0.64481326415E+02  0.64481326415E+02  0.00000000000E+00 0.  1.
         -6    2    1    2    0  503  0.12094052196E+03  0.70996629378E+02  0.47746737885E+03  0.52849604831E+03  0.17794899263E+03 0.  0.
        -24    2    3    3    0    0  0.15721177230E+03  0.44773441186E+02  0.36374103075E+03  0.40618892892E+03  0.77212085470E+02 0.  0.
          6    2    1    2  501    0 -0.12094052196E+03 -0.70996629378E+02  0.27574200996E+03  0.35367599334E+03  0.17142322179E+03 0.  0.
         24    2    5    5    0    0 -0.11362745588E+03 -0.42845325187E+02  0.10066022296E+03  0.17613248035E+03  0.78378884462E+02 0.  0.
          5    1    5    5  501    0 -0.73130660803E+01 -0.28151304191E+02  0.17508178700E+03  0.17754351298E+03  0.47000000000E+01 0. -1.
        -13    1    6    6    0    0 -0.87169551582E+02 -0.18964934451E+02  0.10765288184E+03  0.13981181076E+03  0.00000000000E+00 0.  1.
         14    1    6    6    0    0 -0.26457904294E+02 -0.23880390736E+02 -0.69926588722E+01  0.36320669589E+02  0.00000000000E+00 0. -1.
         -5    1    3    3    0  503 -0.36271250342E+02  0.26223188193E+02  0.11372634810E+03  0.12230711939E+03  0.47000000000E+01 0.  1.
         13    1    4    4    0    0  0.70572912893E+02  0.46442451577E+02  0.24524234564E+03  0.25938628614E+03  0.00000000000E+00 0. -1.
        -14    1    4    4    0    0  0.86638859405E+02 -0.16690103910E+01  0.11849868511E+03  0.14680264278E+03  0.00000000000E+00 0.  1.
</event>
<event>
12    1  0.8313893E-002  0.1825667E+03  0.7818608E-02  0.1165614E+00
         21   -1    0    0  503  502  0.00000000000E+00  0.00000000000E+00  0.19771472166E+03  0.19771472166E+03  0.00000000000E+00 0. -1.
         21   -1    0    0  501  503 -0.00000000000E+00 -0.00000000000E+00 -0.20680630006E+03  0.20680630006E+03  0.00000000000E+00 0. -1.
          6    2    1    2  501    0 -0.58603346879E+02 -0.35775591397E+01 -0.92707021062E+02  0.20475638398E+03  0.17286825571E+03 0.  0.
         24    2    3    3    0    0 -0.71295984667E+02  0.18399009334E+01  0.42301050421E+01  0.10672910030E+03  0.79288740675E+02 0.  0.
         -6    2    1    2    0  502  0.58603346879E+02  0.35775591397E+01  0.83615442657E+02  0.19976463774E+03  0.17166017898E+03 0.  0.
        -24    2    5    5    0    0  0.31728953711E+02 -0.30304839443E+02 -0.12891527233E+02  0.93906547926E+02  0.82019134789E+02 0.  0.
          5    1    3    3  501    0  0.12692637788E+02 -0.54174600731E+01 -0.96937126104E+02  0.98027283676E+02  0.47000000000E+01 0. -1.
        -13    1    4    4    0    0  0.88830473953E+01 -0.16435740487E+02  0.14776781072E+02  0.23820062032E+02  0.00000000000E+00 0.  1.
         14    1    4    4    0    0 -0.80179032062E+02  0.18275641420E+02 -0.10546676030E+02  0.82909038271E+02  0.00000000000E+00 0. -1.
         -5    1    5    5    0  502  0.26874393168E+02  0.33882398583E+02  0.96506969890E+02  0.10585808981E+03  0.47000000000E+01 0.  1.
         13    1    6    6    0    0  0.12143511929E+02  0.92049928050E+01  0.29205147177E+02  0.32941423711E+02  0.00000000000E+00 0. -1.
        -14    1    6    6    0    0  0.19585441782E+02 -0.39509832248E+02 -0.42096674410E+02  0.60965124214E+02  0.00000000000E+00 0.  1.
</event>
<event>
12    1  0.8313893E-002  0.1865137E+03  0.7818608E-02  0.1162063E+00
         21   -1    0    0  503  502  0.00000000000E+00  0.00000000000E+00  0.68737263189E+03  0.68737263189E+03  0.00000000000E+00 0. -1.
         21   -1    0    0  501  503 -0.00000000000E+00 -0.00000000000E+00 -0.52611818453E+02  0.52611818453E+02  0.00000000000E+00 0. -1.
          6    2    1    2  501    0  0.45854647648E+02 -0.47600577366E+02  0.23833716211E+03  0.30264163913E+03  0.17441013507E+03 0.  0.
         24    2    3    3    0    0  0.15725816288E+02 -0.81424737033E+02  0.15644923098E+03  0.20894242078E+03  0.11092017051E+03 0.  0.
         -6    2    1    2    0  502 -0.45854647648E+02  0.47600577366E+02  0.39642365133E+03  0.43734281121E+03  0.17247770729E+03 0.  0.
        -24    2    5    5    0    0 -0.14779864622E+02  0.80713227046E+02  0.36353251625E+03  0.38107553409E+03  0.79558801434E+02 0.  0.
          5    1    3    3  501    0  0.30128831360E+02  0.33824159667E+02  0.81887931127E+02  0.93699218356E+02  0.47000000000E+01 0. -1.
        -13    1    4    4    0    0  0.23281896715E+02  0.23406155461E+02  0.31035869936E+02  0.45311367788E+02  0.00000000000E+00 0.  1.
         14    1    4    4    0    0 -0.75560804273E+01 -0.10483089249E+03  0.12541336105E+03  0.16363105299E+03  0.00000000000E+00 0. -1.
         -5    1    5    5    0  502 -0.31074783026E+02 -0.33112649679E+02  0.32891135074E+02  0.56267277128E+02  0.47000000000E+01 0.  1.
         13    1    6    6    0    0 -0.30679040971E+02  0.81151547268E+02  0.21727237372E+03  0.23395311830E+03  0.00000000000E+00 0. -1.
        -14    1    6    6    0    0  0.15899176349E+02 -0.43832022255E+00  0.14626014254E+03  0.14712241579E+03  0.00000000000E+00 0.  1.
</event>
<event>
12    1  0.8313893E-002  0.1991210E+03  0.7818608E-02  0.1151091E+00
         21   -1    0    0  503  502  0.00000000000E+00  0.00000000000E+00  0.45447962678E+03  0.45447962678E+03  0.00000000000E+00 0.  1.
         21   -1    0    0  501  503 -0.00000000000E+00 -0.00000000000E+00 -0.10657986938E+03  0.10657986938E+03  0.00000000000E+00 0.  1.
          6    2    1    2  501    0 -0.12833449873E+02 -0.99253097619E+02  0.51686813483E+02  0.20571995468E+03  0.17214324919E+03 0.  0.
         24    2    3    3    0    0 -0.75051833087E+02 -0.60335009738E+02  0.28054278618E+02  0.12847792287E+03  0.80289744459E+02 0.  0.
         -6    2    1    2    0  502  0.12833449873E+02  0.99253097619E+02  0.29621294392E+03  0.35533954149E+03  0.16884373479E+03 0.  0.
        -24    2    5    5    0    0  0.99276945009E+01 -0.13320565120E+02  0.98585368783E+02  0.12783125282E+03  0.79660264169E+02 0.  0.
          5    1    3    3  501    0  0.62218383213E+02 -0.38918087881E+02  0.23632534866E+02  0.77242031810E+02  0.47000000000E+01 0. -1.
        -13    1    4    4    0    0 -0.42119272635E+02 -0.62902831461E+02 -0.11905672640E+02  0.76632528173E+02  0.00000000000E+00 0.  1.
         14    1    4    4    0    0 -0.32932560452E+02  0.25678217237E+01  0.39959951257E+02  0.51845394692E+02  0.00000000000E+00 0. -1.
         -5    1    5    5    0  502  0.29057553725E+01  0.11257366274E+03  0.19762757514E+03  0.22750828866E+03  0.47000000000E+01 0.  1.
         11    1    6    6    0    0  0.97428217474E+01 -0.38717199149E+02  0.93859778279E+02  0.10199804931E+03  0.00000000000E+00 0. -1.
        -12    1    6    6    0    0  0.18487275352E+00  0.25396634029E+02  0.47255905039E+01  0.25833203509E+02  0.00000000000E+00 0.  1.
</event>
<event>
12    1  0.8313893E-002  0.2104904E+03  0.7818608E-02  0.1141310E+00
         21   -1    0    0  501  502  0.00000000000E+00  0.00000000000E+00  0.19456515279E+03  0.19456515279E+03  0.00000000000E+00 0.  1.
         21   -1    0    0  502  503 -0.00000000000E+00 -0.00000000000E+00 -0.26851742637E+03  0.26851742637E+03  0.00000000000E+00 0.  1.
         -6    2    1    2    0  503  0.30555700836E+02  0.11675421197E+03 -0.12797541197E+03  0.24577007753E+03  0.17163923815E+03 0.  0.
        -24    2    3    3    0    0  0.84950570415E+02  0.76172197665E+02 -0.75467354623E+02  0.15983470758E+03  0.82662016808E+02 0.  0.
          6    2    1    2  501    0 -0.30555700836E+02 -0.11675421197E+03  0.54023138395E+02  0.21731250163E+03  0.17245586977E+03 0.  0.
         24    2    5    5    0    0  0.48655448972E+02 -0.77786066245E+02  0.27882345403E+02  0.12512598584E+03  0.80380733584E+02 0.  0.
          5    1    5    5  501    0 -0.79211149809E+02 -0.38968145723E+02  0.26140792993E+02  0.92186515789E+02  0.47000000000E+01 0. -1.
        -11    1    6    6    0    0  0.52672178151E+02 -0.48134162724E+02 -0.14925006654E+02  0.72897268782E+02  0.00000000000E+00 0.  1.
         12    1    6    6    0    0 -0.40167291784E+01 -0.29651903520E+02  0.42807352057E+02  0.52228717060E+02  0.00000000000E+00 0. -1.
         -5    1    3    3    0  503 -0.54394869579E+02  0.40582014303E+02 -0.52508057351E+02  0.85935369949E+02  0.47000000000E+01 0.  1.
         13    1    4    4    0    0  0.42109190074E+02 -0.95332992216E+01 -0.35975132007E+02  0.56198556971E+02  0.00000000000E+00 0. -1.
        -14    1    4    4    0    0  0.42841380341E+02  0.85705496886E+02 -0.39492222616E+02  0.10363615061E+03  0.00000000000E+00 0.  1.
</event>
<event>
12    1  0.8313893E-002  0.1757758E+03  0.7818608E-02  0.1172038E+00
         21   -1    0    0  503  502  0.00000000000E+00  0.00000000000E+00  0.35534710257E+03  0.35534710257E+03  0.00000000000E+00 0.  1.
         21   -1    0    0  501  503 -0.00000000000E+00 -0.00000000000E+00 -0.24238850295E+03  0.24238850295E+03  0.00000000000E+00 0.  1.
          6    2    1    2  501    0  0.26907236931E+02  0.22034370679E+02 -0.18299938586E+03  0.25351434690E+03  0.17196289125E+03 0.  0.
         24    2    3    3    0    0  0.12401113308E+02  0.69419343159E+02 -0.17376626226E+03  0.20288724140E+03  0.77431815213E+02 0.  0.
         -6    2    1    2    0  502 -0.26907236931E+02 -0.22034370679E+02  0.29595798548E+03  0.34422125863E+03  0.17230099486E+03 0.  0.
        -24    2    5    5    0    0  0.12258716434E+02 -0.49097368209E+02  0.81372669826E+02  0.12436829541E+03  0.79278835864E+02 0.  0.
          5    1    3    3  501    0  0.14506123622E+02 -0.47384972480E+02 -0.92331235996E+01  0.50627105496E+02  0.47000000000E+01 0. -1.
        -11    1    4    4    0    0  0.14461408110E+01 -0.16347538967E+02 -0.15665817018E+02  0.22688128534E+02  0.00000000000E+00 0.  1.
         12    1    4    4    0    0  0.10954972497E+02  0.85766882126E+02 -0.15810044524E+03  0.18019911287E+03  0.00000000000E+00 0. -1.
         -5    1    5    5    0  502 -0.39165953365E+02  0.27062997530E+02  0.21458531566E+03  0.21985296321E+03  0.47000000000E+01 0.  1.
         11    1    6    6    0    0  0.31647542702E+02 -0.57347128574E+02  0.79799554977E+02  0.10323869957E+03  0.00000000000E+00 0. -1.
        -12    1    6    6    0    0 -0.19388826268E+02  0.82497603645E+01  0.15731148489E+01  0.21129595842E+02  0.00000000000E+00 0.  1.
</event>
<event>
12    1  0.8313893E-002  0.2450870E+03  0.7818608E-02  0.1116600E+00
         21   -1    0    0  501  502  0.00000000000E+00  0.00000000000E+00  0.62377698552E+02  0.62377698552E+02  0.00000000000E+00 0. -1.
         21   -1    0    0  502  503 -0.00000000000E+00 -0.00000000000E+00 -0.96143273004E+03  0.96143273004E+03  0.00000000000E+00 0.  1.
         -6    2    1    2    0  503  0.12824470613E+03 -0.11933659083E+03 -0.42482315296E+03  0.48999068040E+03  0.17008300629E+03 0.  0.
        -24    2    3    3    0    0  0.67111319235E+02 -0.91777444640E+02 -0.13884201675E+03  0.19621508952E+03  0.79348769527E+02 0.  0.
          6    2    1    2  501    0 -0.12824470613E+03  0.11933659083E+03 -0.47423187853E+03  0.53381974819E+03  0.17140514107E+03 0.  0.
         24    2    5    5    0    0 -0.15191898209E+03  0.96094591380E+02 -0.31383387667E+03  0.36995922555E+03  0.77875405678E+02 0.  0.
          5    1    5    5  501    0  0.23674275963E+02  0.23241999448E+02 -0.16039800186E+03  0.16386052264E+03  0.47000000000E+01 0. -1.
        -11    1    6    6    0    0 -0.19172918257E+02 -0.52331967131E+01 -0.81156854421E+02  0.83554905073E+02  0.00000000000E+00 0.  1.
         12    1    6    6    0    0 -0.13274606383E+03  0.10132778809E+03 -0.23267702225E+03  0.28640432047E+03  0.00000000000E+00 0. -1.
         -5    1    3    3    0  503  0.61133386894E+02 -0.27559146188E+02 -0.28598113621E+03  0.29377559088E+03  0.47000000000E+01 0.  1.
         13    1    4    4    0    0  0.10594481409E+02 -0.64325166664E+01  0.97558588207E+01  0.15773303025E+02  0.00000000000E+00 0. -1.
        -14    1    4    4    0    0  0.56516837826E+02 -0.85344927973E+02 -0.14859787557E+03  0.18044178650E+03  0.00000000000E+00 0.  1.
</event>
<event>
12    1  0.8313893E-002  0.1809749E+03  0.7818608E-02  0.1167133E+00
         21   -1    0    0  501  502  0.00000000000E+00  0.00000000000E+00  0.53141386828E+03  0.53141386828E+03  0.00000000000E+00 0. -1.
         21   -1    0    0  502  503 -0.00000000000E+00 -0.00000000000E+00 -0.85169336009E+02  0.85169336009E+02  0.00000000000E+00 0. -1.
         -6    2    1    2    0  503 -0.25482856297E+01  0.50445261174E+02  0.59249301348E+02  0.18936283864E+03  0.17261687870E+03 0.  0.
        -24    2    3    3    0    0  0.22737159530E+02  0.33224047450E+02 -0.44696881640E+02  0.80906290209E+02  0.54103611843E+02 0.  0.
          6    2    1    2  501    0  0.25482856297E+01 -0.50445261174E+02  0.38699523092E+03  0.42722036565E+03  0.17378352608E+03 0.  0.
         24    2    5    5    0    0 -0.14061890712E+02 -0.56773691906E+02  0.10752221866E+03  0.14714323061E+03  0.81664643172E+02 0.  0.
          5    1    5    5  501    0  0.16610176342E+02  0.63284307321E+01  0.27947301226E+03  0.28007713504E+03  0.47000000000E+01 0. -1.
        -13    1    6    6    0    0  0.18598062720E+02 -0.24843840659E+00 -0.29416879923E+01  0.18830910408E+02  0.00000000000E+00 0.  1.
         14    1    6    6    0    0 -0.32659953432E+02 -0.56525253499E+02  0.11046390666E+03  0.12831232020E+03  0.00000000000E+00 0. -1.
         -5    1    3    3    0  503 -0.25285445160E+02  0.17221213723E+02  0.10394618299E+03  0.10845654843E+03  0.47000000000E+01 0.  1.
         13    1    4    4    0    0  0.14648086415E+02  0.43890766891E+02 -0.15518661858E+02  0.48803634288E+02  0.00000000000E+00 0. -1.
        -14    1    4    4    0    0  0.80890731147E+01 -0.10666719440E+02 -0.29178219782E+02  0.32102655920E+02  0.00000000000E+00 0.  1.
</event>
<event>
12    1  0.8313893E-002  0.1931373E+03  0.7818608E-02  0.1155921E+00
         21   -1    0    0  501  502  0.00000000000E+00  0.00000000000E+00  0.14330862730E+04  0.14330862730E+04  0.00000000000E+00 0. -1.
         21   -1    0    0  502  503 -0.00000000000E+00 -0.00000000000E+00 -0.25975769886E+02  0.25975769886E+02  0.00000000000E+00 0. -1.
         -6    2    1    2    0  503  0.32849352816E+02 -0.86631038093E+02  0.75194507822E+03  0.77635264836E+03  0.16946391127E+03 0.  0.
        -24    2    3    3    0    0 -0.52087744281E+01  0.20383691937E+02  0.43102325411E+03  0.43589195947E+03  0.61466482893E+02 0.  0.
          6    2    1    2  501    0 -0.32849352816E+02  0.86631038093E+02  0.65516542494E+03  0.68270939457E+03  0.16812604394E+03 0.  0.
         24    2    5    5    0    0 -0.38059570219E+02 -0.13919762472E+02  0.33579680686E+03  0.34781237446E+03  0.81065786000E+02 0.  0.
          5    1    5    5  501    0  0.52102174029E+01  0.10055080056E+03  0.31936861808E+03  0.33489702011E+03  0.47000000000E+01 0. -1.
        -11    1    6    6    0    0  0.14073900621E+02  0.19421124372E+02  0.15191843123E+03  0.15380007964E+03  0.00000000000E+00 0.  1.
         12    1    6    6    0    0 -0.52133470840E+02 -0.33340886844E+02  0.18387837563E+03  0.19401229482E+03  0.00000000000E+00 0. -1.
         -5    1    3    3    0  503  0.38058127245E+02 -0.10701473003E+03  0.32092182411E+03  0.34046068889E+03  0.47000000000E+01 0.  1.
         13    1    4    4    0    0  0.25749978892E+02  0.33182534047E+00  0.23689378841E+03  0.23828940075E+03  0.00000000000E+00 0. -1.
        -14    1    4    4    0    0 -0.30958753320E+02  0.20051866597E+02  0.19412946570E+03  0.19760255872E+03  0.00000000000E+00 0.  1.
</event>
<event>
12    1  0.8313893E-002  0.1842126E+03  0.7818608E-02  0.1164000E+00
         21   -1    0    0  501  502  0.00000000000E+00  0.00000000000E+00  0.10405045557E+03  0.10405045557E+03  0.00000000000E+00 0.  1.
         21   -1    0    0  502  503 -0.00000000000E+00 -0.00000000000E+00 -0.34197362612E+03  0.34197362612E+03  0.00000000000E+00 0.  1.
         -6    2    1    2    0  503 -0.50899417362E+02  0.27081393180E+02 -0.68322124192E+02  0.19562682002E+03  0.17400513645E+03 0.  0.
        -24    2    3    3    0    0 -0.77921300258E+02  0.15168526847E+02 -0.10162461237E+03  0.15086920325E+03  0.78307990716E+02 0.  0.
          6    2    1    2  501    0  0.50899417362E+02 -0.27081393180E+02 -0.16960104636E+03  0.25039726168E+03  0.17495748394E+03 0.  0.
         24    2    5    5    0    0  0.28106978846E+02  0.53339403955E+02 -0.10046525278E+03  0.14182080097E+03  0.79904807732E+02 0.  0.
          5    1    5    5  501    0  0.22792438516E+02 -0.80420797136E+02 -0.69135793586E+02  0.10857646071E+03  0.47000000000E+01 0. -1.
        -13    1    6    6    0    0  0.55876857733E+02  0.39382631843E+02 -0.61281915722E+02  0.91807887001E+02  0.00000000000E+00 0.  1.
         14    1    6    6    0    0 -0.27769878886E+02  0.13956772112E+02 -0.39183337053E+02  0.50012913970E+02  0.00000000000E+00 0. -1.
         -5    1    3    3    0  503  0.27021882896E+02  0.11912866333E+02  0.33302488178E+02  0.44757616764E+02  0.47000000000E+01 0.  1.
         11    1    4    4    0    0 -0.61556074931E+02 -0.22672198362E+02 -0.82555842938E+02  0.10544499107E+03  0.00000000000E+00 0. -1.
        -12    1    4    4    0    0 -0.16365225327E+02  0.37840725209E+02 -0.19068769432E+02  0.45424212178E+02  0.00000000000E+00 0.  1.
</event>
<event>
12    1  0.8313893E-002  0.1727268E+03  0.7818608E-02  0.1175566E+00
         21   -1    0    0  501  502  0.00000000000E+00  0.00000000000E+00  0.30768052278E+03  0.30768052278E+03  0.00000000000E+00 0.  1.
         21   -1    0    0  502  503 -0.00000000000E+00 -0.00000000000E+00 -0.19082344734E+03  0.19082344734E+03  0.00000000000E+00 0.  1.
         -6    2    1    2    0  503  0.20197767493E+02 -0.69899879985E+01 -0.11762932405E+03  0.20726793630E+03  0.16931193046E+03 0.  0.
        -24    2    3    3    0    0  0.74223310530E+02  0.17806427372E+02 -0.70642969724E+02  0.13135068524E+03  0.80227206473E+02 0.  0.
          6    2    1    2  501    0 -0.20197767493E+02  0.69899879985E+01  0.23448639949E+03  0.29123603382E+03  0.17139937602E+03 0.  0.
         24    2    5    5    0    0  0.32513850070E+02 -0.43969216190E+02  0.12179849630E+03  0.15671462792E+03  0.82061918603E+02 0.  0.
          5    1    5    5  501    0 -0.52711617563E+02  0.50959204188E+02  0.11268790320E+03  0.13452140590E+03  0.47000000000E+01 0. -1.
        -11    1    6    6    0    0  0.35986612048E+02 -0.65738613828E+01  0.11211181751E+03  0.11792926492E+03  0.00000000000E+00 0.  1.
         12    1    6    6    0    0 -0.34727619781E+01 -0.37395354807E+02  0.96866787901E+01  0.38785362998E+02  0.00000000000E+00 0. -1.
         -5    1    3    3    0  503 -0.54025543037E+02 -0.24796415370E+02 -0.46986354328E+02  0.75917251062E+02  0.47000000000E+01 0.  1.
         11    1    4    4    0    0  0.74998179719E+02  0.25379634067E+02 -0.22083542474E+02  0.82198148609E+02  0.00000000000E+00 0. -1.
        -12    1    4    4    0    0 -0.77486918876E+00 -0.75732066956E+01 -0.48559427250E+02  0.49152536626E+02  0.00000000000E+00 0.  1.
</event>
<event>
12    1  0.8313893E-002  0.2057211E+03  0.7818608E-02  0.1145330E+00
         21   -1    0    0  503  502  0.00000000000E+00  0.00000000000E+00  0.18305454027E+04  0.18305454027E+04  0.00000000000E+00 0. -1.
         21   -1    0    0  501  503 -0.00000000000E+00 -0.00000000000E+00 -0.34810691970E+02  0.34810691970E+02  0.00000000000E+00 0.  1.
          6    2    1    2  501    0 -0.34502391221E+01  0.11472767679E+03  0.35551547332E+03  0.41074619627E+03  0.17072446226E+03 0.  0.
         24    2    3    3    0    0 -0.32416908948E+02  0.13711882910E+03  0.24052332232E+03  0.28997485673E+03  0.79884414486E+02 0.  0.
         -6    2    1    2    0  502  0.34502391221E+01 -0.11472767679E+03  0.14402192374E+04  0.14546098984E+04  0.16877251178E+03 0.  0.
        -24    2    5    5    0    0 -0.40475154358E+02 -0.74573583675E+02  0.60277793210E+03  0.61504345003E+03  0.87964495635E+02 0.  0.
          5    1    3    3  501    0  0.28966669826E+02 -0.22391152315E+02  0.11499215101E+03  0.12077133955E+03  0.47000000000E+01 0. -1.
        -11    1    4    4    0    0  0.12888630801E+02  0.96394069159E+02  0.11618689629E+03  0.15151675895E+03  0.00000000000E+00 0.  1.
         12    1    4    4    0    0 -0.45305539749E+02  0.40724759942E+02  0.12433642602E+03  0.13845809778E+03  0.00000000000E+00 0. -1.
         -5    1    5    5    0  502  0.43925393480E+02 -0.40154093111E+02  0.83744130532E+03  0.83956644838E+03  0.47000000000E+01 0.  1.
         11    1    6    6    0    0 -0.25383995172E+02 -0.28576847300E+02  0.49974769379E+03  0.50120728332E+03  0.00000000000E+00 0. -1.
        -12    1    6    6    0    0 -0.15091159186E+02 -0.45996736375E+02  0.10303023832E+03  0.11383616671E+03  0.00000000000E+00 0.  1.
</event>
<event>
12    1  0.8313893E-002  0.2216984E+03  0.7818608E-02  0.1132684E+00
         21   -1    0    0  503  502  0.00000000000E+00  0.00000000000E+00  0.13618343091E+03  0.13618343091E+03  0.00000000000E+00 0.  1.
         21   -1    0    0  501  503 -0.00000000000E+00 -0.00000000000E+00 -0.41814029001E+03  0.41814029001E+03  0.00000000000E+00 0.  1.
          6    2    1    2  501    0 -0.66385824676E+02 -0.12318196492E+03 -0.24390127200E+03  0.32938278045E+03  0.17153516075E+03 0.  0.
         24    2    3    3    0    0 -0.47904597518E+02 -0.12365406998E+03 -0.26133571901E+03  0.30354040086E+03  0.79090059063E+02 0.  0.
         -6    2    1    2    0  502  0.66385824676E+02  0.12318196492E+03 -0.38055587094E+02  0.22494094048E+03  0.17195733423E+03 0.  0.
        -24    2    5    5    0    0  0.97146724349E+01  0.56583439001E+02 -0.81438979710E+02  0.12721074092E+03  0.79083530269E+02 0.  0.
          5    1    3    3  501    0 -0.18481227158E+02  0.47210506388E+00  0.17434447002E+02  0.25842379587E+02  0.47000000000E+01 0. -1.
        -13    1    4    4    0    0 -0.17960175610E+02 -0.10926664739E+03 -0.14435844103E+03  0.18193715299E+03  0.00000000000E+00 0.  1.
         14    1    4    4    0    0 -0.29944421908E+02 -0.14387422590E+02 -0.11697727797E+03  0.12160324788E+03  0.00000000000E+00 0. -1.
         -5    1    5    5    0  502  0.56671152241E+02  0.66598525914E+02  0.43383392616E+02  0.97730199556E+02  0.47000000000E+01 0.  1.
         13    1    6    6    0    0  0.31706542723E+02  0.43212867108E+01 -0.55475245915E+01  0.32476967214E+02  0.00000000000E+00 0. -1.
        -14    1    6    6    0    0 -0.21991870289E+02  0.52262152291E+02 -0.75891455118E+02  0.94733773707E+02  0.00000000000E+00 0.  1.
</event>
<event>
12    1  0.8313893E-002  0.1817734E+03  0.7818608E-02  0.1166651E+00
         21   -1    0    0  501  502  0.00000000000E+00  0.00000000000E+00  0.27198245296E+02  0.27198245296E+02  0.00000000000E+00 0.  1.
         21   -1    0    0  502  503 -0.00000000000E+00 -0.00000000000E+00 -0.15631754404E+04  0.15631754404E+04  0.00000000000E+00 0.  1.
         -6    2    1    2    0  503  0.16184568307E+02  0.54226081289E+02 -0.11552683010E+04  0.11694812632E+04  0.17274017907E+03 0.  0.
        -24    2    3    3    0    0 -0.19788969433E+01  0.15935155543E+02 -0.24339548895E+03  0.25661203824E+03  0.79690205881E+02 0.  0.
          6    2    1    2  501    0 -0.16184568307E+02 -0.54226081289E+02 -0.38070889404E+03  0.42089242247E+03  0.17031958532E+03 0.  0.
         24    2    5    5    0    0  0.21342330966E+02  0.24969017680E+02 -0.23991631858E+03  0.25498651186E+03  0.79870735396E+02 0.  0.
          5    1    5    5  501    0 -0.37526899273E+02 -0.79195098969E+02 -0.14079257546E+03  0.16590591061E+03  0.47000000000E+01 0. -1.
        -13    1    6    6    0    0  0.18632710213E+01  0.93436802929E+01  0.36059856206E+01  0.10187211228E+02  0.00000000000E+00 0.  1.
         14    1    6    6    0    0  0.19479059945E+02  0.15625337387E+02 -0.24352230420E+03  0.24479930063E+03  0.00000000000E+00 0. -1.
         -5    1    3    3    0  503  0.18163465250E+02  0.38290925746E+02 -0.91187281207E+03  0.91286922495E+03  0.47000000000E+01 0.  1.
         13    1    4    4    0    0 -0.32547122348E+00  0.34610939324E+02 -0.23221975500E+03  0.23478508825E+03  0.00000000000E+00 0. -1.
        -14    1    4    4    0    0 -0.16534257198E+01 -0.18675783780E+02 -0.11175733943E+02  0.21826949983E+02  0.00000000000E+00 0.  1.
</event>
<event>
12    1  0.8313893E-002  0.2093734E+03  0.7818608E-02  0.1142259E+00
         21   -1    0    0  501  502  0.00000000000E+00  0.00000000000E+00  0.16025665176E+04  0.16025665176E+04  0.00000000000E+00 0. -1.
         21   -1    0    0  502  503 -0.00000000000E+00 -0.00000000000E+00 -0.42366151128E+02  0.42366151128E+02  0.00000000000E+00 0.  1.
         -6    2    1    2    0  503 -0.59778716183E+02 -0.10415573380E+03  0.28961130784E+03  0.35736806645E+03  0.17150893124E+03 0.  0.
        -24    2    3    3    0    0 -0.25834351843E+02 -0.12397562495E+03  0.27860591935E+03  0.31627966746E+03  0.79838589864E+02 0.  0.
          6    2    1    2  501    0  0.59778716183E+02  0.10415573380E+03  0.12705890587E+04  0.12875646023E+04  0.17030601085E+03 0.  0.
         24    2    5    5    0    0  0.10740346064E+03  0.57231010559E+02  0.88753590947E+03  0.89869206401E+03  0.71530017397E+02 0.  0.
          5    1    5    5  501    0 -0.47624744456E+02  0.46924723244E+02  0.38305314919E+03  0.38887253829E+03  0.47000000000E+01 0. -1.
        -11    1    6    6    0    0  0.44504677771E+02  0.40667684032E+02  0.22383477806E+03  0.23181142063E+03  0.00000000000E+00 0.  1.
         12    1    6    6    0    0  0.62898782869E+02  0.16563326527E+02  0.66370113141E+03  0.66688064338E+03  0.00000000000E+00 0. -1.
         -5    1    3    3    0  503 -0.33944364340E+02  0.19819891150E+02  0.11005388482E+02  0.41088398987E+02  0.47000000000E+01 0.  1.
         11    1    4    4    0    0  0.22980068569E+02 -0.29875627718E+02  0.11774005283E+03  0.12362587401E+03  0.00000000000E+00 0. -1.
        -12    1    4    4    0    0 -0.48814420413E+02 -0.94099997236E+02  0.16086586652E+03  0.19265379345E+03  0.00000000000E+00 0.  1.
</event>
<event>
12    1  0.8313893E-002  0.3465564E+03  0.7818608E-02  0.1064797E+00
         21   -1    0    0  501  502  0.00000000000E+00  0.00000000000E+00  0.34487347085E+03  0.34487347085E+03  0.00000000000E+00 0.  1.
         21   -1    0    0  502  503 -0.00000000000E+00 -0.00000000000E+00 -0.43679625698E+03  0.43679625698E+03  0.00000000000E+00 0. -1.
         -6    2    1    2    0  503 -0.29086044318E+03 -0.27658737734E+02  0.13666382648E+03  0.37252968149E+03  0.18637746362E+03 0.  0.
        -24    2    3    3    0    0 -0.24368113901E+03 -0.45432290091E+02  0.40653907246E+02  0.26398577104E+03  0.81185938721E+02 0.  0.
          6    2    1    2  501    0  0.29086044318E+03  0.27658737734E+02 -0.22858661260E+03  0.40914004634E+03  0.17256574074E+03 0.  0.
         24    2    5    5    0    0  0.22574324737E+03 -0.41511845329E+02 -0.18120954462E+03  0.30287859838E+03  0.78837169285E+02 0.  0.
          5    1    5    5  501    0  0.65117195807E+02  0.69170583063E+02 -0.47377067982E+02  0.10626144796E+03  0.47000000000E+01 0. -1.
        -11    1    6    6    0    0  0.19889614487E+02 -0.16201933222E+02  0.25495808548E+01  0.25779832566E+02  0.00000000000E+00 0.  1.
         12    1    6    6    0    0  0.20585363289E+03 -0.25309912106E+02 -0.18375912547E+03  0.27709876582E+03  0.00000000000E+00 0. -1.
         -5    1    3    3    0  503 -0.47179304166E+02  0.17773552357E+02  0.96009919230E+02  0.10854391045E+03  0.47000000000E+01 0.  1.
         11    1    4    4    0    0 -0.12025733987E+03 -0.26146378833E+02 -0.20724926958E+02  0.12479977370E+03  0.00000000000E+00 0. -1.
        -12    1    4    4    0    0 -0.12342379914E+03 -0.19285911258E+02  0.61378834204E+02  0.13918599734E+03  0.00000000000E+00 0.  1.
</event>
<event>
12    1  0.8313893E-002  0.1770456E+03  0.7818608E-02  0.1171208E+00
         21   -1    0    0  503  502  0.00000000000E+00  0.00000000000E+00  0.16249195852E+03  0.16249195852E+03  0.00000000000E+00 0. -1.
         21   -1    0    0  501  503 -0.00000000000E+00 -0.00000000000E+00 -0.19066416033E+03  0.19066416033E+03  0.00000000000E+00 0. -1.
          6    2    1    2  501    0  0.19980653255E+02  0.35154642552E+02 -0.15133597563E+02  0.17563109881E+03  0.17024153928E+03 0.  0.
         24    2    3    3    0    0 -0.47675693621E+02  0.28722793990E+02 -0.38363953150E+02  0.10365548232E+03  0.78579230447E+02 0.  0.
         -6    2    1    2    0  502 -0.19980653255E+02 -0.35154642552E+02 -0.13038604250E+02  0.17752502003E+03  0.17236604114E+03 0.  0.
        -24    2    5    5    0    0  0.15503034232E+01  0.41948120520E+02 -0.30042789819E+02  0.95551545691E+02  0.80408211072E+02 0.  0.
          5    1    3    3  501    0  0.67656346876E+02  0.64318485612E+01  0.23230355586E+02  0.71975616490E+02  0.47000000000E+01 0. -1.
        -11    1    4    4    0    0  0.18560372236E+02 -0.10898033069E+01  0.47474916174E+01  0.19188896932E+02  0.00000000000E+00 0.  1.
         12    1    4    4    0    0 -0.66236065857E+02  0.29812597297E+02 -0.43111444767E+02  0.84466585392E+02  0.00000000000E+00 0. -1.
         -5    1    5    5    0  502 -0.21530956678E+02 -0.77102763071E+02  0.17004185570E+02  0.81973474342E+02  0.47000000000E+01 0.  1.
         11    1    6    6    0    0  0.34594427274E+02  0.24484001437E+01  0.22691823945E+01  0.34755118335E+02  0.00000000000E+00 0. -1.
        -12    1    6    6    0    0 -0.33044123851E+02  0.39499720376E+02 -0.32311972214E+02  0.60796427356E+02  0.00000000000E+00 0.  1.
</event>
<event>
12    1  0.8313893E-002  0.2046596E+03  0.7818608E-02  0.1146014E+00
         21   -1    0    0  501  502  0.00000000000E+00  0.00000000000E+00  0.11781922915E+04  0.11781922915E+04  0.00000000000E+00 0.  1.
         21   -1    0    0  502  503 -0.00000000000E+00 -0.00000000000E+00 -0.46619501416E+02  0.46619501416E+02  0.00000000000E+00 0.  1.
         -6    2    1    2    0  503 -0.10948016955E+03 -0.17196652873E+02  0.26646058850E+03  0.33598632397E+03  0.17205793290E+03 0.  0.
        -24    2    3    3    0    0 -0.48691292964E+02 -0.15231646407E+02  0.26012035561E+03  0.27465576617E+03  0.71905114040E+02 0.  0.
          6    2    1    2  501    0  0.10948016955E+03  0.17196652873E+02  0.86511220156E+03  0.88882546893E+03  0.17120152022E+03 0.  0.
         24    2    5    5    0    0  0.57662215034E+02  0.18136848013E+02  0.79432561990E+03  0.80096868478E+03  0.83329270189E+02 0.  0.
          5    1    5    5  501    0  0.51817954516E+02 -0.94019513973E+00  0.70786581664E+02  0.87856784148E+02  0.47000000000E+01 0. -1.
        -13    1    6    6    0    0  0.76761363000E+02  0.26209101406E+02  0.58037853857E+03  0.58601917365E+03  0.00000000000E+00 0.  1.
         14    1    6    6    0    0 -0.19099147966E+02 -0.80722533930E+01  0.21394708133E+03  0.21494951113E+03  0.00000000000E+00 0. -1.
         -5    1    3    3    0  503 -0.60788876586E+02 -0.19650064661E+01  0.63402328932E+01  0.61330557801E+02  0.47000000000E+01 0.  1.
         11    1    4    4    0    0  0.17338641011E+02 -0.53136054051E+00  0.88511758488E+02  0.90195577535E+02  0.00000000000E+00 0. -1.
        -12    1    4    4    0    0 -0.66029933975E+02 -0.14700285866E+02  0.17160859712E+03  0.18446018863E+03  0.00000000000E+00 0.  1.
</event>
<event>
12    1  0.8313893E-002  0.2063882E+03  0.7818608E-02  0.1144571E+00
         21   -1    0    0  503  502  0.00000000000E+00  0.00000000000E+00  0.17412510727E+04  0.17412510727E+04  0.00000000000E+00 0. -1.
         21   -1    0    0  501  503 -0.00000000000E+00 -0.00000000000E+00 -0.46441745295E+02  0.46441745295E+02  0.00000000000E+00 0. -1.
          6    2    1    2  501    0 -0.11381169942E+03 -0.58423354834E+01  0.23217684220E+03  0.31064799735E+03  0.17207224179E+03 0.  0.
         24    2    3    3    0    0 -0.38218723408E+02  0.58512787530E+02  0.12181907969E+03  0.16213265933E+03  0.81010455638E+02 0.  0.
         -6    2    1    2    0  502  0.11381169942E+03  0.58423354834E+01  0.14626324852E+04  0.14770448206E+04  0.17140705823E+03 0.  0.
        -24    2    5    5    0    0  0.37515637907E+02 -0.27653833396E+02  0.35944221266E+03  0.37070222010E+03  0.77777079918E+02 0.  0.
          5    1    3    3  501    0 -0.75592976007E+02 -0.64355123014E+02  0.11035776251E+03  0.14851533802E+03  0.47000000000E+01 0. -1.
        -13    1    4    4    0    0 -0.23397109128E+02  0.63563030378E+02  0.39648958967E+02  0.78483905953E+02  0.00000000000E+00 0.  1.
         14    1    4    4    0    0 -0.14821614280E+02 -0.50502428479E+01  0.82170120721E+02  0.83648753380E+02  0.00000000000E+00 0. -1.
         -5    1    5    5    0  502  0.76296061509E+02  0.33496168880E+02  0.11031902725E+04  0.11063426005E+04  0.47000000000E+01 0.  1.
         11    1    6    6    0    0  0.16823462778E+02  0.26547877684E+02  0.98699834241E+02  0.10358318391E+03  0.00000000000E+00 0. -1.
        -12    1    6    6    0    0  0.20692175129E+02 -0.54201711080E+02  0.26074237842E+03  0.26711903620E+03  0.00000000000E+00 0.  1.
</event>
<event>
12    1  0.8313893E-002  0.2074607E+03  0.7818608E-02  0.1143798E+00
         21   -1    0    0  503  502  0.00000000000E+00  0.00000000000E+00  0.28152168652E+03  0.28152168652E+03  0.00000000000E+00 0. -1.
         21   -1    0    0  501  503 -0.00000000000E+00 -0.00000000000E+00 -0.15657853242E+03  0.15657853242E+03  0.00000000000E+00 0. -1.
          6    2    1    2  501    0  0.75546482835E+02  0.88083791430E+02  0.25411955675E+02  0.20799936964E+03  0.17073940640E+03 0.  0.
         24    2    3    3    0    0  0.18785561997E+02 -0.14181811292E+02  0.36381992665E+02  0.90430294850E+02  0.79372336021E+02 0.  0.
         -6    2    1    2    0  502 -0.75546482835E+02 -0.88083791430E+02  0.99531198427E+02  0.23010084931E+03  0.17197068358E+03 0.  0.
        -24    2    5    5    0    0 -0.96765934887E+02 -0.66141772142E+02  0.19546477636E+02  0.14436076000E+03  0.81973069125E+02 0.  0.
          5    1    3    3  501    0  0.56760920838E+02  0.10226560272E+03 -0.10970036990E+02  0.11756907479E+03  0.47000000000E+01 0. -1.
        -13    1    4    4    0    0 -0.27026429464E+02 -0.15903948776E+00  0.32635875875E+02  0.42373972876E+02  0.00000000000E+00 0.  1.
         14    1    4    4    0    0  0.45811991461E+02 -0.14022771804E+02  0.37461167900E+01  0.48056321974E+02  0.00000000000E+00 0. -1.
         -5    1    5    5    0  502  0.21219452052E+02 -0.21942019288E+02  0.79984720791E+02  0.85740089315E+02  0.47000000000E+01 0.  1.
         11    1    6    6    0    0 -0.31388145966E+02 -0.49501447971E+02 -0.24782284874E+02  0.63637808746E+02  0.00000000000E+00 0. -1.
        -12    1    6    6    0    0 -0.65377788921E+02 -0.16640324171E+02  0.44328762510E+02  0.80722951249E+02  0.00000000000E+00 0.  1.
</event>
<event>
12    1  0.8313893E-002  0.1955406E+03  0.7818608E-02  0.1155102E+00
         21   -1    0    0  503  502  0.00000000000E+00  0.00000000000E+00  0.26864253514E+04  0.26864253514E+04  0.00000000000E+00 0. -1.
         21   -1    0    0  501  503 -0.00000000000E+00 -0.00000000000E+00 -0.14904956001E+02  0.14904956001E+02  0.00000000000E+00 0.  1.
          6    2    1    2  501    0  0.49139594638E+02 -0.80638685484E+02  0.97890187356E+03  0.99824095155E+03  0.17122739833E+03 0.  0.
         24    2    3    3    0    0 -0.10112051897E+02 -0.13139707626E+02  0.21591344265E+03  0.22996996724E+03  0.77412309144E+02 0.  0.
         -6    2    1    2    0  502 -0.49139594638E+02  0.80638685484E+02  0.16926185219E+04  0.17030893559E+04  0.16321334558E+03 0.  0.
        -24    2    5    5    0    0 -0.51355734797E+02 -0.12749957385E+02  0.82495878679E+03  0.83040278226E+03  0.78815023791E+02 0.  0.
          5    1    3    3  501    0  0.59251646535E+02 -0.67498977858E+02  0.76298843091E+03  0.76827098431E+03  0.47000000000E+01 0. -1.
        -13    1    4    4    0    0 -0.26144803114E+02  0.25970554507E+02  0.10455689615E+03  0.11086101643E+03  0.00000000000E+00 0.  1.
         14    1    4    4    0    0  0.16032751217E+02 -0.39110262132E+02  0.11135654650E+03  0.11910895081E+03  0.00000000000E+00 0. -1.
         -5    1    5    5    0  502  0.22161401589E+01  0.93388642869E+02  0.86765973509E+03  0.87268657363E+03  0.47000000000E+01 0.  1.
         13    1    6    6    0    0 -0.36763512445E+02 -0.89625315611E+01  0.80227078917E+03  0.80316268711E+03  0.00000000000E+00 0. -1.
        -14    1    6    6    0    0 -0.14592222352E+02 -0.37874258242E+01  0.22687997621E+02  0.27240095146E+02  0.00000000000E+00 0.  1.
</event>
<event>
12    1  0.8313893E-002  0.1912091E+03  0.7818608E-02  0.1157570E+00
         21   -1    0    0  501  502  0.00000000000E+00  0.00000000000E+00  0.97659416118E+02  0.97659416118E+02  0.00000000000E+00 0.  1.
         21   -1    0    0  502  503 -0.00000000000E+00 -0.00000000000E+00 -0.37940911073E+03  0.37940911073E+03  0.00000000000E+00 0.  1.
         -6    2    1    2    0  503 -0.89513172062E+00 -0.81213226487E+02 -0.17298054335E+03  0.25784334313E+03  0.17310266261E+03 0.  0.
        -24    2    3    3    0    0  0.51781629383E+02 -0.71968988368E+01 -0.64526548829E+02  0.11628905374E+03  0.81402309675E+02 0.  0.
          6    2    1    2  501    0  0.89513172062E+00  0.81213226487E+02 -0.10876915126E+03  0.21922518371E+03  0.17214111505E+03 0.  0.
         24    2    5    5    0    0 -0.18460233103E+02  0.45864241013E+02  0.12871624851E+02  0.90995899481E+02  0.75301169886E+02 0.  0.
          5    1    5    5  501    0  0.19355364824E+02  0.35348985475E+02 -0.12164077611E+03  0.12822928423E+03  0.47000000000E+01 0. -1.
        -13    1    6    6    0    0 -0.48513574559E+01  0.64860986075E+02  0.16259977817E+01  0.65062485755E+02  0.00000000000E+00 0.  1.
         14    1    6    6    0    0 -0.13608875647E+02 -0.18996745062E+02  0.11245627070E+02  0.25933413727E+02  0.00000000000E+00 0. -1.
         -5    1    3    3    0  503 -0.52676761103E+02 -0.74016327651E+02 -0.10845399452E+03  0.14155428939E+03  0.47000000000E+01 0.  1.
         13    1    4    4    0    0  0.10138360633E+02  0.18311446509E+02 -0.64122977158E+02  0.67452588010E+02  0.00000000000E+00 0. -1.
        -14    1    4    4    0    0  0.41643268749E+02 -0.25508345346E+02 -0.40357167056E+00  0.48836465725E+02  0.00000000000E+00 0.  1.
</event>
<event>
12    1  0.8313893E-002  0.1817713E+03  0.7818608E-02  0.1167093E+00
         21   -1    0    0  501  502  0.00000000000E+00  0.00000000000E+00  0.11693503581E+04  0.11693503581E+04  0.00000000000E+00 0.  1.
         21   -1    0    0  502  503 -0.00000000000E+00 -0.00000000000E+00 -0.37497371089E+02  0.37497371089E+02  0.00000000000E+00 0.  1.
         -6    2    1    2    0  503  0.31982266464E+02 -0.42174812549E+02  0.25148851085E+03  0.30791367708E+03  0.16959593527E+03 0.  0.
        -24    2    3    3    0    0 -0.39469103958E+02 -0.43079825949E+02  0.13232570411E+03  0.16888856461E+03  0.87175533943E+02 0.  0.
          6    2    1    2  501    0 -0.31982266464E+02  0.42174812549E+02  0.88036447615E+03  0.89893405210E+03  0.17389433281E+03 0.  0.
         24    2    5    5    0    0 -0.74282383991E+02  0.52476816938E+02  0.43394910552E+03  0.45037613570E+03  0.79089496998E+02 0.  0.
          5    1    5    5  501    0  0.42300117527E+02 -0.10302004389E+02  0.44641537063E+03  0.44855791640E+03  0.47000000000E+01 0. -1.
        -11    1    6    6    0    0  0.58747575606E-01  0.11421027260E+02  0.21843037731E+03  0.21872876593E+03  0.00000000000E+00 0.  1.
         12    1    6    6    0    0 -0.74341131566E+02  0.41055789679E+02  0.21551872821E+03  0.23164736977E+03  0.00000000000E+00 0. -1.
         -5    1    3    3    0  503  0.71451370422E+02  0.90501340024E+00  0.11916280674E+03  0.13902511246E+03  0.47000000000E+01 0.  1.
         13    1    4    4    0    0 -0.45272457785E+02 -0.27374882735E+02  0.14059158440E+03  0.15021642135E+03  0.00000000000E+00 0. -1.
        -14    1    4    4    0    0  0.58033538272E+01 -0.15704943214E+02 -0.82658802937E+01  0.18672143263E+02  0.00000000000E+00 0.  1.
</event>
<event>
12    1  0.8313893E-002  0.3027451E+03  0.7818608E-02  0.1084182E+00
         21   -1    0    0  501  502  0.00000000000E+00  0.00000000000E+00  0.45328797919E+03  0.45328797919E+03  0.00000000000E+00 0.  1.
         21   -1    0    0  502  503 -0.00000000000E+00 -0.00000000000E+00 -0.26592472501E+03  0.26592472501E+03  0.00000000000E+00 0.  1.
         -6    2    1    2    0  503  0.24809469715E+03 -0.17047717677E+02 -0.84320923367E+02  0.31426840660E+03  0.17266444288E+03 0.  0.
        -24    2    3    3    0    0  0.10636556585E+03 -0.40559174449E+02 -0.97505391715E+02  0.16992210264E+03  0.80047106895E+02 0.  0.
          6    2    1    2  501    0 -0.24809469715E+03  0.17047717677E+02  0.27168417754E+03  0.40494429761E+03  0.16830326321E+03 0.  0.
         24    2    5    5    0    0 -0.96688315582E+02 -0.44764210121E+02  0.14900375068E+03  0.20045179424E+03  0.81402329330E+02 0.  0.
          5    1    5    5  501    0 -0.15140638157E+03  0.61811927798E+02  0.12268042686E+03  0.20449250337E+03  0.47000000000E+01 0. -1.
        -13    1    6    6    0    0 -0.60805656299E+02  0.88879511920E+01  0.38613460487E+02  0.72576324274E+02  0.00000000000E+00 0.  1.
         14    1    6    6    0    0 -0.35882659283E+02 -0.53652161313E+02  0.11039029019E+03  0.12787546997E+03  0.00000000000E+00 0. -1.
         -5    1    3    3    0  503  0.14172913130E+03  0.23511456773E+02  0.13184468348E+02  0.14434630395E+03  0.47000000000E+01 0.  1.
         13    1    4    4    0    0  0.91059651296E+01 -0.40101893101E+02 -0.20981090882E+02  0.46165859743E+02  0.00000000000E+00 0. -1.
        -14    1    4    4    0    0  0.97259600720E+02 -0.45728134859E+00 -0.76524300833E+02  0.12375624290E+03  0.00000000000E+00 0.  1.
</event>
<event>
12    1  0.8313893E-002  0.2864073E+03  0.7818608E-02  0.1092406E+00
         21   -1    0    0  501  502  0.00000000000E+00  0.00000000000E+00  0.18935069699E+03  0.18935069699E+03  0.00000000000E+00 0. -1.
         21   -1    0    0  502  503 -0.00000000000E+00 -0.00000000000E+00 -0.76030823377E+03  0.76030823377E+03  0.00000000000E+00 0. -1.
         -6    2    1    2    0  503 -0.20509138657E+03 -0.97733197118E+02 -0.59817613597E+03  0.66320721843E+03  0.17439859596E+03 0.  0.
        -24    2    3    3    0    0 -0.18664209254E+03 -0.41462360574E+02 -0.54681477968E+03  0.58467784549E+03  0.79293011484E+02 0.  0.
          6    2    1    2  501    0  0.20509138657E+03  0.97733197118E+02  0.27218599191E+02  0.28645171233E+03  0.17233536111E+03 0.  0.
         24    2    5    5    0    0  0.71552570827E+02  0.85113726918E+00 -0.29547145816E+02  0.11191464281E+03  0.80816821408E+02 0.  0.
          5    1    5    5  501    0  0.13353881574E+03  0.96882059848E+02  0.56765745008E+02  0.17453706952E+03  0.47000000000E+01 0. -1.
        -13    1    6    6    0    0 -0.11976885244E+02  0.10364355503E+02  0.10286244712E+02  0.18885774420E+02  0.00000000000E+00 0.  1.
         14    1    6    6    0    0  0.83529456071E+02 -0.95132182342E+01 -0.39833390528E+02  0.93028868389E+02  0.00000000000E+00 0. -1.
         -5    1    3    3    0  503 -0.18449294022E+02 -0.56270836544E+02 -0.51361356287E+02  0.78529372943E+02  0.47000000000E+01 0.  1.
         13    1    4    4    0    0 -0.49536874851E+02 -0.46445359501E+02 -0.21977462658E+03  0.23002599826E+03  0.00000000000E+00 0. -1.
        -14    1    4    4    0    0 -0.13710521769E+03  0.49829989272E+01 -0.32704015311E+03  0.35465184723E+03  0.00000000000E+00 0.  1.
</event>
<event>
12    1  0.8313893E-002  0.1744186E+03  0.7818608E-02  0.1173814E+00
         21   -1    0    0  501  502  0.00000000000E+00  0.00000000000E+00  0.31914391943E+03  0.31914391943E+03  0.00000000000E+00 0. -1.
         21   -1    0    0  502  503 -0.00000000000E+00 -0.00000000000E+00 -0.99036818641E+02  0.99036818641E+02  0.00000000000E+00 0. -1.
         -6    2    1    2    0  503  0.16334410993E+02 -0.16462376810E+02  0.63520447131E+02  0.18378532215E+03  0.17089287464E+03 0.  0.
        -24    2    3    3    0    0  0.15739570664E+02  0.55119893242E+02  0.24325826042E+02  0.10203763996E+03  0.80833145681E+02 0.  0.
          6    2    1    2  501    0 -0.16334410993E+02  0.16462376810E+02  0.15658665366E+03  0.23439541592E+03  0.17286991661E+03 0.  0.
         24    2    5    5    0    0 -0.38757596170E+02 -0.27548171290E+02  0.28635126971E+02  0.97160541495E+02  0.79744262017E+02 0.  0.
          5    1    5    5  501    0  0.22423185178E+02  0.44010548099E+02  0.12795152669E+03  0.13723487443E+03  0.47000000000E+01 0. -1.
        -11    1    6    6    0    0 -0.26165050895E+02  0.29406130709E+01 -0.23615278149E+02  0.35368608336E+02  0.00000000000E+00 0.  1.
         12    1    6    6    0    0 -0.12592545275E+02 -0.30488784361E+02  0.52250405120E+02  0.61791933159E+02  0.00000000000E+00 0. -1.
         -5    1    3    3    0  503  0.59484032848E+00 -0.71582270052E+02  0.39194621089E+02  0.81747682188E+02  0.47000000000E+01 0.  1.
         13    1    4    4    0    0  0.34139837168E+02  0.95689500365E+01  0.37058293759E+02  0.51287526973E+02  0.00000000000E+00 0. -1.
        -14    1    4    4    0    0 -0.18400266504E+02  0.45550943206E+02 -0.12732467717E+02  0.50750112990E+02  0.00000000000E+00 0.  1.
</event>
<event>
12    1  0.8313893E-002  0.2086580E+03  0.7818608E-02  0.1143180E+00
         21   -1    0    0  503  502  0.00000000000E+00  0.00000000000E+00  0.30561125825E+03  0.30561125825E+03  0.00000000000E+00 0. -1.
         21   -1    0    0  501  503 -0.00000000000E+00 -0.00000000000E+00 -0.17447187773E+03  0.17447187773E+03  0.00000000000E+00 0. -1.
          6    2    1    2  501    0  0.48079549208E+02 -0.10257009621E+03 -0.39829554565E+02  0.21242538579E+03  0.17523094311E+03 0.  0.
         24    2    3    3    0    0  0.12187563196E+02 -0.13128530118E+02 -0.73131415414E+02  0.11035123460E+03  0.80674011044E+02 0.  0.
         -6    2    1    2    0  502 -0.48079549208E+02  0.10257009621E+03  0.17096893509E+03  0.26765775019E+03  0.17198263513E+03 0.  0.
        -24    2    5    5    0    0 -0.94189991704E+02  0.62353431917E+02  0.14770586162E+03  0.20203143244E+03  0.78993500559E+02 0.  0.
          5    1    3    3  501    0  0.35891986012E+02 -0.89441566091E+02  0.33301860849E+02  0.10207415119E+03  0.47000000000E+01 0. -1.
        -13    1    4    4    0    0 -0.83628175741E+01 -0.23395462164E+02  0.79438251050E+01  0.26084262016E+02  0.00000000000E+00 0.  1.
         14    1    4    4    0    0  0.20550380770E+02  0.10266932046E+02 -0.81075240519E+02  0.84266972585E+02  0.00000000000E+00 0. -1.
         -5    1    5    5    0  502  0.46110442496E+02  0.40216664293E+02  0.23263073472E+02  0.65626317750E+02  0.47000000000E+01 0.  1.
         13    1    6    6    0    0 -0.10674727021E+02  0.35546861897E+02  0.89156360099E+02  0.96573214370E+02  0.00000000000E+00 0. -1.
        -14    1    6    6    0    0 -0.83515264684E+02  0.26806570020E+02  0.58549501518E+02  0.10545821807E+03  0.00000000000E+00 0.  1.
</event>
<event>
12    1  0.8313893E-002  0.2639148E+03  0.7818608E-02  0.1105003E+00
         21   -1    0    0  503  502  0.00000000000E+00  0.00000000000E+00  0.46779143290E+03  0.46779143290E+03  0.00000000000E+00 0.  1.
         21   -1    0    0  501  503 -0.00000000000E+00 -0.00000000000E+00 -0.29592256372E+03  0.29592256372E+03  0.00000000000E+00 0.  1.
          6    2    1    2  501    0 -0.53982105823E+02  0.19303810412E+03 -0.18399304395E+03  0.32066914676E+03  0.16969821470E+03 0.  0.
         24    2    3    3    0    0 -0.14932365746E+02  0.11374640790E+03 -0.18416178891E+03  0.23215827870E+03  0.82587414410E+02 0.  0.
         -6    2    1    2    0  502  0.53982105823E+02 -0.19303810412E+03  0.35586191313E+03  0.44304484986E+03  0.17167778068E+03 0.  0.
        -24    2    5    5    0    0  0.39869616348E+01 -0.18103938247E+02  0.13206928123E+03  0.15458911855E+03  0.78178335147E+02 0.  0.
          5    1    3    3  501    0 -0.39049740077E+02  0.79291696220E+02  0.16874496116E+00  0.88510868058E+02  0.47000000000E+01 0. -1.
        -13    1    4    4    0    0 -0.42311105222E+02  0.44106964681E+02 -0.51838854941E+02  0.80143127216E+02  0.00000000000E+00 0.  1.
         14    1    4    4    0    0  0.27378739476E+02  0.69639443216E+02 -0.13232293397E+03  0.15201515149E+03  0.00000000000E+00 0. -1.
         -5    1    5    5    0  502  0.49995144188E+02 -0.17493416587E+03  0.22379263190E+03  0.28845573131E+03  0.47000000000E+01 0.  1.
         11    1    6    6    0    0 -0.35203386212E+02 -0.12069609605E+01  0.78933791802E+02  0.86436558491E+02  0.00000000000E+00 0. -1.
        -12    1    6    6    0    0  0.39190347847E+02 -0.16896977286E+02  0.53135489429E+02  0.68152560059E+02  0.00000000000E+00 0.  1.
</event>
<event>
12    1  0.8313893E-002  0.3080498E+03  0.7818608E-02  0.1081292E+00
         21   -1    0    0  501  502  0.00000000000E+00  0.00000000000E+00  0.21416989985E+03  0.21416989985E+03  0.00000000000E+00 0. -1.
         21   -1    0    0  502  503 -0.00000000000E+00 -0.00000000000E+00 -0.72629631226E+03  0.72629631226E+03  0.00000000000E+00 0. -1.
         -6    2    1    2    0  503  0.25405540941E+03  0.22676157576E+02  0.37607687723E+02  0.31033694397E+03  0.17273193522E+03 0.  0.
        -24    2    3    3    0    0  0.48362108665E+02  0.13889301210E+02 -0.22232586092E+02  0.95884405662E+02  0.78534865647E+02 0.  0.
          6    2    1    2  501    0 -0.25405540941E+03 -0.22676157576E+02 -0.54973410013E+03  0.63012926814E+03  0.17261794386E+03 0.  0.
         24    2    5    5    0    0 -0.15309448594E+03 -0.19596654337E+02 -0.18996697551E+03  0.25642207611E+03  0.76438726105E+02 0.  0.
          5    1    5    5  501    0 -0.10096092347E+03 -0.30795032389E+01 -0.35976712463E+03  0.37370719202E+03  0.47000000000E+01 0. -1.
        -13    1    6    6    0    0  0.14693878854E+01  0.31678236415E+01 -0.39040477202E+02  0.39196339976E+02  0.00000000000E+00 0.  1.
         14    1    6    6    0    0 -0.15456387383E+03 -0.22764477978E+02 -0.15092649830E+03  0.21722573614E+03  0.00000000000E+00 0. -1.
         -5    1    3    3    0  503  0.20569330075E+03  0.87868563654E+01  0.59840273816E+02  0.21445253831E+03  0.47000000000E+01 0.  1.
         13    1    4    4    0    0  0.32472442333E+02 -0.28778684054E+02  0.35949491349E+01  0.43538440788E+02  0.00000000000E+00 0. -1.
        -14    1    4    4    0    0  0.15889666332E+02  0.42667985265E+02 -0.25827535227E+02  0.52345964874E+02  0.00000000000E+00 0.  1.
</event>
<event>
12    1  0.8313893E-002  0.2099622E+03  0.7818608E-02  0.1141646E+00
         21   -1    0    0  503  502  0.00000000000E+00  0.00000000000E+00  0.18705276064E+03  0.18705276064E+03  0.00000000000E+00 0.  1.
         21   -1    0    0  501  503 -0.00000000000E+00 -0.00000000000E+00 -0.25307464748E+03  0.25307464748E+03  0.00000000000E+00 0.  1.
          6    2    1    2  501    0  0.48625639959E+02  0.11102698017E+03 -0.91194669125E+02  0.22891178995E+03  0.17144298386E+03 0.  0.
         24    2    3    3    0    0 -0.67000239945E+01  0.80834586445E+02 -0.11471673681E+03  0.16147376359E+03  0.79590991565E+02 0.  0.
         -6    2    1    2    0  502 -0.48625639959E+02 -0.11102698017E+03  0.25172782286E+02  0.21121561818E+03  0.17113423155E+03 0.  0.
        -24    2    5    5    0    0  0.10451280685E+02 -0.11466668959E+03  0.15816797883E+02  0.15110776111E+03  0.96569691949E+02 0.  0.
          5    1    3    3  501    0  0.55325663954E+02  0.30192393723E+02  0.23522067682E+02  0.67438026355E+02  0.47000000000E+01 0. -1.
        -11    1    4    4    0    0  0.28366667193E+02  0.20010339388E+02 -0.70274950275E+02  0.78381439935E+02  0.00000000000E+00 0.  1.
         12    1    4    4    0    0 -0.35066691188E+02  0.60824247057E+02 -0.44441786532E+02  0.83092323659E+02  0.00000000000E+00 0. -1.
         -5    1    5    5    0  502 -0.59076920644E+02  0.36397094189E+01  0.93559844024E+01  0.60107857070E+02  0.47000000000E+01 0.  1.
         11    1    6    6    0    0  0.50311068787E+01  0.16454642512E+02 -0.56917414786E+01  0.18123554223E+02  0.00000000000E+00 0. -1.
        -12    1    6    6    0    0  0.54201738063E+01 -0.13112133210E+03  0.21508539362E+02  0.13298420689E+03  0.00000000000E+00 0.  1.
</event>
<event>
12    1  0.8313893E-002  0.1802442E+03  0.7818608E-02  0.1167785E+00
         21   -1    0    0  501  502  0.00000000000E+00  0.00000000000E+00  0.18405021612E+03  0.18405021612E+03  0.00000000000E+00 0. -1.
         21   -1    0    0  502  503 -0.00000000000E+00 -0.00000000000E+00 -0.32855383769E+03  0.32855383769E+03  0.00000000000E+00 0. -1.
         -6    2    1    2    0  503 -0.11499903704E+02  0.51621970592E+02 -0.24720254182E+03  0.30593639974E+03  0.17231049988E+03 0.  0.
        -24    2    3    3    0    0 -0.24562059093E+02  0.63726194099E+02 -0.26231751975E+03  0.28211026518E+03  0.78175430837E+02 0.  0.
          6    2    1    2  501    0  0.11499903704E+02 -0.51621970592E+02  0.10269892025E+03  0.20666765408E+03  0.17136912029E+03 0.  0.
         24    2    5    5    0    0  0.27557405730E+01 -0.35230644934E+02 -0.14795757625E+02  0.87620498398E+02  0.78801299782E+02 0.  0.
          5    1    5    5  501    0  0.87441631315E+01 -0.16391325658E+02  0.11749467788E+03  0.11904715568E+03  0.47000000000E+01 0. -1.
        -11    1    6    6    0    0 -0.35155633013E+02 -0.42267155436E+01 -0.15471209607E+02  0.38641195421E+02  0.00000000000E+00 0.  1.
         12    1    6    6    0    0  0.37911373586E+02 -0.31003929390E+02  0.67545198211E+00  0.48979302978E+02  0.00000000000E+00 0. -1.
         -5    1    3    3    0  503  0.13062155389E+02 -0.12104223507E+02  0.15114977935E+02  0.23826134560E+02  0.47000000000E+01 0.  1.
         13    1    4    4    0    0 -0.43235493228E+02  0.22065968897E+02 -0.75213560056E+02  0.89517006621E+02  0.00000000000E+00 0. -1.
        -14    1    4    4    0    0  0.18673434135E+02  0.41660225202E+02 -0.18710395970E+03  0.19259325856E+03  0.00000000000E+00 0.  1.
</event>
<event>
12    1  0.8313893E-002  0.1766285E+03  0.7818608E-02  0.1171215E+00
         21   -1    0    0  503  502  0.00000000000E+00  0.00000000000E+00  0.40114530175E+02  0.40114530175E+02  0.00000000000E+00 0. -1.
         21   -1    0    0  501  503 -0.00000000000E+00 -0.00000000000E+00 -0.99655956358E+03  0.99655956358E+03  0.00000000000E+00 0. -1.
          6    2    1    2  501    0 -0.36462931298E+02 -0.10892539208E+02 -0.72264368154E+03  0.74391633061E+03  0.17248021250E+03 0.  0.
         24    2    3    3    0    0 -0.39272053259E+02 -0.14470723152E+02 -0.18742546882E+03  0.20865815011E+03  0.81597924281E+02 0.  0.
         -6    2    1    2    0  502  0.36462931298E+02  0.10892539208E+02 -0.23380135186E+03  0.29275776315E+03  0.17203442382E+03 0.  0.
        -24    2    5    5    0    0  0.52835827604E+02  0.65194385623E+02 -0.12186022003E+03  0.16718041944E+03  0.77829601192E+02 0.  0.
          5    1    3    3  501    0  0.28091219613E+01  0.35781839440E+01 -0.53521821272E+03  0.53525818050E+03  0.47000000000E+01 0. -1.
        -13    1    4    4    0    0 -0.59283718677E+02  0.78084126255E+01 -0.10326134257E+03  0.11932491557E+03  0.00000000000E+00 0.  1.
         14    1    4    4    0    0  0.20011665418E+02 -0.22279135777E+02 -0.84164126258E+02  0.89333234535E+02  0.00000000000E+00 0. -1.
         -5    1    5    5    0  502 -0.16372896306E+02 -0.54301846415E+02 -0.11194113183E+03  0.12557734371E+03  0.47000000000E+01 0.  1.
         13    1    6    6    0    0  0.58697589887E+02  0.58962543522E+02 -0.13066457577E+03  0.15490390556E+03  0.00000000000E+00 0. -1.
        -14    1    6    6    0    0 -0.58617622829E+01  0.62318421000E+01  0.88043557367E+01  0.12276513876E+02  0.00000000000E+00 0.  1.
</event>
<event>
12    1  0.8313893E-002  0.2616565E+03  0.7818608E-02  0.1106272E+00
         21   -1    0    0  501  502  0.00000000000E+00  0.00000000000E+00  0.23188304382E+03  0.23188304382E+03  0.00000000000E+00 0. -1.
         21   -1    0    0  502  503 -0.00000000000E+00 -0.00000000000E+00 -0.36488983273E+03  0.36488983273E+03  0.00000000000E+00 0.  1.
         -6    2    1    2    0  503  0.16649558043E+03 -0.10443891095E+03 -0.19778412475E+03  0.32799799978E+03  0.17273060943E+03 0.  0.
        -24    2    3    3    0    0  0.49960362492E+02 -0.11747819406E+02 -0.14863147166E+02  0.92086428397E+02  0.74999653801E+02 0.  0.
          6    2    1    2  501    0 -0.16649558043E+03  0.10443891095E+03  0.64777335834E+02  0.26877487677E+03  0.17150966946E+03 0.  0.
         24    2    5    5    0    0 -0.71156381379E+02  0.19280533121E+01 -0.36165892692E+01  0.11289717535E+03  0.87554237377E+02 0.  0.
          5    1    5    5  501    0 -0.95339199054E+02  0.10251085764E+03  0.68393925103E+02  0.15587770142E+03  0.47000000000E+01 0. -1.
        -11    1    6    6    0    0  0.98586798351E+01  0.21962308154E+02 -0.15453052931E+02  0.28606527095E+02  0.00000000000E+00 0.  1.
         12    1    6    6    0    0 -0.81015061214E+02 -0.20034254842E+02  0.11836463662E+02  0.84290648251E+02  0.00000000000E+00 0. -1.
         -5    1    3    3    0  503  0.11653521794E+03 -0.92691091542E+02 -0.18292097759E+03  0.23591157139E+03  0.47000000000E+01 0.  1.
         13    1    4    4    0    0  0.17278076436E+02  0.27669666273E+02 -0.23439376915E+02  0.40168977422E+02  0.00000000000E+00 0. -1.
        -14    1    4    4    0    0  0.32682286055E+02 -0.39417485679E+02  0.85762297495E+01  0.51917450975E+02  0.00000000000E+00 0.  1.
</event>
<event>
12    1  0.8313893E-002  0.2987235E+03  0.7818608E-02  0.1085973E+00
         21   -1    0    0  501  502  0.00000000000E+00  0.00000000000E+00  0.20182501293E+04  0.20182501293E+04  0.00000000000E+00 0.  1.
         21   -1    0    0  502  503 -0.00000000000E+00 -0.00000000000E+00 -0.47371661615E+02  0.47371661615E+02  0.00000000000E+00 0. -1.
         -6    2    1    2    0  503 -0.12210655379E+03  0.20996154498E+03  0.71536734571E+03  0.77523296520E+03  0.17390184065E+03 0.  0.
        -24    2    3    3    0    0 -0.17499335325E+02  0.13877335547E+03  0.49720636910E+03  0.52298957045E+03  0.82095349456E+02 0.  0.
          6    2    1    2  501    0  0.12210655379E+03 -0.20996154498E+03  0.12555111220E+04  0.12903888257E+04  0.17263048185E+03 0.  0.
         24    2    5    5    0    0  0.57269735239E+01 -0.12142022485E+03  0.50550909278E+03  0.52624950211E+03  0.81384435616E+02 0.  0.
          5    1    5    5  501    0  0.11637958027E+03 -0.88541320136E+02  0.75000202918E+03  0.76413932358E+03  0.47000000000E+01 0. -1.
        -11    1    6    6    0    0  0.17429021136E+02 -0.20023772326E+02  0.24538293044E+03  0.24681471753E+03  0.00000000000E+00 0.  1.
         12    1    6    6    0    0 -0.11702047612E+02 -0.10139645252E+03  0.26012616234E+03  0.27943478458E+03  0.00000000000E+00 0. -1.
         -5    1    3    3    0  503 -0.10460721847E+03  0.71188189509E+02  0.21816097661E+03  0.25224339475E+03  0.47000000000E+01 0.  1.
         11    1    4    4    0    0 -0.40226301280E+02  0.11298892182E+03  0.44178247977E+03  0.45777331857E+03  0.00000000000E+00 0. -1.
        -12    1    4    4    0    0  0.22726965954E+02  0.25784433653E+02  0.55423889331E+02  0.65216251877E+02  0.00000000000E+00 0.  1.
</event>
<event>
12    1  0.8313893E-002  0.1778439E+03  0.7818608E-02  0.1170313E+00
         21   -1    0    0  501  502  0.00000000000E+00  0.00000000000E+00  0.19552515482E+03  0.19552515482E+03  0.00000000000E+00 0. -1.
         21   -1    0    0  502  503 -0.00000000000E+00 -0.00000000000E+00 -0.37489144994E+03  0.37489144994E+03  0.00000000000E+00 0.  1.
         -6    2    1    2    0  503  0.58858452178E+00  0.38726588394E+02 -0.30565822314E+03  0.35363174748E+03  0.17357525276E+03 0.  0.
        -24    2    3    3    0    0  0.66752287007E+02  0.35561235790E+02 -0.16199568429E+03  0.19536403108E+03  0.78765687966E+02 0.  0.
          6    2    1    2  501    0 -0.58858452178E+00 -0.38726588394E+02  0.12629192802E+03  0.21678485728E+03  0.17188929048E+03 0.  0.
         24    2    5    5    0    0  0.33183193857E+02  0.15181789406E+01  0.12420738211E+02  0.91290187347E+02  0.84120118559E+02 0.  0.
          5    1    5    5  501    0 -0.33771778379E+02 -0.40244767334E+02  0.11387118981E+03  0.12549466993E+03  0.47000000000E+01 0. -1.
        -11    1    6    6    0    0  0.24087276883E+01 -0.35917616295E+02 -0.10757291938E+02  0.37571218496E+02  0.00000000000E+00 0.  1.
         12    1    6    6    0    0  0.30774466169E+02  0.37435795236E+02  0.23178030148E+02  0.53718968851E+02  0.00000000000E+00 0. -1.
         -5    1    3    3    0  503 -0.66163702486E+02  0.31653526033E+01 -0.14366253885E+03  0.15826771640E+03  0.47000000000E+01 0.  1.
         11    1    4    4    0    0  0.15029144643E+02  0.51994269604E+02 -0.69044849840E+02  0.87729530660E+02  0.00000000000E+00 0. -1.
        -12    1    4    4    0    0  0.51723142364E+02 -0.16433033814E+02 -0.92950834450E+02  0.10763450042E+03  0.00000000000E+00 0.  1.
</event>
<event>
12    1  0.8313893E-002  0.1757122E+03  0.7818608E-02  0.1172141E+00
         21   -1    0    0  501  502  0.00000000000E+00  0.00000000000E+00  0.17853124169E+04  0.17853124169E+04  0.00000000000E+00 0.  1.
         21   -1    0    0  502  503 -0.00000000000E+00 -0.00000000000E+00 -0.19344200385E+02  0.19344200385E+02  0.00000000000E+00 0.  1.
         -6    2    1    2    0  503  0.20355174988E+02 -0.26856916064E+02  0.58688394202E+03  0.61262348743E+03  0.17245042433E+03 0.  0.
        -24    2    3    3    0    0 -0.32854901483E+02 -0.63206348633E+02  0.42564622015E+03  0.43892177056E+03  0.80019553155E+02 0.  0.
          6    2    1    2  501    0 -0.20355174988E+02  0.26856916064E+02  0.11790842745E+04  0.11920331299E+04  0.17195240400E+03 0.  0.
         24    2    5    5    0    0 -0.30999928376E+02 -0.15652159481E+02  0.10812649164E+04  0.10847435727E+04  0.79553838443E+02 0.  0.
          5    1    5    5  501    0  0.10644753388E+02  0.42509075546E+02  0.97819358065E+02  0.10728955723E+03  0.47000000000E+01 0. -1.
        -11    1    6    6    0    0  0.55266820919E+01  0.25772370138E+02  0.54627030679E+03  0.54690584872E+03  0.00000000000E+00 0.  1.
         12    1    6    6    0    0 -0.36526610468E+02 -0.41424529619E+02  0.53499460966E+03  0.53783772394E+03  0.00000000000E+00 0. -1.
         -5    1    3    3    0  503  0.53210076471E+02  0.36349432569E+02  0.16123772188E+03  0.17370171687E+03  0.47000000000E+01 0.  1.
         11    1    4    4    0    0  0.39994688917E+01 -0.59110438449E+02  0.34638832207E+03  0.35141842489E+03  0.00000000000E+00 0. -1.
        -12    1    4    4    0    0 -0.36854370375E+02 -0.40959101841E+01  0.79257898071E+02  0.87503345665E+02  0.00000000000E+00 0.  1.
</event>
<event>
12    1  0.8313893E-002  0.1812946E+03  0.7818608E-02  0.1166603E+00
         21   -1    0    0  501  502  0.00000000000E+00  0.00000000000E+00  0.47205603279E+02  0.47205603279E+02  0.00000000000E+00 0.  1.
         21   -1    0    0  502  503 -0.00000000000E+00 -0.00000000000E+00 -0.10833279210E+04  0.10833279210E+04  0.00000000000E+00 0. -1.
         -6    2    1    2    0  503 -0.37273413383E+02  0.46019084964E+02 -0.85608905672E+03  0.87503455595E+03  0.17114303240E+03 0.  0.
        -24    2    3    3    0    0 -0.40522514957E+02  0.62512569529E+02 -0.84917143140E+03  0.85625863429E+03  0.80850685312E+02 0.  0.
          6    2    1    2  501    0  0.37273413383E+02 -0.46019084964E+02 -0.18003326098E+03  0.25549896831E+03  0.17134959650E+03 0.  0.
         24    2    5    5    0    0  0.19004780507E+00 -0.32264612721E+02 -0.19432930857E+03  0.21318078680E+03  0.81493106094E+02 0.  0.
          5    1    5    5  501    0  0.37083365578E+02 -0.13754472244E+02  0.14296047590E+02  0.42318181506E+02  0.47000000000E+01 0. -1.
        -13    1    6    6    0    0 -0.14698527382E+02  0.24563623923E+02 -0.55937267806E+02  0.62836265460E+02  0.00000000000E+00 0.  1.
         14    1    6    6    0    0  0.14888575188E+02 -0.56828236643E+02 -0.13839204076E+03  0.15034452134E+03  0.00000000000E+00 0. -1.
         -5    1    3    3    0  503  0.32491015732E+01 -0.16493484564E+02 -0.69176253165E+01  0.18775921659E+02  0.47000000000E+01 0.  1.
         13    1    4    4    0    0  0.12754700068E+02  0.12449488312E+02 -0.45598553133E+03  0.45633373414E+03  0.00000000000E+00 0. -1.
        -14    1    4    4    0    0 -0.53277215024E+02  0.50063081217E+02 -0.39318590007E+03  0.39992490014E+03  0.00000000000E+00 0.  1.
</event>
<event>
12    1  0.8313893E-002  0.2331598E+03  0.7818608E-02  0.1124706E+00
         21   -1    0    0  503  502  0.00000000000E+00  0.00000000000E+00  0.56855305520E+03  0.56855305520E+03  0.00000000000E+00 0.  1.
         21   -1    0    0  501  503 -0.00000000000E+00 -0.00000000000E+00 -0.10617360292E+03  0.10617360292E+03  0.00000000000E+00 0. -1.
          6    2    1    2  501    0 -0.61622183672E+02 -0.14394954239E+03  0.34004118379E+03  0.41142044247E+03  0.17064585999E+03 0.  0.
         24    2    3    3    0    0 -0.22751226804E+02  0.51970075576E+01  0.11258522740E+03  0.13662243165E+03  0.73794499749E+02 0.  0.
         -6    2    1    2    0  502  0.61622183672E+02  0.14394954239E+03  0.12233826849E+03  0.26330621565E+03  0.17275632257E+03 0.  0.
        -24    2    5    5    0    0  0.81002700034E+02  0.39484197717E+02  0.34636440833E+02  0.12545733743E+03  0.80121290544E+02 0.  0.
          5    1    3    3  501    0 -0.38870956868E+02 -0.14914654995E+03  0.22745595639E+03  0.27479801082E+03  0.47000000000E+01 0. -1.
        -13    1    4    4    0    0 -0.39725153508E+02 -0.17895287098E+02  0.90495432331E+02  0.10043780361E+03  0.00000000000E+00 0.  1.
         14    1    4    4    0    0  0.16973926703E+02  0.23092294656E+02  0.22089795066E+02  0.36184628038E+02  0.00000000000E+00 0. -1.
         -5    1    5    5    0  502 -0.19380516362E+02  0.10446534468E+03  0.87701827654E+02  0.13784887822E+03  0.47000000000E+01 0.  1.
         13    1    6    6    0    0  0.45915023046E+02  0.90591214636E+01 -0.22416631242E+02  0.51891833454E+02  0.00000000000E+00 0. -1.
        -14    1    6    6    0    0  0.35087676988E+02  0.30425076253E+02  0.57053072075E+02  0.73565503972E+02  0.00000000000E+00 0.  1.
</event>
<event>
12    1  0.8313893E-002  0.1783450E+03  0.7818608E-02  0.1169683E+00
         21   -1    0    0  503  502  0.00000000000E+00  0.00000000000E+00  0.63488319789E+02  0.63488319789E+02  0.00000000000E+00 0.  1.
         21   -1    0    0  501  503 -0.00000000000E+00 -0.00000000000E+00 -0.50348303508E+03  0.50348303508E+03  0.00000000000E+00 0.  1.
          6    2    1    2  501    0  0.67614315169E+01 -0.46987868294E+02 -0.24911276932E+03  0.30573803601E+03  0.17077762764E+03 0.  0.
         24    2    3    3    0    0  0.18467799477E+02 -0.78344942202E+02 -0.91918235460E+02  0.14495085801E+03  0.77992305013E+02 0.  0.
         -6    2    1    2    0  502 -0.67614315169E+01  0.46987868294E+02 -0.19088194597E+03  0.26123331886E+03  0.17191088639E+03 0.  0.
        -24    2    5    5    0    0 -0.46369391863E+02  0.75961501322E+02 -0.92429671460E+02  0.15112790441E+03  0.79850667755E+02 0.  0.
          5    1    3    3  501    0 -0.11706367960E+02  0.31357073907E+02 -0.15719453386E+03  0.16078717800E+03  0.47000000000E+01 0. -1.
        -13    1    4    4    0    0  0.26298128717E+01 -0.40950765421E+01 -0.63808488924E+02  0.63993818658E+02  0.00000000000E+00 0.  1.
         14    1    4    4    0    0  0.15837986605E+02 -0.74249865659E+02 -0.28109746536E+02  0.80957039351E+02  0.00000000000E+00 0. -1.
         -5    1    5    5    0  502  0.39607960346E+02 -0.28973633028E+02 -0.98452274514E+02  0.11010541445E+03  0.47000000000E+01 0.  1.
         13    1    6    6    0    0  0.43140051483E+01  0.31192942690E+02 -0.74927210880E+02  0.81275440597E+02  0.00000000000E+00 0. -1.
        -14    1    6    6    0    0 -0.50683397011E+02  0.44768558632E+02 -0.17502460580E+02  0.69852463814E+02  0.00000000000E+00 0.  1.
</event>
<event>
12    1  0.8313893E-002  0.2151050E+03  0.7818608E-02  0.1137701E+00
         21   -1    0    0  501  502  0.00000000000E+00  0.00000000000E+00  0.74086931466E+03  0.74086931466E+03  0.00000000000E+00 0.  1.
         21   -1    0    0  502  503 -0.00000000000E+00 -0.00000000000E+00 -0.80462970120E+02  0.80462970120E+02  0.00000000000E+00 0. -1.
         -6    2    1    2    0  503  0.94530028496E+02  0.89427554750E+02  0.13463051407E+03  0.25325624378E+03  0.17052898833E+03 0.  0.
        -24    2    3    3    0    0  0.36799780553E+02  0.11849022240E+03  0.11301098229E+03  0.18494142597E+03  0.77702588548E+02 0.  0.
          6    2    1    2  501    0 -0.94530028496E+02 -0.89427554750E+02  0.52577583047E+03  0.56807604099E+03  0.17128032756E+03 0.  0.
         24    2    5    5    0    0 -0.11607320900E+03 -0.53551467425E+02  0.49341316632E+03  0.51496639687E+03  0.73437644939E+02 0.  0.
          5    1    5    5  501    0  0.21543180506E+02 -0.35876087325E+02  0.32362664144E+02  0.53109644120E+02  0.47000000000E+01 0. -1.
        -13    1    6    6    0    0 -0.30021749807E+02 -0.52209277221E+02  0.23522080117E+03  0.24280844176E+03  0.00000000000E+00 0.  1.
         14    1    6    6    0    0 -0.86051459194E+02 -0.13421902038E+01  0.25819236515E+03  0.27215795511E+03  0.00000000000E+00 0. -1.
         -5    1    3    3    0  503  0.57730247943E+02 -0.29062667654E+02  0.21619531777E+02  0.68314817814E+02  0.47000000000E+01 0.  1.
         11    1    4    4    0    0  0.40878018386E+02  0.18813081449E+02  0.22819178818E+02  0.50454527475E+02  0.00000000000E+00 0. -1.
        -12    1    4    4    0    0 -0.40782378333E+01  0.99677140956E+02  0.90191803474E+02  0.13448689850E+03  0.00000000000E+00 0.  1.
</event>
<event>
12    1  0.8313893E-002  0.2830671E+03  0.7818608E-02  0.1094197E+00
         21   -1    0    0  503  502  0.00000000000E+00  0.00000000000E+00  0.29383725760E+03  0.29383725760E+03  0.00000000000E+00 0. -1.
         21   -1    0    0  501  503 -0.00000000000E+00 -0.00000000000E+00 -0.91671059837E+03  0.91671059837E+03  0.00000000000E+00 0. -1.
          6    2    1    2  501    0  0.22193575912E+03 -0.20249256872E+02 -0.81903449381E+03  0.86615538611E+03  0.17245908864E+03 0.  0.
         24    2    3    3    0    0  0.92888477247E+02  0.54815065526E+02 -0.39341180096E+03  0.41508485934E+03  0.76743955460E+02 0.  0.
         -6    2    1    2    0  502 -0.22193575912E+03  0.20249256872E+02  0.19616115304E+03  0.34439246985E+03  0.17453212240E+03 0.  0.
        -24    2    5    5    0    0 -0.14956935721E+03 -0.38154880771E+02  0.17938607646E+03  0.24978045891E+03  0.79900723937E+02 0.  0.
          5    1    3    3  501    0  0.12904728188E+03 -0.75064322398E+02 -0.42562269285E+03  0.45107052678E+03  0.47000000000E+01 0. -1.
        -11    1    4    4    0    0  0.18724181425E+02  0.30485979775E+01 -0.20724001498E+03  0.20810649372E+03  0.00000000000E+00 0.  1.
         12    1    4    4    0    0  0.74164295822E+02  0.51766467549E+02 -0.18617178599E+03  0.20697836562E+03  0.00000000000E+00 0. -1.
         -5    1    5    5    0  502 -0.72366401916E+02  0.58404137644E+02  0.16775076586E+02  0.94612010943E+02  0.47000000000E+01 0.  1.
         11    1    6    6    0    0 -0.79802626441E+02 -0.54805889842E+02  0.72023913689E+02  0.12066312150E+03  0.00000000000E+00 0. -1.
        -12    1    6    6    0    0 -0.69766730767E+02  0.16651009071E+02  0.10736216277E+03  0.12911733741E+03  0.00000000000E+00 0.  1.
</event>
<event>
12    1  0.8313893E-002  0.1990905E+03  0.7818608E-02  0.1150785E+00
         21   -1    0    0  503  502  0.00000000000E+00  0.00000000000E+00  0.86345870470E+03  0.86345870470E+03  0.00000000000E+00 0.  1.
         21   -1    0    0  501  503 -0.00000000000E+00 -0.00000000000E+00 -0.55131742374E+02  0.55131742374E+02  0.00000000000E+00 0.  1.
          6    2    1    2  501    0 -0.83122811727E+02 -0.55394384634E+02  0.21434406369E+03  0.29254126594E+03  0.17221810288E+03 0.  0.
         24    2    3    3    0    0 -0.32130978474E+02  0.65131035669E+01  0.32323973016E+02  0.93578687642E+02  0.81469695307E+02 0.  0.
         -6    2    1    2    0  502  0.83122811727E+02  0.55394384634E+02  0.59398289864E+03  0.62604918114E+03  0.17071600291E+03 0.  0.
        -24    2    5    5    0    0  0.90611347918E+02 -0.20696927030E+02  0.38888810717E+03  0.40711556249E+03  0.76618158202E+02 0.  0.
          5    1    3    3  501    0 -0.50991833252E+02 -0.61907488200E+02  0.18202009067E+03  0.19896257830E+03  0.47000000000E+01 0. -1.
        -13    1    4    4    0    0  0.26704152739E+02  0.10508741810E+02  0.80289208622E+01  0.29799479830E+02  0.00000000000E+00 0.  1.
         14    1    4    4    0    0 -0.58835131214E+02 -0.39956382434E+01  0.24295052154E+02  0.63779207811E+02  0.00000000000E+00 0. -1.
         -5    1    5    5    0  502 -0.74885361913E+01  0.76091311664E+02  0.20509479147E+03  0.21893361864E+03  0.47000000000E+01 0.  1.
         11    1    6    6    0    0 -0.55483642933E+01 -0.12681087759E+02  0.12823875892E+02  0.18869184560E+02  0.00000000000E+00 0. -1.
        -12    1    6    6    0    0  0.96159712212E+02 -0.80158392715E+01  0.37606423128E+03  0.38824637793E+03  0.00000000000E+00 0.  1.
</event>
<event>
12    1  0.8313893E-002  0.1965286E+03  0.7818608E-02  0.1152959E+00
         21   -1    0    0  503  502  0.00000000000E+00  0.00000000000E+00  0.17099555641E+03  0.17099555641E+03  0.00000000000E+00 0.  1.
         21   -1    0    0  501  503 -0.00000000000E+00 -0.00000000000E+00 -0.22631837891E+03  0.22631837891E+03  0.00000000000E+00 0.  1.
          6    2    1    2  501    0  0.67285342717E+01  0.91817599317E+02 -0.45339848597E+02  0.20053192857E+03  0.17228350991E+03 0.  0.
         24    2    3    3    0    0 -0.34576724920E+02  0.11716733166E+03 -0.27701047768E+02  0.14874437542E+03  0.80211019544E+02 0.  0.
         -6    2    1    2    0  502 -0.67285342717E+01 -0.91817599317E+02 -0.99829739053E+01  0.19678200675E+03  0.17363108505E+03 0.  0.
        -24    2    5    5    0    0  0.38599437908E+02 -0.93408869437E+02 -0.48335565558E+02  0.13719871640E+03  0.79196132407E+02 0.  0.
          5    1    3    3  501    0  0.41305259192E+02 -0.25349732345E+02 -0.17638800828E+02  0.51787553153E+02  0.47000000000E+01 0. -1.
        -13    1    4    4    0    0 -0.46598942307E+02  0.27808244783E+02  0.51575301634E+00  0.54268092865E+02  0.00000000000E+00 0.  1.
         14    1    4    4    0    0  0.12022217386E+02  0.89359086880E+02 -0.28216800785E+02  0.94476282555E+02  0.00000000000E+00 0. -1.
         -5    1    5    5    0  502 -0.45327972179E+02  0.15912701199E+01  0.38352591653E+02  0.59583290350E+02  0.47000000000E+01 0.  1.
         13    1    6    6    0    0 -0.11552239061E+02 -0.68998958596E+02 -0.12959686809E+02  0.71149588874E+02  0.00000000000E+00 0. -1.
        -14    1    6    6    0    0  0.50151676969E+02 -0.24409910841E+02 -0.35375878749E+02  0.66049127528E+02  0.00000000000E+00 0.  1.
</event>
<event>
12    1  0.8313893E-002  0.1841190E+03  0.7818608E-02  0.1164256E+00
         21   -1    0    0  501  502  0.00000000000E+00  0.00000000000E+00  0.14363637433E+03  0.14363637433E+03  0.00000000000E+00 0.  1.
         21   -1    0    0  502  503 -0.00000000000E+00 -0.00000000000E+00 -0.27849038039E+03  0.27849038039E+03  0.00000000000E+00 0. -1.
         -6    2    1    2    0  503  0.58986205081E+02 -0.17463035063E+01 -0.15208450444E+03  0.23880847433E+03  0.17440575952E+03 0.  0.
        -24    2    3    3    0    0  0.82487395618E+02 -0.18400266272E+02 -0.16902262278E+03  0.20506458177E+03  0.79624716316E+02 0.  0.
          6    2    1    2  501    0 -0.58986205081E+02  0.17463035063E+01  0.17230498382E+02  0.18331828039E+03  0.17270286589E+03 0.  0.
         24    2    5    5    0    0  0.33687224667E+01 -0.63761888858E+02  0.29384894781E+02  0.91943887873E+02  0.59272925642E+02 0.  0.
          5    1    5    5  501    0 -0.62354927548E+02  0.65508192364E+02 -0.12154396399E+02  0.91374392518E+02  0.47000000000E+01 0. -1.
        -11    1    6    6    0    0  0.13296593989E+01 -0.47778494490E+02  0.47715939567E+02  0.67537866554E+02  0.00000000000E+00 0.  1.
         12    1    6    6    0    0  0.20390630678E+01 -0.15983394367E+02 -0.18331044786E+02  0.24406021319E+02  0.00000000000E+00 0. -1.
         -5    1    3    3    0  503 -0.23501190537E+02  0.16653962766E+02  0.16938118338E+02  0.33743892563E+02  0.47000000000E+01 0.  1.
         11    1    4    4    0    0  0.45484617243E+01  0.19314809066E+02 -0.64373066583E+01  0.20861190530E+02  0.00000000000E+00 0. -1.
        -12    1    4    4    0    0  0.77938933894E+02 -0.37715075338E+02 -0.16258531612E+03  0.18420339124E+03  0.00000000000E+00 0.  1.
</event>
<event>
12    1  0.8313893E-002  0.1877492E+03  0.7818608E-02  0.1161135E+00
         21   -1    0    0  501  502  0.00000000000E+00  0.00000000000E+00  0.10660643540E+03  0.10660643540E+03  0.00000000000E+00 0.  1.
         21   -1    0    0  502  503 -0.00000000000E+00 -0.00000000000E+00 -0.52717734128E+03  0.52717734128E+03  0.00000000000E+00 0.  1.
         -6    2    1    2    0  503  0.56427134325E+02  0.43922367471E+02 -0.40515014340E+03  0.44540236991E+03  0.17065590107E+03 0.  0.
        -24    2    3    3    0    0  0.61859076425E+02  0.29743426381E+02 -0.11956974140E+03  0.15937998552E+03  0.79961490588E+02 0.  0.
          6    2    1    2  501    0 -0.56427134325E+02 -0.43922367471E+02 -0.15420762485E+02  0.18838140677E+03  0.17359884403E+03 0.  0.
         24    2    5    5    0    0 -0.14930041153E+02 -0.23461580613E+02  0.58396728782E+02  0.10113597962E+03  0.77749318637E+02 0.  0.
          5    1    5    5  501    0 -0.41497093172E+02 -0.20460786859E+02 -0.73817491267E+02  0.87245427144E+02  0.47000000000E+01 0. -1.
        -11    1    6    6    0    0  0.53904478324E+01 -0.48586503926E+02  0.25958774127E+02  0.55349464729E+02  0.00000000000E+00 0.  1.
         12    1    6    6    0    0 -0.20320488986E+02  0.25124923313E+02  0.32437954655E+02  0.45786514896E+02  0.00000000000E+00 0. -1.
         -5    1    3    3    0  503 -0.54319420995E+01  0.14178941090E+02 -0.28558040200E+03  0.28602238439E+03  0.47000000000E+01 0.  1.
         11    1    4    4    0    0 -0.17114302101E+02  0.17300829147E+02 -0.18819907605E+02  0.30763727795E+02  0.00000000000E+00 0. -1.
        -12    1    4    4    0    0  0.78973378525E+02  0.12442597235E+02 -0.10074983380E+03  0.12861625773E+03  0.00000000000E+00 0.  1.
</event>
<event>
12    1  0.8313893E-002  0.1784342E+03  0.7818608E-02  0.1169426E+00
         21   -1    0    0  501  502  0.00000000000E+00  0.00000000000E+00  0.29526812174E+02  0.29526812174E+02  0.00000000000E+00 0. -1.
         21   -1    0    0  502  503 -0.00000000000E+00 -0.00000000000E+00 -0.12952227670E+04  0.12952227670E+04  0.00000000000E+00 0. -1.
         -6    2    1    2    0  503 -0.12521735637E+02 -0.42510800794E+02 -0.90484636565E+03  0.92219375937E+03  0.17242512098E+03 0.  0.
        -24    2    3    3    0    0  0.25540646299E+01 -0.59504831941E+02 -0.28148001076E+03  0.29839589206E+03  0.79131306527E+02 0.  0.
          6    2    1    2  501    0  0.12521735637E+02  0.42510800794E+02 -0.36084958920E+03  0.40255581982E+03  0.17284328162E+03 0.  0.
         24    2    5    5    0    0 -0.20222510344E+02 -0.37666336656E+02 -0.18127892947E+03  0.20313598418E+03  0.81083136076E+02 0.  0.
          5    1    5    5  501    0  0.32744245981E+02  0.80177137450E+02 -0.17957065972E+03  0.19941983564E+03  0.47000000000E+01 0. -1.
        -13    1    6    6    0    0 -0.13665876829E+02  0.66146229046E+01 -0.14423601288E+03  0.14503288192E+03  0.00000000000E+00 0.  1.
         14    1    6    6    0    0 -0.65566335146E+01 -0.44280959561E+02 -0.37042916590E+02  0.58103102259E+02  0.00000000000E+00 0. -1.
         -5    1    3    3    0  503 -0.15075800267E+02  0.16994031148E+02 -0.62336635489E+03  0.62379786731E+03  0.47000000000E+01 0.  1.
         13    1    4    4    0    0 -0.99009791526E+01  0.11714045130E+02 -0.12597387101E+03  0.12690415446E+03  0.00000000000E+00 0. -1.
        -14    1    4    4    0    0  0.12455043783E+02 -0.71218877072E+02 -0.15550613974E+03  0.17149173760E+03  0.00000000000E+00 0.  1.
</event>
<event>
12    1  0.8313893E-002  0.2272755E+03  0.7818608E-02  0.1128687E+00
         21   -1    0    0  501  502  0.00000000000E+00  0.00000000000E+00  0.13364383700E+03  0.13364383700E+03  0.00000000000E+00 0.  1.
         21   -1    0    0  502  503 -0.00000000000E+00 -0.00000000000E+00 -0.38812225954E+03  0.38812225954E+03  0.00000000000E+00 0. -1.
         -6    2    1    2    0  503 -0.14580665721E+03 -0.18872225642E+02 -0.10526315628E+03  0.24988492945E+03  0.17247145766E+03 0.  0.
        -24    2    3    3    0    0 -0.16917719841E+03 -0.12873875985E+02 -0.11893537472E+03  0.22175697269E+03  0.79018165205E+02 0.  0.
          6    2    1    2  501    0  0.14580665721E+03  0.18872225642E+02 -0.14921526626E+03  0.27188116710E+03  0.17331598642E+03 0.  0.
         24    2    5    5    0    0  0.75821442780E+01 -0.13298520955E+01 -0.20274223114E+02  0.81718019960E+02  0.78787900371E+02 0.  0.
          5    1    5    5  501    0  0.13822451294E+03  0.20202077737E+02 -0.12894104315E+03  0.19016314714E+03  0.47000000000E+01 0. -1.
        -13    1    6    6    0    0 -0.33805456370E+02  0.98615764020E+01 -0.24917461946E+01  0.35302526377E+02  0.00000000000E+00 0.  1.
         14    1    6    6    0    0  0.41387600648E+02 -0.11191428497E+02 -0.17782476920E+02  0.46415493583E+02  0.00000000000E+00 0. -1.
         -5    1    3    3    0  503  0.23370541195E+02 -0.59983496570E+01  0.13672218439E+02  0.28127956758E+02  0.47000000000E+01 0.  1.
         13    1    4    4    0    0 -0.71352195511E+02 -0.42564934771E+02 -0.68909918434E+02  0.10794205082E+03  0.00000000000E+00 0. -1.
        -14    1    4    4    0    0 -0.97825002898E+02  0.29691058787E+02 -0.50025456283E+02  0.11381492187E+03  0.00000000000E+00 0.  1.
</event>
<event>
12    1  0.8313893E-002  0.1998311E+03  0.7818608E-02  0.1150027E+00
         21   -1    0    0  503  502  0.00000000000E+00  0.00000000000E+00  0.13603196278E+03  0.13603196278E+03  0.00000000000E+00 0. -1.
         21   -1    0    0  501  503 -0.00000000000E+00 -0.00000000000E+00 -0.44048323761E+03  0.44048323761E+03  0.00000000000E+00 0. -1.
          6    2    1    2  501    0 -0.18540668702E+01  0.10043060891E+03 -0.31945442824E+03  0.37680712879E+03  0.17275050164E+03 0.  0.
         24    2    3    3    0    0  0.26241304730E+02  0.30171258148E+02 -0.25416993039E+03  0.27675773132E+03  0.10194889622E+03 0.  0.
         -6    2    1    2    0  502  0.18540668702E+01 -0.10043060891E+03  0.15003153418E+02  0.19970807160E+03  0.17195486175E+03 0.  0.
        -24    2    5    5    0    0  0.60979275103E+02 -0.46833159689E+02  0.35362834688E+02  0.11721514201E+03  0.81098967937E+02 0.  0.
          5    1    3    3  501    0 -0.28095371601E+02  0.70259350758E+02 -0.65284497852E+02  0.10004939747E+03  0.47000000000E+01 0. -1.
        -13    1    4    4    0    0 -0.37164627688E+02  0.99047327437E+01 -0.57932933268E+02  0.69538033039E+02  0.00000000000E+00 0.  1.
         14    1    4    4    0    0  0.63405932419E+02  0.20266525404E+02 -0.19623699712E+03  0.20721969828E+03  0.00000000000E+00 0. -1.
         -5    1    5    5    0  502 -0.59125208233E+02 -0.53597449216E+02 -0.20359681270E+02  0.82492929590E+02  0.47000000000E+01 0.  1.
         11    1    6    6    0    0 -0.18944947983E+02 -0.17286225932E+02  0.20642452563E+01  0.25729084118E+02  0.00000000000E+00 0. -1.
        -12    1    6    6    0    0  0.79924223086E+02 -0.29546933757E+02  0.33298589431E+02  0.91486057891E+02  0.00000000000E+00 0.  1.
</event>
<event>
12    1  0.8313893E-002  0.1737782E+03  0.7818608E-02  0.1176812E+00
         21   -1    0    0  501  502  0.00000000000E+00  0.00000000000E+00  0.60119152022E+03  0.60119152022E+03  0.00000000000E+00 0. -1.
         21   -1    0    0  502  503 -0.00000000000E+00 -0.00000000000E+00 -0.50477693871E+02  0.50477693871E+02  0.00000000000E+00 0. -1.
         -6    2    1    2    0  503 -0.14503910234E+02  0.23316781482E+02  0.18334023936E+03  0.24526768561E+03  0.16058816434E+03 0.  0.
        -24    2    3    3    0    0 -0.33646141061E+02  0.46633133855E+02  0.19051699635E+03  0.21390412188E+03  0.78431724938E+02 0.  0.
          6    2    1    2  501    0  0.14503910234E+02 -0.23316781482E+02  0.36737358699E+03  0.40640152848E+03  0.17159491316E+03 0.  0.
         24    2    5    5    0    0 -0.25754607641E+02 -0.46662815370E+02  0.11647669022E+03  0.15118176364E+03  0.80301856379E+02 0.  0.
          5    1    5    5  501    0  0.40258517874E+02  0.23346033888E+02  0.25089689677E+03  0.25521976484E+03  0.47000000000E+01 0. -1.
        -13    1    6    6    0    0  0.26526663783E+02 -0.33001996713E+02  0.51659385194E+02  0.66794369203E+02  0.00000000000E+00 0.  1.
         14    1    6    6    0    0 -0.52281271424E+02 -0.13660818656E+02  0.64817305028E+02  0.84387394433E+02  0.00000000000E+00 0. -1.
         -5    1    3    3    0  503  0.19142230827E+02 -0.23316352374E+02 -0.71767569915E+01  0.31363563732E+02  0.47000000000E+01 0.  1.
         11    1    4    4    0    0 -0.24770469433E+02 -0.10716170286E+02  0.19465172915E+02  0.33276198974E+02  0.00000000000E+00 0. -1.
        -12    1    4    4    0    0 -0.88756716279E+01  0.57349304142E+02  0.17105182343E+03  0.18062792290E+03  0.00000000000E+00 0.  1.
</event>
<event>
12    1  0.8313893E-002  0.1937039E+03  0.7818608E-02  0.1155236E+00
         21   -1    0    0  501  502  0.00000000000E+00  0.00000000000E+00  0.42179916554E+03  0.42179916554E+03  0.00000000000E+00 0.  1.
         21   -1    0    0  502  503 -0.00000000000E+00 -0.00000000000E+00 -0.89208507333E+02  0.89208507333E+02  0.00000000000E+00 0. -1.
         -6    2    1    2    0  503  0.52456529350E+02 -0.70918297005E+02  0.18342496315E+03  0.26652533656E+03  0.17207540674E+03 0.  0.
        -24    2    3    3    0    0  0.10020386398E+03 -0.69005027606E+02  0.14120587762E+03  0.20258779089E+03  0.79373830380E+02 0.  0.
          6    2    1    2  501    0 -0.52456529350E+02  0.70918297005E+02  0.14916569506E+03  0.24448233631E+03  0.17245322804E+03 0.  0.
         24    2    5    5    0    0 -0.16602265132E+02  0.50982158581E+02  0.17218071229E+03  0.19720909974E+03  0.79814883538E+02 0.  0.
          5    1    5    5  501    0 -0.35854264218E+02  0.19936138424E+02 -0.23015017228E+02  0.47273236571E+02  0.47000000000E+01 0. -1.
        -13    1    6    6    0    0 -0.43108204385E+02  0.44221190035E+02  0.80049290544E+02  0.10110252148E+03  0.00000000000E+00 0.  1.
         14    1    6    6    0    0  0.26505939254E+02  0.67609685457E+01  0.92131421742E+02  0.96106578253E+02  0.00000000000E+00 0. -1.
         -5    1    3    3    0  503 -0.47747334635E+02 -0.19132693986E+01  0.42219085529E+02  0.63937545679E+02  0.47000000000E+01 0.  1.
         11    1    4    4    0    0 -0.33644842649E+01 -0.36111663158E+02  0.29551126058E+02  0.46782913780E+02  0.00000000000E+00 0. -1.
        -12    1    4    4    0    0  0.10356834825E+03 -0.32893364448E+02  0.11165475156E+03  0.15580487711E+03  0.00000000000E+00 0.  1.
</event>
<event>
12    1  0.8313893E-002  0.2119484E+03  0.7818608E-02  0.1140144E+00
         21   -1    0    0  501  502  0.00000000000E+00  0.00000000000E+00  0.58275945682E+03  0.58275945682E+03  0.00000000000E+00 0.  1.
         21   -1    0    0  502  503 -0.00000000000E+00 -0.00000000000E+00 -0.10591626544E+03  0.10591626544E+03  0.00000000000E+00 0.  1.
         -6    2    1    2    0  503  0.58284919857E+02  0.10727294727E+03  0.57894218600E+02  0.21916496921E+03  0.17255992027E+03 0.  0.
        -24    2    3    3    0    0 -0.11295074850E+02 -0.29032316897E+01  0.25040740054E+02  0.84697102697E+02  0.80065929537E+02 0.  0.
          6    2    1    2  501    0 -0.58284919857E+02 -0.10727294727E+03  0.41894897277E+03  0.46951075305E+03  0.17325555790E+03 0.  0.
         24    2    5    5    0    0 -0.41022736361E+02 -0.10931630524E+03  0.17520323419E+03  0.22510078319E+03  0.79632090463E+02 0.  0.
          5    1    5    5  501    0 -0.17262183496E+02  0.20433579723E+01  0.24374573858E+03  0.24440996986E+03  0.47000000000E+01 0. -1.
        -13    1    6    6    0    0 -0.64073723427E+02 -0.87087770110E+02  0.12209923333E+03  0.16308876269E+03  0.00000000000E+00 0.  1.
         14    1    6    6    0    0  0.23050987066E+02 -0.22228535128E+02  0.53104000856E+02  0.62012020493E+02  0.00000000000E+00 0. -1.
         -5    1    3    3    0  503  0.69579994707E+02  0.11017617896E+03  0.32853478546E+02  0.13446786652E+03  0.47000000000E+01 0.  1.
         11    1    4    4    0    0 -0.15434507144E+02 -0.38816186326E+02  0.19836506809E+01  0.41819316131E+02  0.00000000000E+00 0. -1.
        -12    1    4    4    0    0  0.41394322944E+01  0.35912954636E+02  0.23057089373E+02  0.42877786565E+02  0.00000000000E+00 0.  1.
</event>
<event>
12    1  0.8313893E-002  0.2742287E+03  0.7818608E-02  0.1098979E+00
         21   -1    0    0  501  502  0.00000000000E+00  0.00000000000E+00  0.22224014438E+03  0.22224014438E+03  0.00000000000E+00 0.  1.
         21   -1    0    0  502  503 -0.00000000000E+00 -0.00000000000E+00 -0.36962041588E+03  0.36962041588E+03  0.00000000000E+00 0.  1.
         -6    2    1    2    0  503 -0.20986017755E+03  0.34476512674E+02 -0.16079413772E+03  0.31730397948E+03  0.17203818363E+03 0.  0.
        -24    2    3    3    0    0 -0.81488783562E+02  0.32736099421E+02 -0.14573219145E+03  0.18795485480E+03  0.79856632576E+02 0.  0.
          6    2    1    2  501    0  0.20986017755E+03 -0.34476512674E+02  0.13413866214E+02  0.27455658078E+03  0.17312267384E+03 0.  0.
         24    2    5    5    0    0  0.31439372845E+02 -0.31763888538E+02  0.26632495458E+02  0.95564502635E+02  0.80161746298E+02 0.  0.
          5    1    5    5  501    0  0.17842080470E+03 -0.27126241359E+01 -0.13218629244E+02  0.17899207815E+03  0.47000000000E+01 0. -1.
        -11    1    6    6    0    0  0.55977249816E+02 -0.35830703417E+02  0.23502123117E+02  0.70495684941E+02  0.00000000000E+00 0.  1.
         12    1    6    6    0    0 -0.24537876972E+02  0.40668148792E+01  0.31303723414E+01  0.25068817693E+02  0.00000000000E+00 0. -1.
         -5    1    3    3    0  503 -0.12837139398E+03  0.17404132527E+01 -0.15061946269E+02  0.12934912469E+03  0.47000000000E+01 0.  1.
         11    1    4    4    0    0 -0.77213971067E+01 -0.16091883462E+02 -0.44457358725E+00  0.17854028462E+02  0.00000000000E+00 0. -1.
        -12    1    4    4    0    0 -0.73767386455E+02  0.48827982883E+02 -0.14528761786E+03  0.17010082634E+03  0.00000000000E+00 0.  1.
</event>
<event>
12    1  0.8313893E-002  0.1829205E+03  0.7818608E-02  0.1166254E+00
         21   -1    0    0  503  502  0.00000000000E+00  0.00000000000E+00  0.71087019625E+03  0.71087019625E+03  0.00000000000E+00 0.  1.
         21   -1    0    0  501  503 -0.00000000000E+00 -0.00000000000E+00 -0.52386829002E+02  0.52386829002E+02  0.00000000000E+00 0.  1.
          6    2    1    2  501    0 -0.17102107638E+02 -0.45954133228E+02  0.18922181651E+03  0.25960406917E+03  0.17083650792E+03 0.  0.
         24    2    3    3    0    0  0.56043221687E+02 -0.51447196132E+02  0.10985331262E+03  0.15142892252E+03  0.71241221187E+02 0.  0.
         -6    2    1    2    0  502  0.17102107638E+02  0.45954133228E+02  0.46926155073E+03  0.50365295608E+03  0.17622608412E+03 0.  0.
        -24    2    5    5    0    0  0.31899181719E+01 -0.43271880715E+02  0.25412818274E+03  0.27028782029E+03  0.81189539309E+02 0.  0.
          5    1    3    3  501    0 -0.73145329325E+02  0.54930629039E+01  0.79368503895E+02  0.10817514665E+03  0.47000000000E+01 0. -1.
        -13    1    4    4    0    0  0.52521123269E+02 -0.20784577422E+02  0.26202599135E+02  0.62265907602E+02  0.00000000000E+00 0.  1.
         14    1    4    4    0    0  0.35220984176E+01 -0.30662618710E+02  0.83650713482E+02  0.89163014920E+02  0.00000000000E+00 0. -1.
         -5    1    5    5    0  502  0.13912189466E+02  0.89226013943E+02  0.21513336799E+03  0.23336513579E+03  0.47000000000E+01 0.  1.
         13    1    6    6    0    0 -0.12492175715E+02  0.19889819065E+02  0.10471153635E+03  0.10731339712E+03  0.00000000000E+00 0. -1.
        -14    1    6    6    0    0  0.15682093887E+02 -0.63161699780E+02  0.14941664639E+03  0.16297442317E+03  0.00000000000E+00 0.  1.
</event>
<event>
12    1  0.8313893E-002  0.2265199E+03  0.7818608E-02  0.1129369E+00
         21   -1    0    0  501  502  0.00000000000E+00  0.00000000000E+00  0.18759983174E+04  0.18759983174E+04  0.00000000000E+00 0. -1.
         21   -1    0    0  502  503 -0.00000000000E+00 -0.00000000000E+00 -0.28960018499E+02  0.28960018499E+02  0.00000000000E+00 0. -1.
         -6    2    1    2    0  503  0.14167947788E+03 -0.31411259100E+02  0.69013086737E+03  0.72635521293E+03  0.17392969734E+03 0.  0.
        -24    2    3    3    0    0  0.96006773237E+02 -0.61948555176E+02  0.28667045728E+03  0.31914407002E+03  0.81351474237E+02 0.  0.
          6    2    1    2  501    0 -0.14167947788E+03  0.31411259100E+02  0.11569074316E+04  0.11786031230E+04  0.17207781576E+03 0.  0.
         24    2    5    5    0    0 -0.78670330488E+02 -0.25108271567E+02  0.92013535458E+03  0.92711213620E+03  0.77899911012E+02 0.  0.
          5    1    5    5  501    0 -0.63009147388E+02  0.56519530667E+02  0.23677207700E+03  0.25149098681E+03  0.47000000000E+01 0. -1.
        -11    1    6    6    0    0 -0.25519986647E+02 -0.48717078445E+02  0.40990648925E+03  0.41357944023E+03  0.00000000000E+00 0.  1.
         12    1    6    6    0    0 -0.53150343841E+02  0.23608806877E+02  0.51022886533E+03  0.51353269597E+03  0.00000000000E+00 0. -1.
         -5    1    3    3    0  503  0.45672704639E+02  0.30537296076E+02  0.40346041009E+03  0.40721114291E+03  0.47000000000E+01 0.  1.
         11    1    4    4    0    0  0.11231745436E+02 -0.26836161651E+02  0.15697598054E+02  0.33056712818E+02  0.00000000000E+00 0. -1.
        -12    1    4    4    0    0  0.84775027801E+02 -0.35112393525E+02  0.27097285922E+03  0.28608735720E+03  0.00000000000E+00 0.  1.
</event>
<event>
12    1  0.8313893E-002  0.1867725E+03  0.7818608E-02  0.1161429E+00
         21   -1    0    0  503  502  0.00000000000E+00  0.00000000000E+00  0.18316539276E+03  0.18316539276E+03  0.00000000000E+00 0.  1.
         21   -1    0    0  501  503 -0.00000000000E+00 -0.00000000000E+00 -0.20538728811E+03  0.20538728811E+03  0.00000000000E+00 0.  1.
          6    2    1    2  501    0 -0.94142845339E+01  0.68998706346E+02 -0.63688280744E+02  0.19723243809E+03  0.17319060974E+03 0.  0.
         24    2    3    3    0    0 -0.18581786098E+02  0.24307960650E+02 -0.10572668315E+03  0.13501810604E+03  0.78202287082E+02 0.  0.
         -6    2    1    2    0  502  0.94142845339E+01 -0.68998706346E+02  0.41466385391E+02  0.19132024277E+03  0.17330471415E+03 0.  0.
        -24    2    5    5    0    0  0.24719960167E+02  0.24090101200E+02 -0.13069306797E+02  0.82251358487E+02  0.73505576566E+02 0.  0.
          5    1    3    3  501    0  0.91675015644E+01  0.44690745697E+02  0.42038402402E+02  0.62214332050E+02  0.47000000000E+01 0. -1.
        -13    1    4    4    0    0 -0.33227369239E+02  0.35881922522E+02 -0.30784912020E+02  0.57786514330E+02  0.00000000000E+00 0.  1.
         14    1    4    4    0    0  0.14645583140E+02 -0.11573961872E+02 -0.74941771126E+02  0.77231591712E+02  0.00000000000E+00 0. -1.
         -5    1    5    5    0  502 -0.15305675633E+02 -0.93088807546E+02  0.54535692188E+02  0.10906888429E+03  0.47000000000E+01 0.  1.
         11    1    6    6    0    0 -0.17273027873E+02  0.33222838566E+02 -0.11792283191E+02  0.39257769132E+02  0.00000000000E+00 0. -1.
        -12    1    6    6    0    0  0.41992988040E+02 -0.91327373669E+01 -0.12770236060E+01  0.42993589355E+02  0.00000000000E+00 0.  1.
</event>
<event>
12    1  0.8313893E-002  0.1848358E+03  0.7818608E-02  0.1163979E+00
         21   -1    0    0  501  502  0.00000000000E+00  0.00000000000E+00  0.54004623559E+03  0.54004623559E+03  0.00000000000E+00 0.  1.
         21   -1    0    0  502  503 -0.00000000000E+00 -0.00000000000E+00 -0.64349222332E+02  0.64349222332E+02  0.00000000000E+00 0. -1.
         -6    2    1    2    0  503  0.67074183389E+02  0.12121540067E+02  0.18394004110E+03  0.26076466262E+03  0.17180917537E+03 0.  0.
        -24    2    3    3    0    0 -0.28631521630E+02  0.30981250743E+02  0.68845600164E+02  0.10982066309E+03  0.74439636291E+02 0.  0.
          6    2    1    2  501    0 -0.67074183389E+02 -0.12121540067E+02  0.29175697215E+03  0.34363079529E+03  0.16826798526E+03 0.  0.
         24    2    5    5    0    0 -0.72274060145E+02  0.36018294233E+02  0.26361721448E+03  0.28743098812E+03  0.81250722282E+02 0.  0.
          5    1    5    5  501    0  0.51998767557E+01 -0.48139834300E+02  0.28139757671E+02  0.56199807175E+02  0.47000000000E+01 0. -1.
        -13    1    6    6    0    0 -0.59063088951E+02 -0.10194294622E+02  0.97033870022E+02  0.11405237416E+03  0.00000000000E+00 0.  1.
         14    1    6    6    0    0 -0.13210971193E+02  0.46212588855E+02  0.16658334446E+03  0.17337861396E+03  0.00000000000E+00 0. -1.
         -5    1    3    3    0  503  0.95705705019E+02 -0.18859710676E+02  0.11509444094E+03  0.15094399953E+03  0.47000000000E+01 0.  1.
         11    1    4    4    0    0 -0.13189152398E+02 -0.23521213841E+02  0.33678752706E+02  0.43144636114E+02  0.00000000000E+00 0. -1.
        -12    1    4    4    0    0 -0.15442369232E+02  0.54502464584E+02  0.35166847458E+02  0.66676026976E+02  0.00000000000E+00 0.  1.
</event>
<event>
12    1  0.8313893E-002  0.2114213E+03  0.7818608E-02  0.1140862E+00
         21   -1    0    0  503  502  0.00000000000E+00  0.00000000000E+00  0.34859077812E+03  0.34859077812E+03  0.00000000000E+00 0.  1.
         21   -1    0    0  501  503 -0.00000000000E+00 -0.00000000000E+00 -0.15060141121E+03  0.15060141121E+03  0.00000000000E+00 0.  1.
          6    2    1    2  501    0 -0.36544649655E+02 -0.11517958997E+03  0.19748443442E+03  0.28777027763E+03  0.17090869340E+03 0.  0.
         24    2    3    3    0    0 -0.25626073061E+02 -0.14138873980E+03  0.11407789756E+03  0.19953833759E+03  0.78449411048E+02 0.  0.
         -6    2    1    2    0  502  0.36544649655E+02  0.11517958997E+03  0.50493248517E+00  0.21142191171E+03  0.17348521675E+03 0.  0.
        -24    2    5    5    0    0  0.83777835930E+02  0.11420650652E+03  0.96533289635E+01  0.16307210369E+03  0.80233860172E+02 0.  0.
          5    1    3    3  501    0 -0.10918576593E+02  0.26209149834E+02  0.83406536868E+02  0.88231940034E+02  0.47000000000E+01 0. -1.
        -13    1    4    4    0    0  0.21224139026E+02 -0.25909335371E+02  0.48844860864E+01  0.33846948771E+02  0.00000000000E+00 0.  1.
         14    1    4    4    0    0 -0.46850212087E+02 -0.11547940443E+03  0.10919341147E+03  0.16569138882E+03  0.00000000000E+00 0. -1.
         -5    1    5    5    0  502 -0.47233186275E+02  0.97308345310E+00 -0.91483964783E+01  0.48349808017E+02  0.47000000000E+01 0.  1.
         11    1    6    6    0    0  0.17464381997E+02  0.85134684272E+01 -0.26782223277E+02  0.33087327889E+02  0.00000000000E+00 0. -1.
        -12    1    6    6    0    0  0.66313453933E+02  0.10569303809E+03  0.36435552240E+02  0.12998477580E+03  0.00000000000E+00 0.  1.
</event>
<event>
12    1  0.8313893E-002  0.1741835E+03  0.7818608E-02  0.1173636E+00
         21   -1    0    0  501  502  0.00000000000E+00  0.00000000000E+00  0.10665159025E+03  0.10665159025E+03  0.00000000000E+00 0. -1.
         21   -1    0    0  502  503 -0.00000000000E+00 -0.00000000000E+00 -0.57964678513E+03  0.57964678513E+03  0.00000000000E+00 0. -1.
         -6    2    1    2    0  503  0.24305828882E+02 -0.44396871866E+01 -0.48148033156E+03  0.51190837483E+03  0.17209413239E+03 0.  0.
        -24    2    3    3    0    0 -0.10292274087E+02 -0.69910255730E+02 -0.33694953622E+03  0.34944402527E+03  0.59856178304E+02 0.  0.
          6    2    1    2  501    0 -0.24305828882E+02  0.44396871866E+01  0.84851366823E+01  0.17439000055E+03  0.17242212911E+03 0.  0.
         24    2    5    5    0    0 -0.52671606070E+02  0.38562273585E+01  0.61844508258E+02  0.11377424125E+03  0.79565483686E+02 0.  0.
          5    1    5    5  501    0  0.28365777188E+02  0.58345982810E+00 -0.53359371576E+02  0.60615759303E+02  0.47000000000E+01 0. -1.
        -13    1    6    6    0    0 -0.38097464080E+01 -0.33484271948E+02  0.26269579224E+02  0.42729397705E+02  0.00000000000E+00 0.  1.
         14    1    6    6    0    0 -0.48861859662E+02  0.37340499307E+02  0.35574929035E+02  0.71044843542E+02  0.00000000000E+00 0. -1.
         -5    1    3    3    0  503  0.34598102969E+02  0.65470568543E+02 -0.14453079534E+03  0.16246434956E+03  0.47000000000E+01 0.  1.
         13    1    4    4    0    0  0.18566038879E+02 -0.13433425766E+02 -0.15659644511E+03  0.15826434011E+03  0.00000000000E+00 0. -1.
        -14    1    4    4    0    0 -0.28858312965E+02 -0.56476829964E+02 -0.18035309110E+03  0.19117968517E+03  0.00000000000E+00 0.  1.
</event>
<event>
12    1  0.8313893E-002  0.2519141E+03  0.7818608E-02  0.1112111E+00
         21   -1    0    0  503  502  0.00000000000E+00  0.00000000000E+00  0.24003864165E+03  0.24003864165E+03  0.00000000000E+00 0. -1.
         21   -1    0    0  501  503 -0.00000000000E+00 -0.00000000000E+00 -0.28009498267E+03  0.28009498267E+03  0.00000000000E+00 0.  1.
          6    2    1    2  501    0 -0.17644873770E+03  0.53757025422E+02  0.41705673967E+02  0.25528318541E+03  0.17148226349E+03 0.  0.
         24    2    3    3    0    0 -0.61107344513E+02  0.80558394265E+02 -0.16014767926E+01  0.12911048764E+03  0.80269488917E+02 0.  0.
         -6    2    1    2    0  502  0.17644873770E+03 -0.53757025422E+02 -0.81762014989E+02  0.26485043891E+03  0.17157142267E+03 0.  0.
        -24    2    5    5    0    0  0.10812240885E+03  0.25458113023E+02 -0.72800119769E+01  0.13634680415E+03  0.78732976662E+02 0.  0.
          5    1    3    3  501    0 -0.11534139319E+03 -0.26801368843E+02  0.43307150759E+02  0.12617269777E+03  0.47000000000E+01 0. -1.
        -11    1    4    4    0    0 -0.47739538809E+02  0.75977353793E+02 -0.32258705118E+02  0.95353269010E+02  0.00000000000E+00 0.  1.
         12    1    4    4    0    0 -0.13367805704E+02  0.45810404722E+01  0.30657228325E+02  0.33757218631E+02  0.00000000000E+00 0. -1.
         -5    1    5    5    0  502  0.68326328857E+02 -0.79215138445E+02 -0.74482003013E+02  0.12850363476E+03  0.47000000000E+01 0.  1.
         13    1    6    6    0    0 -0.25322179605E+01  0.24364830610E+02  0.50204628469E+01  0.25005242363E+02  0.00000000000E+00 0. -1.
        -14    1    6    6    0    0  0.11065462681E+03  0.10932824125E+01 -0.12300474824E+02  0.11134156179E+03  0.00000000000E+00 0.  1.
</event>
<event>
12    1  0.8313893E-002  0.1845961E+03  0.7818608E-02  0.1163433E+00
         21   -1    0    0  503  502  0.00000000000E+00  0.00000000000E+00  0.19309784270E+03  0.19309784270E+03  0.00000000000E+00 0.  1.
         21   -1    0    0  501  503 -0.00000000000E+00 -0.00000000000E+00 -0.18698811765E+03  0.18698811765E+03  0.00000000000E+00 0. -1.
          6    2    1    2  501    0 -0.23262147268E+02  0.58666244687E+02 -0.42072244135E+02  0.18930541029E+03  0.17344627087E+03 0.  0.
         24    2    3    3    0    0 -0.49544069220E+00 -0.79353647543E+01  0.31772813026E+02  0.87181565007E+02  0.80795409240E+02 0.  0.
         -6    2    1    2    0  502  0.23262147268E+02 -0.58666244687E+02  0.48181969183E+02  0.19078055005E+03  0.17347293842E+03 0.  0.
        -24    2    5    5    0    0  0.41192541347E+02 -0.65578972581E+02  0.90855115581E+02  0.14374468860E+03  0.80065325625E+02 0.  0.
          5    1    3    3  501    0 -0.22766706575E+02  0.66601609441E+02 -0.73845057161E+02  0.10212384528E+03  0.47000000000E+01 0. -1.
        -11    1    4    4    0    0 -0.35018771550E+02  0.86350149033E+01  0.32973722366E+02  0.48868642399E+02  0.00000000000E+00 0.  1.
         12    1    4    4    0    0  0.34523330858E+02 -0.16570379658E+02 -0.12009093399E+01  0.38312922608E+02  0.00000000000E+00 0. -1.
         -5    1    5    5    0  502 -0.17930394079E+02  0.69127278943E+01 -0.42673146398E+02  0.47035861450E+02  0.47000000000E+01 0.  1.
         13    1    6    6    0    0  0.18327012378E+01 -0.71508030358E+02  0.60530286976E+02  0.93705244468E+02  0.00000000000E+00 0. -1.
        -14    1    6    6    0    0  0.39359840109E+02  0.59290577768E+01  0.30324828605E+02  0.50039444136E+02  0.00000000000E+00 0.  1.
</event>
<event>
12    1  0.8313893E-002  0.2259606E+03  0.7818608E-02  0.1129756E+00
         21   -1    0    0  503  502  0.00000000000E+00  0.00000000000E+00  0.69295073520E+02  0.69295073520E+02  0.00000000000E+00 0. -1.
         21   -1    0    0  501  503 -0.00000000000E+00 -0.00000000000E+00 -0.74676447260E+03  0.74676447260E+03  0.00000000000E+00 0.  1.
          6    2    1    2  501    0  0.14077769930E+03 -0.36577016030E+02 -0.39418263202E+03  0.45369292120E+03  0.17117558424E+03 0.  0.
         24    2    3    3    0    0  0.15530518898E+03 -0.15894137668E+02 -0.23386121691E+03  0.29132335645E+03  0.76196482226E+02 0.  0.
         -6    2    1    2    0  502 -0.14077769930E+03  0.36577016030E+02 -0.28328676706E+03  0.36236662492E+03  0.17292177348E+03 0.  0.
        -24    2    5    5    0    0 -0.10201082786E+03  0.44987185630E+02 -0.29089347216E+03  0.32170271910E+03  0.80271859703E+02 0.  0.
          5    1    3    3  501    0 -0.14527489683E+02 -0.20682878362E+02 -0.16032141511E+03  0.16236956475E+03  0.47000000000E+01 0. -1.
        -11    1    4    4    0    0  0.10176136883E+03  0.25896519315E+02 -0.15535052681E+03  0.18750944531E+03  0.00000000000E+00 0.  1.
         12    1    4    4    0    0  0.53543820151E+02 -0.41790656984E+02 -0.78510690091E+02  0.10381391114E+03  0.00000000000E+00 0. -1.
         -5    1    5    5    0  502 -0.38766871439E+02 -0.84101695997E+01  0.76067051000E+01  0.40663905817E+02  0.47000000000E+01 0.  1.
         13    1    6    6    0    0 -0.59925682961E+02  0.50258569947E+02 -0.10439911609E+03  0.13044610677E+03  0.00000000000E+00 0. -1.
        -14    1    6    6    0    0 -0.42085144897E+02 -0.52713843165E+01 -0.18649435607E+03  0.19125661233E+03  0.00000000000E+00 0.  1.
</event>
<event>
12    1  0.8313893E-002  0.1865504E+03  0.7818608E-02  0.1161749E+00
         21   -1    0    0  503  502  0.00000000000E+00  0.00000000000E+00  0.84576591375E+03  0.84576591375E+03  0.00000000000E+00 0. -1.
         21   -1    0    0  501  503 -0.00000000000E+00 -0.00000000000E+00 -0.30756496855E+03  0.30756496855E+03  0.00000000000E+00 0. -1.
          6    2    1    2  501    0 -0.22730839210E+02  0.69968247469E+02 -0.26779712386E+03  0.32602564726E+03  0.17077814970E+03 0.  0.
         24    2    3    3    0    0 -0.78482559959E+02  0.34850494926E+02 -0.13063437708E+03  0.17378498247E+03  0.75906590249E+02 0.  0.
         -6    2    1    2    0  502  0.22730839210E+02 -0.69968247469E+02  0.80599806906E+03  0.82730523504E+03  0.17143167118E+03 0.  0.
        -24    2    5    5    0    0  0.32053722554E+02 -0.56185415343E+02  0.23989543751E+03  0.26093860284E+03  0.79717573267E+02 0.  0.
          5    1    3    3  501    0  0.55751720749E+02  0.35117752544E+02 -0.13716274678E+03  0.15224066479E+03  0.47000000000E+01 0. -1.
        -11    1    4    4    0    0 -0.18475354302E+00 -0.19356530022E+02 -0.23402495324E+02  0.30370811246E+02  0.00000000000E+00 0.  1.
         12    1    4    4    0    0 -0.78297806416E+02  0.54207024948E+02 -0.10723188176E+03  0.14341417123E+03  0.00000000000E+00 0. -1.
         -5    1    5    5    0  502 -0.93228833438E+01 -0.13782832126E+02  0.56610263155E+03  0.56636663220E+03  0.47000000000E+01 0.  1.
         13    1    6    6    0    0  0.26900010922E+02 -0.18897050806E+02  0.21083744492E+03  0.21338495097E+03  0.00000000000E+00 0. -1.
        -14    1    6    6    0    0  0.51537116328E+01 -0.37288364538E+02  0.29057992586E+02  0.47553651875E+02  0.00000000000E+00 0.  1.
</event>
<event>
12    1  0.8313893E-002  0.2474049E+03  0.7818608E-02  0.1115024E+00
         21   -1    0    0  501  502  0.00000000000E+00  0.00000000000E+00  0.68000763197E+03  0.68000763197E+03  0.00000000000E+00 0. -1.
         21   -1    0    0  502  503 -0.00000000000E+00 -0.00000000000E+00 -0.14009686840E+03  0.14009686840E+03  0.00000000000E+00 0.  1.
         -6    2    1    2    0  503  0.22837745095E+02 -0.17666537858E+03  0.24255082545E+02  0.24816921335E+03  0.17107726569E+03 0.  0.
        -24    2    3    3    0    0 -0.18126630146E+02 -0.18645269196E+03  0.11404403319E+02  0.20388488769E+03  0.79660567123E+02 0.  0.
          6    2    1    2  501    0 -0.22837745095E+02  0.17666537858E+03  0.51565568103E+03  0.57193528703E+03  0.17168859189E+03 0.  0.
         24    2    5    5    0    0  0.18484338973E+02  0.18705807907E+03  0.42072775145E+03  0.46777711563E+03  0.80443727764E+02 0.  0.
          5    1    5    5  501    0 -0.41322084068E+02 -0.10392700491E+02  0.94927929581E+02  0.10415817140E+03  0.47000000000E+01 0. -1.
        -11    1    6    6    0    0  0.14253606786E+01  0.15223697157E+03  0.25005616136E+03  0.29275623136E+03  0.00000000000E+00 0.  1.
         12    1    6    6    0    0  0.17058978294E+02  0.34821107499E+02  0.17067159009E+03  0.17502088427E+03  0.00000000000E+00 0. -1.
         -5    1    3    3    0  503  0.40964375241E+02  0.97873133849E+01  0.12850679226E+02  0.44284325655E+02  0.47000000000E+01 0.  1.
         11    1    4    4    0    0  0.30465588333E+01  0.16296640845E+01  0.14179295117E+02  0.14594167868E+02  0.00000000000E+00 0. -1.
        -12    1    4    4    0    0 -0.21173188979E+02 -0.18808235604E+03 -0.27748917983E+01  0.18929071982E+03  0.00000000000E+00 0.  1.
</event>
<event>
12    1  0.8313893E-002  0.1777364E+03  0.7818608E-02  0.1170276E+00
         21   -1    0    0  503  502  0.00000000000E+00  0.00000000000E+00  0.90601282246E+03  0.90601282246E+03  0.00000000000E+00 0.  1.
         21   -1    0    0  501  503 -0.00000000000E+00 -0.00000000000E+00 -0.34693102232E+02  0.34693102232E+02  0.00000000000E+00 0.  1.
          6    2    1    2  501    0  0.31142805117E+02 -0.33611089778E+02  0.41939826046E+03  0.45508956428E+03  0.17062248086E+03 0.  0.
         24    2    3    3    0    0  0.54317868995E+02  0.19211715736E+02  0.35478406396E+03  0.36834616823E+03  0.80545929146E+02 0.  0.
         -6    2    1    2    0  502 -0.31142805117E+02  0.33611089778E+02  0.45192145977E+03  0.48561636041E+03  0.17172846017E+03 0.  0.
        -24    2    5    5    0    0 -0.85606164809E+02  0.36283548281E+02  0.28140902005E+03  0.30653542429E+03  0.78281660998E+02 0.  0.
          5    1    3    3  501    0 -0.23175063878E+02 -0.52822805514E+02  0.64614196502E+02  0.86743396047E+02  0.47000000000E+01 0. -1.
        -11    1    4    4    0    0  0.44823224500E+02  0.53811960037E+01  0.71459464300E+02  0.84525343910E+02  0.00000000000E+00 0.  1.
         12    1    4    4    0    0  0.94946444953E+01  0.13830519732E+02  0.28332459966E+03  0.28382082432E+03  0.00000000000E+00 0. -1.
         -5    1    5    5    0  502  0.54463359692E+02 -0.26724585032E+01  0.17051243972E+03  0.17908093612E+03  0.47000000000E+01 0.  1.
         11    1    6    6    0    0 -0.48399610639E+01 -0.90955816293E+01  0.11990900614E+03  0.12035083956E+03  0.00000000000E+00 0. -1.
        -12    1    6    6    0    0 -0.80766203745E+02  0.45379129911E+02  0.16150001391E+03  0.18618458473E+03  0.00000000000E+00 0.  1.
</event>
<event>
12    1  0.8313893E-002  0.2400006E+03  0.7818608E-02  0.1121103E+00
         21   -1    0    0  503  502  0.00000000000E+00  0.00000000000E+00  0.34681909491E+03  0.34681909491E+03  0.00000000000E+00 0.  1.
         21   -1    0    0  501  503 -0.00000000000E+00 -0.00000000000E+00 -0.10699756495E+04  0.10699756495E+04  0.00000000000E+00 0.  1.
          6    2    1    2  501    0 -0.16038827036E+03  0.19424925778E+02 -0.10136856969E+04  0.10399559823E+04  0.16687728384E+03 0.  0.
         24    2    3    3    0    0 -0.94573338914E+02 -0.11299924718E+02 -0.33124350566E+03  0.35364333042E+03  0.79180429277E+02 0.  0.
         -6    2    1    2    0  502  0.16038827036E+03 -0.19424925778E+02  0.29052914232E+03  0.37683876216E+03  0.17747829478E+03 0.  0.
        -24    2    5    5    0    0  0.11884534747E+03  0.52273942784E+02  0.22176838882E+03  0.26905808941E+03  0.79713584108E+02 0.  0.
          5    1    3    3  501    0 -0.65814931442E+02  0.30724850496E+02 -0.68244219128E+03  0.68631265184E+03  0.47000000000E+01 0. -1.
        -13    1    4    4    0    0 -0.35099751455E+02 -0.23320992401E+02 -0.24253377614E+03  0.24616761323E+03  0.00000000000E+00 0.  1.
         14    1    4    4    0    0 -0.59473587458E+02  0.12021067683E+02 -0.88709729522E+02  0.10747571719E+03  0.00000000000E+00 0. -1.
         -5    1    5    5    0  502  0.41542922890E+02 -0.71698868562E+02  0.68760753508E+02  0.10778067275E+03  0.47000000000E+01 0.  1.
         13    1    6    6    0    0  0.10727860737E+02  0.42445639471E+02  0.62484648111E+02  0.76295809555E+02  0.00000000000E+00 0. -1.
        -14    1    6    6    0    0  0.10811748673E+03  0.98283033132E+01  0.15928374071E+03  0.19276227986E+03  0.00000000000E+00 0.  1.
</event>
<event>
12    1  0.8313893E-002  0.1877409E+03  0.7818608E-02  0.1160629E+00
         21   -1    0    0  501  502  0.00000000000E+00  0.00000000000E+00  0.84789685600E+02  0.84789685600E+02  0.00000000000E+00 0.  1.
         21   -1    0    0  502  503 -0.00000000000E+00 -0.00000000000E+00 -0.45885544624E+03  0.45885544624E+03  0.00000000000E+00 0.  1.
         -6    2    1    2    0  503 -0.55992341919E+02 -0.49633780116E+02 -0.27123005840E+03  0.32958483972E+03  0.17164430522E+03 0.  0.
        -24    2    3    3    0    0  0.21334775312E+02 -0.18164317270E+02 -0.67886561770E+02  0.10972015913E+03  0.81515722356E+02 0.  0.
          6    2    1    2  501    0  0.55992341919E+02  0.49633780116E+02 -0.10283570224E+03  0.21406029212E+03  0.17218586621E+03 0.  0.
         24    2    5    5    0    0 -0.32571394960E+02  0.27561975645E+02 -0.75982039023E+02  0.11880322272E+03  0.80748852640E+02 0.  0.
          5    1    5    5  501    0  0.88563736878E+02  0.22071804470E+02 -0.26853663219E+02  0.95257069400E+02  0.47000000000E+01 0. -1.
        -13    1    6    6    0    0  0.26126687519E+02 -0.47042721121E+00 -0.18755020185E+02  0.32164823715E+02  0.00000000000E+00 0.  1.
         14    1    6    6    0    0 -0.58698082478E+02  0.28032402857E+02 -0.57227018838E+02  0.86638399002E+02  0.00000000000E+00 0. -1.
         -5    1    3    3    0  503 -0.77327117231E+02 -0.31469462845E+02 -0.20334349662E+03  0.21986468059E+03  0.47000000000E+01 0.  1.
         13    1    4    4    0    0  0.20289383124E+02 -0.31823035596E+02 -0.81866735576E+02  0.90147252072E+02  0.00000000000E+00 0. -1.
        -14    1    4    4    0    0  0.10453921880E+01  0.13658718325E+02  0.13980173806E+02  0.19572907060E+02  0.00000000000E+00 0.  1.
</event>
<event>
12    1  0.8313893E-002  0.2745438E+03  0.7818608E-02  0.1099237E+00
         21   -1    0    0  501  502  0.00000000000E+00  0.00000000000E+00  0.32868854532E+02  0.32868854532E+02  0.00000000000E+00 0. -1.
         21   -1    0    0  502  503 -0.00000000000E+00 -0.00000000000E+00 -0.22852949144E+04  0.22852949144E+04  0.00000000000E+00 0. -1.
         -6    2    1    2    0  503  0.20904394475E+03  0.13292743002E+02 -0.10013037802E+04  0.10372729573E+04  0.17160961449E+03 0.  0.
        -24    2    3    3    0    0  0.16366539255E+03  0.62265341658E+02 -0.58886196232E+03  0.61943582206E+03  0.79240100322E+02 0.  0.
          6    2    1    2  501    0 -0.20904394475E+03 -0.13292743002E+02 -0.12511222796E+04  0.12808908116E+04  0.17747744889E+03 0.  0.
         24    2    5    5    0    0 -0.17686125461E+03  0.14019507174E+02 -0.67384230069E+03  0.70205063624E+03  0.85645780291E+02 0.  0.
          5    1    5    5  501    0 -0.32182690139E+02 -0.27312250176E+02 -0.57727997890E+03  0.57884017534E+03  0.47000000000E+01 0. -1.
        -11    1    6    6    0    0 -0.12529276804E+03  0.78521674694E+01 -0.30896423065E+03  0.33349487264E+03  0.00000000000E+00 0.  1.
         12    1    6    6    0    0 -0.51568486578E+02  0.61673397046E+01 -0.36487807004E+03  0.36855576360E+03  0.00000000000E+00 0. -1.
         -5    1    3    3    0  503  0.45378552204E+02 -0.48972598656E+02 -0.41244181793E+03  0.41783713525E+03  0.47000000000E+01 0.  1.
         11    1    4    4    0    0  0.35387475118E+02  0.26983732383E+01 -0.44066535420E+02  0.56581040617E+02  0.00000000000E+00 0. -1.
        -12    1    4    4    0    0  0.12827791743E+03  0.59566968420E+02 -0.54479542690E+03  0.56285478144E+03  0.00000000000E+00 0.  1.
</event>
<event>
12    1  0.8313893E-002  0.2288236E+03  0.7818608E-02  0.1127706E+00
         21   -1    0    0  503  502  0.00000000000E+00  0.00000000000E+00  0.60747126865E+02  0.60747126865E+02  0.00000000000E+00 0.  1.
         21   -1    0    0  501  503 -0.00000000000E+00 -0.00000000000E+00 -0.97362281054E+03  0.97362281054E+03  0.00000000000E+00 0.  1.
          6    2    1    2  501    0 -0.14264906594E+03  0.41833458967E+02 -0.63430010125E+03  0.67386394169E+03  0.17221265681E+03 0.  0.
         24    2    3    3    0    0 -0.12930385066E+03 -0.15399999392E+02 -0.32575485742E+03  0.35973654554E+03  0.79608474951E+02 0.  0.
         -6    2    1    2    0  502  0.14264906594E+03 -0.41833458967E+02 -0.27857558243E+03  0.36050599571E+03  0.17395810851E+03 0.  0.
        -24    2    5    5    0    0  0.54127372745E+02  0.36465086368E+02 -0.17339554538E+03  0.20222876248E+03  0.81061595172E+02 0.  0.
          5    1    3    3  501    0 -0.13345215274E+02  0.57233458359E+02 -0.30854524383E+03  0.31412739615E+03  0.47000000000E+01 0. -1.
        -11    1    4    4    0    0 -0.85337036083E+02 -0.43904673208E+02 -0.24850718137E+03  0.26639416144E+03  0.00000000000E+00 0.  1.
         12    1    4    4    0    0 -0.43966814581E+02  0.28504673816E+02 -0.77247676055E+02  0.93342384101E+02  0.00000000000E+00 0. -1.
         -5    1    5    5    0  502  0.88521693193E+02 -0.78298545334E+02 -0.10518003705E+03  0.15827723324E+03  0.47000000000E+01 0.  1.
         13    1    6    6    0    0  0.18332425022E+02  0.38042499437E+02 -0.23949814723E+02  0.48547947391E+02  0.00000000000E+00 0. -1.
        -14    1    6    6    0    0  0.35794947723E+02 -0.15774130695E+01 -0.14944573065E+03  0.15368081508E+03  0.00000000000E+00 0.  1.
</event>
<event>
12    1  0.8313893E-002  0.2019698E+03  0.7818608E-02  0.1149211E+00
         21   -1    0    0  501  502  0.00000000000E+00  0.00000000000E+00  0.86312667999E+02  0.86312667999E+02  0.00000000000E+00 0. -1.
         21   -1    0    0  502  503 -0.00000000000E+00 -0.00000000000E+00 -0.46164873836E+03  0.46164873836E+03  0.00000000000E+00 0. -1.
         -6    2    1    2    0  503 -0.90136785550E+02  0.20953089046E+02 -0.17505480562E+03  0.26727508019E+03  0.17952189692E+03 0.  0.
        -24    2    3    3    0    0 -0.11053080177E+03 -0.21393646631E+01 -0.18967495239E+03  0.23285101873E+03  0.77597515022E+02 0.  0.
          6    2    1    2  501    0  0.90136785550E+02 -0.20953089046E+02 -0.20028126474E+03  0.28068632616E+03  0.17351817380E+03 0.  0.
         24    2    5    5    0    0  0.68292835773E+02 -0.74875053505E+02 -0.98134401948E+02  0.16303936287E+03  0.81739145729E+02 0.  0.
          5    1    5    5  501    0  0.21843949778E+02  0.53921964460E+02 -0.10214686280E+03  0.11764696329E+03  0.47000000000E+01 0. -1.
        -11    1    6    6    0    0 -0.16344960513E+01 -0.34271034711E+02  0.19574191708E+01  0.34365780761E+02  0.00000000000E+00 0.  1.
         12    1    6    6    0    0  0.69927331824E+02 -0.40604018795E+02 -0.10009182112E+03  0.12867358211E+03  0.00000000000E+00 0. -1.
         -5    1    3    3    0  503  0.20394016217E+02  0.23092453709E+02  0.14620146778E+02  0.34424061462E+02  0.47000000000E+01 0.  1.
         11    1    4    4    0    0 -0.65698528917E+02 -0.38697635587E+02 -0.12146226308E+03  0.14341159317E+03  0.00000000000E+00 0. -1.
        -12    1    4    4    0    0 -0.44832272850E+02  0.36558270923E+02 -0.68212689313E+02  0.89439425564E+02  0.00000000000E+00 0.  1.
</event>
<event>
12    1  0.8313893E-002  0.1920289E+03  0.7818608E-02  0.1156682E+00
         21   -1    0    0  501  502  0.00000000000E+00  0.00000000000E+00  0.30155330943E+03  0.30155330943E+03  0.00000000000E+00 0. -1.
         21   -1    0    0  502  503 -0.00000000000E+00 -0.00000000000E+00 -0.24417299891E+03  0.24417299891E+03  0.00000000000E+00 0. -1.
         -6    2    1    2    0  503  0.70810913756E+01 -0.84621310353E+02 -0.16417680641E+03  0.25264423248E+03  0.17223291329E+03 0.  0.
        -24    2    3    3    0    0 -0.30331310893E+00 -0.74150978565E+02 -0.20716140351E+02  0.10853590522E+03  0.76501141368E+02 0.  0.
          6    2    1    2  501    0 -0.70810913756E+01  0.84621310353E+02  0.22155711693E+03  0.29308207586E+03  0.17204255028E+03 0.  0.
         24    2    5    5    0    0 -0.15588528118E+02  0.10169844493E+03  0.23608257840E+03  0.26864677280E+03  0.76488749503E+02 0.  0.
          5    1    5    5  501    0  0.85074367427E+01 -0.17077134573E+02 -0.14525461466E+02  0.24435303067E+02  0.47000000000E+01 0. -1.
        -13    1    6    6    0    0 -0.16809769693E+01 -0.10802459573E+01 -0.54408492071E+01  0.57961586412E+01  0.00000000000E+00 0.  1.
         14    1    6    6    0    0 -0.13907551149E+02  0.10277869088E+03  0.24152342761E+03  0.26285061416E+03  0.00000000000E+00 0. -1.
         -5    1    3    3    0  503  0.73844044845E+01 -0.10470331788E+02 -0.14346066606E+03  0.14410832726E+03  0.47000000000E+01 0.  1.
         11    1    4    4    0    0  0.34826118462E+02 -0.37052638976E+02 -0.26106979184E+02  0.57160571589E+02  0.00000000000E+00 0. -1.
        -12    1    4    4    0    0 -0.35129431571E+02 -0.37098339588E+02  0.53908388332E+01  0.51375333634E+02  0.00000000000E+00 0.  1.
</event>
<event>
12    1  0.8313893E-002  0.2229718E+03  0.7818608E-02  0.1132593E+00
         21   -1    0    0  503  502  0.00000000000E+00  0.00000000000E+00  0.12506335206E+03  0.12506335206E+03  0.00000000000E+00 0. -1.
         21   -1    0    0  501  503 -0.00000000000E+00 -0.00000000000E+00 -0.43015256500E+03  0.43015256500E+03  0.00000000000E+00 0. -1.
          6    2    1    2  501    0 -0.88471372006E+02  0.11099736439E+03 -0.68066586487E+02  0.23312975873E+03  0.17195588284E+03 0.  0.
         24    2    3    3    0    0 -0.99639108649E+01  0.37290172142E+02  0.21620582605E+02  0.92908326905E+02  0.81698660686E+02 0.  0.
         -6    2    1    2    0  502  0.88471372006E+02 -0.11099736439E+03 -0.23702262645E+03  0.32208615832E+03  0.16556620840E+03 0.  0.
        -24    2    5    5    0    0  0.10182379082E+03 -0.13698259086E+03 -0.19780000973E+03  0.27295345287E+03  0.79034353331E+02 0.  0.
          5    1    3    3  501    0 -0.78507461141E+02  0.73707192251E+02 -0.89687169092E+02  0.14022143183E+03  0.47000000000E+01 0. -1.
        -13    1    4    4    0    0 -0.29091281578E+02  0.22809109161E+02 -0.22077464809E+02  0.43057781840E+02  0.00000000000E+00 0.  1.
         14    1    4    4    0    0  0.19127370713E+02  0.14481062981E+02  0.43698047414E+02  0.49850545065E+02  0.00000000000E+00 0. -1.
         -5    1    5    5    0  502 -0.13352418816E+02  0.25985226463E+02 -0.39222616723E+02  0.49132705454E+02  0.47000000000E+01 0.  1.
         11    1    6    6    0    0  0.55270451376E+02 -0.46389461102E+02 -0.13561321384E+03  0.15361558731E+03  0.00000000000E+00 0. -1.
        -12    1    6    6    0    0  0.46553339445E+02 -0.90593129754E+02 -0.62186795893E+02  0.11933786556E+03  0.00000000000E+00 0.  1.
</event>
<event>
12    1  0.8313893E-002  0.1805191E+03  0.7818608E-02  0.1167437E+00
         21   -1    0    0  501  502  0.00000000000E+00  0.00000000000E+00  0.37320195787E+02  0.37320195787E+02  0.00000000000E+00 0.  1.
         21   -1    0    0  502  503 -0.00000000000E+00 -0.00000000000E+00 -0.93253929640E+03  0.93253929640E+03  0.00000000000E+00 0. -1.
         -6    2    1    2    0  503  0.52359923375E+02 -0.13595544604E+02 -0.32314129874E+03  0.37014516318E+03  0.17222294408E+03 0.  0.
        -24    2    3    3    0    0  0.55356521530E+02  0.35437729003E+02 -0.29471765627E+03  0.31319575605E+03  0.83143896825E+02 0.  0.
          6    2    1    2  501    0 -0.52359923375E+02  0.13595544604E+02 -0.57207780187E+03  0.59971432900E+03  0.17163293567E+03 0.  0.
         24    2    5    5    0    0 -0.10645304260E+02  0.70859641918E+01 -0.97974408589E+02  0.12371159623E+03  0.74444885061E+02 0.  0.
          5    1    5    5  501    0 -0.41714619115E+02  0.65095804117E+01 -0.47410339328E+03  0.47600273277E+03  0.47000000000E+01 0. -1.
        -13    1    6    6    0    0 -0.92369433968E+01  0.40714416026E+02 -0.57807987607E+02  0.71307420560E+02  0.00000000000E+00 0.  1.
         14    1    6    6    0    0 -0.14083608628E+01 -0.33628451834E+02 -0.40166420981E+02  0.52404175669E+02  0.00000000000E+00 0. -1.
         -5    1    3    3    0  503 -0.29965981548E+01 -0.49033273607E+02 -0.28423642466E+02  0.56949407127E+02  0.47000000000E+01 0.  1.
         13    1    4    4    0    0 -0.46848024562E+01  0.39679481432E+01 -0.17884637198E+03  0.17895171627E+03  0.00000000000E+00 0. -1.
        -14    1    4    4    0    0  0.60041323986E+02  0.31469780860E+02 -0.11587128429E+03  0.13424403978E+03  0.00000000000E+00 0.  1.
</event>
<event>
12    1  0.8313893E-002  0.2104240E+03  0.7818608E-02  0.1141506E+00
         21   -1    0    0  501  502  0.00000000000E+00  0.00000000000E+00  0.11520732658E+03  0.11520732658E+03  0.00000000000E+00 0. -1.
         21   -1    0    0  502  503 -0.00000000000E+00 -0.00000000000E+00 -0.39784169341E+03  0.39784169341E+03  0.00000000000E+00 0. -1.
         -6    2    1    2    0  503  0.83754427226E+02  0.86125369975E+02 -0.89363791125E+02  0.22733630166E+03  0.17106584537E+03 0.  0.
        -24    2    3    3    0    0  0.54652383680E+02  0.12585177567E+03 -0.58828982687E+02  0.16920213981E+03  0.79642717368E+02 0.  0.
          6    2    1    2  501    0 -0.83754427226E+02 -0.86125369975E+02 -0.19327057571E+03  0.28571271834E+03  0.17275953968E+03 0.  0.
         24    2    5    5    0    0 -0.19411952814E+02 -0.15447663141E+02 -0.16722182590E+02  0.84897586013E+02  0.79451334235E+02 0.  0.
          5    1    5    5  501    0 -0.64342474413E+02 -0.70677706834E+02 -0.17654839312E+03  0.20081513232E+03  0.47000000000E+01 0. -1.
        -13    1    6    6    0    0 -0.58447808503E+01  0.17287108605E+02 -0.38988387868E+02  0.43047647736E+02  0.00000000000E+00 0.  1.
         14    1    6    6    0    0 -0.13567171963E+02 -0.32734771745E+02  0.22266205278E+02  0.41849938277E+02  0.00000000000E+00 0. -1.
         -5    1    3    3    0  503  0.29102043547E+02 -0.39726405694E+02 -0.30534808438E+02  0.58134161852E+02  0.47000000000E+01 0.  1.
         11    1    4    4    0    0  0.60184408920E+02  0.83514218980E+02 -0.70704944033E+02  0.12488385388E+03  0.00000000000E+00 0. -1.
        -12    1    4    4    0    0 -0.55320252399E+01  0.42337556689E+02  0.11875961345E+02  0.44318285927E+02  0.00000000000E+00 0.  1.
</event>
<event>
12    1  0.8313893E-002  0.2417339E+03  0.7818608E-02  0.1118754E+00
         21   -1    0    0  503  502  0.00000000000E+00  0.00000000000E+00  0.70239487130E+03  0.70239487130E+03  0.00000000000E+00 0.  1.
         21   -1    0    0  501  503 -0.00000000000E+00 -0.00000000000E+00 -0.10118174357E+03  0.10118174357E+03  0.00000000000E+00 0.  1.
          6    2    1    2  501    0 -0.13141574553E+03  0.10542877733E+03  0.12977378306E+03  0.27377445210E+03  0.17241197925E+03 0.  0.
         24    2    3    3    0    0  0.13126114382E+01  0.67518385733E+02  0.45381928211E+02  0.11191621258E+03  0.76845714709E+02 0.  0.
         -6    2    1    2    0  502  0.13141574553E+03 -0.10542877733E+03  0.47143934467E+03  0.52980216277E+03  0.17334921605E+03 0.  0.
        -24    2    5    5    0    0  0.16249546672E+03 -0.70567364381E+02  0.38049956850E+03  0.42746253177E+03  0.80992375067E+02 0.  0.
          5    1    3    3  501    0 -0.13272835697E+03  0.37910391597E+02  0.84391854852E+02  0.16185823952E+03  0.47000000000E+01 0. -1.
        -11    1    4    4    0    0 -0.36940801693E+02  0.41594526140E+02  0.30059114542E+02  0.63231936564E+02  0.00000000000E+00 0.  1.
         12    1    4    4    0    0  0.38253413131E+02  0.25923859593E+02  0.15322813670E+02  0.48684276015E+02  0.00000000000E+00 0. -1.
         -5    1    5    5    0  502 -0.31079721193E+02 -0.34861412949E+02  0.90939776172E+02  0.10233963100E+03  0.47000000000E+01 0.  1.
         13    1    6    6    0    0 -0.51951437548E+01 -0.11739939535E+02  0.56365523250E+02  0.57809064256E+02  0.00000000000E+00 0. -1.
        -14    1    6    6    0    0  0.16769061048E+03 -0.58827424846E+02  0.32413404525E+03  0.36965346752E+03  0.00000000000E+00 0.  1.
</event>
<event>
12    1  0.8313893E-002  0.2204992E+03  0.7818608E-02  0.1133690E+00
         21   -1    0    0  501  502  0.00000000000E+00  0.00000000000E+00  0.15840179600E+04  0.15840179600E+04  0.00000000000E+00 0. -1.
         21   -1    0    0  502  503 -0.00000000000E+00 -0.00000000000E+00 -0.49173190723E+02  0.49173190723E+02  0.00000000000E+00 0. -1.
         -6    2    1    2    0  503 -0.11520419279E+03 -0.74197640417E+02  0.26399166208E+03  0.34335103921E+03  0.17152563248E+03 0.  0.
        -24    2    3    3    0    0 -0.11348824625E+03 -0.68003970083E+02  0.28342213276E+03  0.32235248651E+03  0.77967289563E+02 0.  0.
          6    2    1    2  501    0  0.11520419279E+03  0.74197640417E+02  0.12708531072E+04  0.12898401115E+04  0.17275010078E+03 0.  0.
         24    2    5    5    0    0  0.11531213876E+02  0.23237772331E+02  0.82190444482E+03  0.82624331885E+03  0.80486909398E+02 0.  0.
          5    1    5    5  501    0  0.10367297892E+03  0.50959868086E+02  0.44894866236E+03  0.46359679264E+03  0.47000000000E+01 0. -1.
        -13    1    6    6    0    0  0.18840864651E+02 -0.79021150132E+01  0.55000604306E+02  0.58672720036E+02  0.00000000000E+00 0.  1.
         14    1    6    6    0    0 -0.73096507749E+01  0.31139887344E+02  0.76690384051E+03  0.76757059882E+03  0.00000000000E+00 0. -1.
         -5    1    3    3    0  503 -0.17159465445E+01 -0.61936703340E+01 -0.19430470674E+02  0.20998552697E+02  0.47000000000E+01 0.  1.
         13    1    4    4    0    0 -0.30783094447E+02 -0.39733418485E+02  0.41683739497E+02  0.65298373538E+02  0.00000000000E+00 0. -1.
        -14    1    4    4    0    0 -0.82705151801E+02 -0.28270551598E+02  0.24173839326E+03  0.25705411298E+03  0.00000000000E+00 0.  1.
</event>
<event>
12    1  0.8313893E-002  0.2058686E+03  0.7818608E-02  0.1146525E+00
         21   -1    0    0  503  502  0.00000000000E+00  0.00000000000E+00  0.66784013388E+03  0.66784013388E+03  0.00000000000E+00 0.  1.
         21   -1    0    0  501  503 -0.00000000000E+00 -0.00000000000E+00 -0.93540758801E+02  0.93540758801E+02  0.00000000000E+00 0. -1.
          6    2    1    2  501    0  0.10326376569E+03  0.54811964078E+01  0.59102584365E+02  0.20657498639E+03  0.16877991795E+03 0.  0.
         24    2    3    3    0    0 -0.45637960517E+01 -0.11061011029E+02  0.52513571707E+02  0.97186080254E+02  0.80896753842E+02 0.  0.
         -6    2    1    2    0  502 -0.10326376569E+03 -0.54811964078E+01  0.51519679071E+03  0.55480590629E+03  0.17801239192E+03 0.  0.
        -24    2    5    5    0    0 -0.17313416964E+02  0.36104559179E+02  0.37112344417E+03  0.38190114437E+03  0.80700555467E+02 0.  0.
          5    1    3    3  501    0  0.10782756174E+03  0.16542207437E+02  0.65890126575E+01  0.10938890613E+03  0.47000000000E+01 0. -1.
        -11    1    4    4    0    0 -0.32477632260E+02  0.19773240402E+02  0.14054409552E+02  0.40537686923E+02  0.00000000000E+00 0.  1.
         12    1    4    4    0    0  0.27913836208E+02 -0.30834251431E+02  0.38459162155E+02  0.56648393330E+02  0.00000000000E+00 0. -1.
         -5    1    5    5    0  502 -0.85950348723E+02 -0.41585755586E+02  0.14407334654E+03  0.17290476192E+03  0.47000000000E+01 0.  1.
         11    1    6    6    0    0 -0.26696774656E+02  0.41179118333E+02  0.10874536393E+03  0.11930629380E+03  0.00000000000E+00 0. -1.
        -12    1    6    6    0    0  0.93833576919E+01 -0.50745591545E+01  0.26237808025E+03  0.26259485057E+03  0.00000000000E+00 0.  1.
</event>
<event>
12    1  0.8313893E-002  0.2662104E+03  0.7818608E-02  0.1104487E+00
         21   -1    0    0  503  502  0.00000000000E+00  0.00000000000E+00  0.47936762246E+03  0.47936762246E+03  0.00000000000E+00 0.  1.
         21   -1    0    0  501  503 -0.00000000000E+00 -0.00000000000E+00 -0.77135939347E+03  0.77135939347E+03  0.00000000000E+00 0.  1.
          6    2    1    2  501    0 -0.92531013765E+02  0.17039602582E+03 -0.71030787624E+03  0.75855470310E+03  0.18240384980E+03 0.  0.
         24    2    3    3    0    0 -0.11080107011E+02  0.15144031032E+02 -0.32577629646E+03  0.33591530841E+03  0.79729471589E+02 0.  0.
         -6    2    1    2    0  502  0.92531013765E+02 -0.17039602582E+03  0.41831610523E+03  0.49217231283E+03  0.17218718738E+03 0.  0.
        -24    2    5    5    0    0  0.11973261959E+02 -0.62528782213E+02  0.29037250744E+03  0.30638601668E+03  0.74182144318E+02 0.  0.
          5    1    3    3  501    0 -0.81450906755E+02  0.15525199479E+03 -0.38453157978E+03  0.42263939469E+03  0.47000000000E+01 0. -1.
        -13    1    4    4    0    0 -0.34494680134E+02  0.36377475112E+02 -0.21010558793E+03  0.21600361509E+03  0.00000000000E+00 0.  1.
         14    1    4    4    0    0  0.23414573123E+02 -0.21233444080E+02 -0.11567070853E+03  0.11991169332E+03  0.00000000000E+00 0. -1.
         -5    1    5    5    0  502  0.80557751806E+02 -0.10786724361E+03  0.12794359779E+03  0.18578629614E+03  0.47000000000E+01 0.  1.
         11    1    6    6    0    0 -0.16518337691E+02 -0.33621005084E+02  0.49281638483E+02  0.61902401847E+02  0.00000000000E+00 0. -1.
        -12    1    6    6    0    0  0.28491599650E+02 -0.28907777129E+02  0.24109086896E+03  0.24448361484E+03  0.00000000000E+00 0.  1.
</event>
<event>
12    1  0.8313893E-002  0.2075946E+03  0.7818608E-02  0.1143528E+00
         21   -1    0    0  501  502  0.00000000000E+00  0.00000000000E+00  0.13178663822E+03  0.13178663822E+03  0.00000000000E+00 0.  1.
         21   -1    0    0  502  503 -0.00000000000E+00 -0.00000000000E+00 -0.36646286202E+03  0.36646286202E+03  0.00000000000E+00 0. -1.
         -6    2    1    2    0  503  0.10757183702E+02  0.11507731298E+03 -0.35192354060E+02  0.21034443989E+03  0.17218529741E+03 0.  0.
        -24    2    3    3    0    0 -0.21342023090E+02  0.78369093462E+02 -0.83740886585E+02  0.14137413855E+03  0.79855583426E+02 0.  0.
          6    2    1    2  501    0 -0.10757183702E+02 -0.11507731298E+03 -0.19948386974E+03  0.28790506035E+03  0.17244420699E+03 0.  0.
         24    2    5    5    0    0 -0.31182269997E+02 -0.94526276924E+01 -0.41064651036E+02  0.96352203028E+02  0.80844018525E+02 0.  0.
          5    1    5    5  501    0  0.20425086295E+02 -0.10562468529E+03 -0.15841921870E+03  0.19155285732E+03  0.47000000000E+01 0. -1.
        -11    1    6    6    0    0 -0.50840979593E+02 -0.11956264234E+02 -0.16709957431E+01  0.52254661870E+02  0.00000000000E+00 0.  1.
         12    1    6    6    0    0  0.19658709596E+02  0.25036365418E+01 -0.39393655293E+02  0.44097541158E+02  0.00000000000E+00 0. -1.
         -5    1    3    3    0  503  0.32099206792E+02  0.36708219521E+02  0.48548532525E+02  0.68970301344E+02  0.47000000000E+01 0.  1.
         13    1    4    4    0    0 -0.50066109068E+02  0.51347660820E+02 -0.38639882550E+02  0.81463108659E+02  0.00000000000E+00 0. -1.
        -14    1    4    4    0    0  0.28724085978E+02  0.27021432643E+02 -0.45101004036E+02  0.59911029889E+02  0.00000000000E+00 0.  1.
</event>
<event>
12    1  0.8313893E-002  0.1782820E+03  0.7818608E-02  0.1169605E+00
         21   -1    0    0  501  502  0.00000000000E+00  0.00000000000E+00  0.39582984278E+03  0.39582984278E+03  0.00000000000E+00 0.  1.
         21   -1    0    0  502  503 -0.00000000000E+00 -0.00000000000E+00 -0.15692700898E+03  0.15692700898E+03  0.00000000000E+00 0.  1.
         -6    2    1    2    0  503  0.42253546642E+02  0.12359577899E+01 -0.74065674587E+02  0.19257112202E+03  0.17265868958E+03 0.  0.
        -24    2    3    3    0    0  0.84720567322E+02 -0.10794763561E+02 -0.89414711836E+02  0.14560444185E+03  0.76886678598E+02 0.  0.
          6    2    1    2  501    0 -0.42253546642E+02 -0.12359577899E+01  0.31296850838E+03  0.36018572974E+03  0.17319810298E+03 0.  0.
         24    2    5    5    0    0 -0.45565352061E+02 -0.24300546035E+02  0.32083343934E+03  0.33514794978E+03  0.81995942568E+02 0.  0.
          5    1    5    5  501    0  0.33118054188E+01  0.23064588245E+02 -0.78649309646E+01  0.25037779956E+02  0.47000000000E+01 0. -1.
        -11    1    6    6    0    0  0.20368451291E+02 -0.21416270727E+02  0.12675733398E+03  0.13015741307E+03  0.00000000000E+00 0.  1.
         12    1    6    6    0    0 -0.65933803352E+02 -0.28842753078E+01  0.19407610536E+03  0.20499053671E+03  0.00000000000E+00 0. -1.
         -5    1    3    3    0  503 -0.42467020680E+02  0.12030721351E+02  0.15349037249E+02  0.46966680169E+02  0.47000000000E+01 0.  1.
         11    1    4    4    0    0  0.46732297612E+02  0.25790877854E+02 -0.16998615821E+02  0.56018121714E+02  0.00000000000E+00 0. -1.
        -12    1    4    4    0    0  0.37988269710E+02 -0.36585641415E+02 -0.72416096015E+02  0.89586320135E+02  0.00000000000E+00 0.  1.
</event>
<event>
12    1  0.8313893E-002  0.3140057E+03  0.7818608E-02  0.1079069E+00
         21   -1    0    0  501  502  0.00000000000E+00  0.00000000000E+00  0.23520640982E+03  0.23520640982E+03  0.00000000000E+00 0. -1.
         21   -1    0    0  502  503 -0.00000000000E+00 -0.00000000000E+00 -0.44667991509E+03  0.44667991509E+03  0.00000000000E+00 0.  1.
         -6    2    1    2    0  503 -0.25603088822E+03  0.20016662913E+02 -0.20129834735E+03  0.37298878742E+03  0.18068516369E+03 0.  0.
        -24    2    3    3    0    0 -0.13270001391E+03  0.69089110392E+02 -0.16176727558E+03  0.23441243556E+03  0.79987121650E+02 0.  0.
          6    2    1    2  501    0  0.25603088822E+03 -0.20016662913E+02 -0.10175157917E+02  0.30889753749E+03  0.17135247975E+03 0.  0.
         24    2    5    5    0    0  0.26720901556E+03 -0.16104097369E+02 -0.34193903027E+02  0.28170840700E+03  0.80810912766E+02 0.  0.
          5    1    5    5  501    0 -0.11178127347E+02 -0.39125655435E+01  0.24018745110E+02  0.27189130490E+02  0.47000000000E+01 0. -1.
        -11    1    6    6    0    0  0.17083799011E+03 -0.48390360516E+02 -0.29254232882E+02  0.17995292717E+03  0.00000000000E+00 0.  1.
         12    1    6    6    0    0  0.96371025455E+02  0.32286263147E+02 -0.49396701447E+01  0.10175547983E+03  0.00000000000E+00 0. -1.
         -5    1    3    3    0  503 -0.12333087431E+03 -0.49072447480E+02 -0.39531071773E+02  0.13857635186E+03  0.47000000000E+01 0.  1.
         11    1    4    4    0    0  0.73760995949E+01  0.15045756283E+02 -0.53298452068E+01  0.17583767437E+02  0.00000000000E+00 0. -1.
        -12    1    4    4    0    0 -0.14007611350E+03  0.54043354109E+02 -0.15643743037E+03  0.21682866812E+03  0.00000000000E+00 0.  1.
</event>
<event>
12    1  0.8313893E-002  0.1788901E+03  0.7818608E-02  0.1169012E+00
         21   -1    0    0  503  502  0.00000000000E+00  0.00000000000E+00  0.21812334775E+03  0.21812334775E+03  0.00000000000E+00 0.  1.
         21   -1    0    0  501  503 -0.00000000000E+00 -0.00000000000E+00 -0.17762350261E+03  0.17762350261E+03  0.00000000000E+00 0.  1.
          6    2    1    2  501    0 -0.33543646746E+02 -0.31905199629E+02 -0.62899725418E+02  0.18912363620E+03  0.17224475700E+03 0.  0.
         24    2    3    3    0    0  0.90407515047E+01  0.35847448181E+02 -0.14353079705E+01  0.88109692256E+02  0.79965511513E+02 0.  0.
         -6    2    1    2    0  502  0.33543646746E+02  0.31905199629E+02  0.10339957056E+03  0.20662321415E+03  0.17279630619E+03 0.  0.
        -24    2    5    5    0    0 -0.42096547314E+02  0.42872320712E+02  0.37755639383E+02  0.10576225836E+03  0.78422011002E+02 0.  0.
          5    1    3    3  501    0 -0.42584398250E+02 -0.67752647811E+02 -0.61464417448E+02  0.10101394395E+03  0.47000000000E+01 0. -1.
        -13    1    4    4    0    0  0.32494744189E+02 -0.42755951561E+01  0.18391018677E+02  0.37582159090E+02  0.00000000000E+00 0.  1.
         14    1    4    4    0    0 -0.23453992685E+02  0.40123043337E+02 -0.19826326647E+02  0.50527533166E+02  0.00000000000E+00 0. -1.
         -5    1    5    5    0  502  0.75640194060E+02 -0.10967121083E+02  0.65643931180E+02  0.10086095579E+03  0.47000000000E+01 0.  1.
         13    1    6    6    0    0 -0.10868294676E+02  0.23509556119E+02  0.58207623381E+02  0.63709861700E+02  0.00000000000E+00 0. -1.
        -14    1    6    6    0    0 -0.31228252638E+02  0.19362764593E+02 -0.20451983999E+02  0.42052396662E+02  0.00000000000E+00 0.  1.
</event>
<event>
12    1  0.8313893E-002  0.1934041E+03  0.7818608E-02  0.1155631E+00
         21   -1    0    0  503  502  0.00000000000E+00  0.00000000000E+00  0.35974804260E+04  0.35974804260E+04  0.00000000000E+00 0. -1.
         21   -1    0    0  501  503 -0.00000000000E+00 -0.00000000000E+00 -0.12255310099E+02  0.12255310099E+02  0.00000000000E+00 0. -1.
          6    2    1    2  501    0  0.74005224786E+02  0.48046656444E+02  0.25082833417E+04  0.25157286175E+04  0.17210432985E+03 0.  0.
         24    2    3    3    0    0  0.65310368171E+02 -0.34734310803E+02  0.15734366394E+04  0.15771718873E+04  0.79349778495E+02 0.  0.
         -6    2    1    2    0  502 -0.74005224786E+02 -0.48046656444E+02  0.10769417743E+04  0.10940071186E+04  0.17106354363E+03 0.  0.
        -24    2    5    5    0    0  0.10409654110E+02 -0.46327054403E+02  0.34984392833E+03  0.36200835062E+03  0.80029462427E+02 0.  0.
          5    1    3    3  501    0  0.86948566150E+01  0.82780967247E+02  0.93484670223E+03  0.93855673016E+03  0.47000000000E+01 0. -1.
        -11    1    4    4    0    0  0.20657411982E+02  0.11253216484E+02  0.11786370727E+03  0.12018825667E+03  0.00000000000E+00 0.  1.
         12    1    4    4    0    0  0.44652956189E+02 -0.45987527287E+02  0.14555729322E+04  0.14569836307E+04  0.00000000000E+00 0. -1.
         -5    1    5    5    0  502 -0.84414878896E+02 -0.17196020417E+01  0.72709784595E+03  0.73199876802E+03  0.47000000000E+01 0.  1.
         11    1    6    6    0    0  0.91100356744E+01 -0.53791965831E+02  0.11758240901E+03  0.12962326661E+03  0.00000000000E+00 0. -1.
        -12    1    6    6    0    0  0.12996184360E+01  0.74649114280E+01  0.23226151932E+03  0.23238508401E+03  0.00000000000E+00 0.  1.
</event>
<event>
12    1  0.8313893E-002  0.1907618E+03  0.7818608E-02  0.1158396E+00
         21   -1    0    0  501  502  0.00000000000E+00  0.00000000000E+00  0.55931808056E+03  0.55931808056E+03  0.00000000000E+00 0. -1.
         21   -1    0    0  502  503 -0.00000000000E+00 -0.00000000000E+00 -0.89165331695E+02  0.89165331695E+02  0.00000000000E+00 0. -1.
         -6    2    1    2    0  503  0.40529288001E+02  0.65470432545E+02  0.62045620012E+02  0.19799311230E+03  0.17153020968E+03 0.  0.
        -24    2    3    3    0    0  0.65219324783E+01 -0.13385949859E+02  0.65721840793E+02  0.11190923533E+03  0.89345382301E+02 0.  0.
          6    2    1    2  501    0 -0.40529288001E+02 -0.65470432545E+02  0.40810712885E+03  0.45049029995E+03  0.17453103164E+03 0.  0.
         24    2    5    5    0    0 -0.54810388722E+02  0.17303786640E+02  0.28545666651E+03  0.30175984875E+03  0.79182688274E+02 0.  0.
          5    1    5    5  501    0  0.14281100722E+02 -0.82774219185E+02  0.12265046234E+03  0.14873045120E+03  0.47000000000E+01 0. -1.
        -11    1    6    6    0    0 -0.11260725746E+02  0.17919003057E+01 -0.11393590403E+01  0.11459188019E+02  0.00000000000E+00 0.  1.
         12    1    6    6    0    0 -0.43549662976E+02  0.15511886334E+02  0.28659602555E+03  0.29030066073E+03  0.00000000000E+00 0. -1.
         -5    1    3    3    0  503  0.34007355523E+02  0.78856382404E+02 -0.36762207811E+01  0.86083876973E+02  0.47000000000E+01 0.  1.
         11    1    4    4    0    0 -0.12982566614E+02  0.35564904494E+02  0.26217654422E+02  0.46051871525E+02  0.00000000000E+00 0. -1.
        -12    1    4    4    0    0  0.19504499093E+02 -0.48950854353E+02  0.39504186372E+02  0.65857363807E+02  0.00000000000E+00 0.  1.
</event>
<event>
12    1  0.8313893E-002  0.1811394E+03  0.7818608E-02  0.1167539E+00
         21   -1    0    0  503  502  0.00000000000E+00  0.00000000000E+00  0.13337968715E+03  0.13337968715E+03  0.00000000000E+00 0. -1.
         21   -1    0    0  501  503 -0.00000000000E+00 -0.00000000000E+00 -0.24183374235E+03  0.24183374235E+03  0.00000000000E+00 0. -1.
          6    2    1    2  501    0  0.50414308111E+02  0.28614471509E+02 -0.46352141842E+02  0.18697591895E+03  0.17161317773E+03 0.  0.
         24    2    3    3    0    0  0.11048783466E+01 -0.17147875178E+02 -0.77629767743E+02  0.11263890179E+03  0.79786408474E+02 0.  0.
         -6    2    1    2    0  502 -0.50414308111E+02 -0.28614471509E+02 -0.62101913356E+02  0.18823751055E+03  0.16797714812E+03 0.  0.
        -24    2    5    5    0    0  0.88388971252E+01 -0.17848462892E+02 -0.89804404396E+02  0.12178175623E+03  0.79807714982E+02 0.  0.
          5    1    3    3  501    0  0.49309429764E+02  0.45762346687E+02  0.31277625902E+02  0.74337017158E+02  0.47000000000E+01 0. -1.
        -13    1    4    4    0    0 -0.32690268951E+01 -0.48546250397E+02 -0.56389468746E+02  0.74479508255E+02  0.00000000000E+00 0.  1.
         14    1    4    4    0    0  0.43739052417E+01  0.31398375219E+02 -0.21240298997E+02  0.38159393535E+02  0.00000000000E+00 0. -1.
         -5    1    5    5    0  502 -0.59253205236E+02 -0.10766008617E+02  0.27702491040E+02  0.66455754319E+02  0.47000000000E+01 0.  1.
         11    1    6    6    0    0  0.54957114247E+01 -0.46396054246E+02 -0.30262130300E+02  0.55665008973E+02  0.00000000000E+00 0. -1.
        -12    1    6    6    0    0  0.33431857005E+01  0.28547591355E+02 -0.59542274096E+02  0.66116747253E+02  0.00000000000E+00 0.  1.
</event>
<event>
12    1  0.8313893E-002  0.2259372E+03  0.7818608E-02  0.1129544E+00
         21   -1    0    0  503  502  0.00000000000E+00  0.00000000000E+00  0.88685677636E+03  0.88685677636E+03  0.00000000000E+00 0. -1.
         21   -1    0    0  501  503 -0.00000000000E+00 -0.00000000000E+00 -0.98059822436E+02  0.98059822436E+02  0.00000000000E+00 0. -1.
          6    2    1    2  501    0  0.14235653860E+03 -0.34623305748E+02  0.77821281867E+02  0.23890450887E+03  0.17191583715E+03 0.  0.
         24    2    3    3    0    0  0.37690690141E+01 -0.33466256097E+02  0.25012599370E+02  0.90517607705E+02  0.80209793660E+02 0.  0.
         -6    2    1    2    0  502 -0.14235653860E+03  0.34623305748E+02  0.71097567206E+03  0.74601208993E+03  0.17199847287E+03 0.  0.
        -24    2    5    5    0    0 -0.66403828331E+02 -0.47765355880E+02  0.39520826400E+03  0.41091829447E+03  0.77286966258E+02 0.  0.
          5    1    3    3  501    0  0.13858746959E+03 -0.11570496517E+01  0.52808682497E+02  0.14838690117E+03  0.47000000000E+01 0. -1.
        -13    1    4    4    0    0 -0.21365417162E+02 -0.43396775190E+02  0.37052839128E+02  0.60931716165E+02  0.00000000000E+00 0.  1.
         14    1    4    4    0    0  0.25134486176E+02  0.99305190929E+01 -0.12040239758E+02  0.29585891540E+02  0.00000000000E+00 0. -1.
         -5    1    5    5    0  502 -0.75952710273E+02  0.82388661629E+02  0.31576740806E+03  0.33509379546E+03  0.47000000000E+01 0.  1.
         13    1    6    6    0    0  0.88120973968E+01  0.10237285775E+02  0.97340020398E+02  0.98272756406E+02  0.00000000000E+00 0. -1.
        -14    1    6    6    0    0 -0.75215925728E+02 -0.58002641656E+02  0.29786824361E+03  0.31264553806E+03  0.00000000000E+00 0.  1.
</event>
<event>
12    1  0.8313893E-002  0.2322429E+03  0.7818608E-02  0.1125334E+00
         21   -1    0    0  501  502  0.00000000000E+00  0.00000000000E+00  0.94016325925E+02  0.94016325925E+02  0.00000000000E+00 0. -1.
         21   -1    0    0  502  503 -0.00000000000E+00 -0.00000000000E+00 -0.57704638712E+03  0.57704638712E+03  0.00000000000E+00 0.  1.
         -6    2    1    2    0  503 -0.14215830292E+03  0.57776415793E+02 -0.27945065463E+03  0.36335856559E+03  0.17432636491E+03 0.  0.
        -24    2    3    3    0    0 -0.46993802904E+02 -0.34662112328E+02 -0.10670451421E+03  0.14549511621E+03  0.79831672575E+02 0.  0.
          6    2    1    2  501    0  0.14215830292E+03 -0.57776415793E+02 -0.20357940657E+03  0.30770414746E+03  0.17230835811E+03 0.  0.
         24    2    5    5    0    0  0.85483851340E+02  0.32717416339E+02 -0.12867494003E+03  0.17719017801E+03  0.80381595024E+02 0.  0.
          5    1    5    5  501    0  0.56674451576E+02 -0.90493832132E+02 -0.74904466538E+02  0.13051396945E+03  0.47000000000E+01 0. -1.
        -13    1    6    6    0    0  0.50270271902E+01 -0.17318379542E+02 -0.52838433136E+02  0.55830970694E+02  0.00000000000E+00 0.  1.
         14    1    6    6    0    0  0.80456824150E+02  0.50035795881E+02 -0.75836506893E+02  0.12135920731E+03  0.00000000000E+00 0. -1.
         -5    1    3    3    0  503 -0.95164500012E+02  0.92438528121E+02 -0.17274614042E+03  0.21786344938E+03  0.47000000000E+01 0.  1.
         11    1    4    4    0    0  0.21975416761E+02 -0.68469731348E+00 -0.25437161376E+02  0.33621970958E+02  0.00000000000E+00 0. -1.
        -12    1    4    4    0    0 -0.68969219665E+02 -0.33977415015E+02 -0.81267352830E+02  0.11187314525E+03  0.00000000000E+00 0.  1.
</event>
<event>
12    1  0.8313893E-002  0.1765376E+03  0.7818608E-02  0.1171643E+00
         21   -1    0    0  501  502  0.00000000000E+00  0.00000000000E+00  0.45056931392E+02  0.45056931392E+02  0.00000000000E+00 0. -1.
         21   -1    0    0  502  503 -0.00000000000E+00 -0.00000000000E+00 -0.98535976069E+03  0.98535976069E+03  0.00000000000E+00 0. -1.
         -6    2    1    2    0  503 -0.32980206304E+02  0.10369838981E+02 -0.75307640020E+03  0.77308565995E+03  0.17129549180E+03 0.  0.
        -24    2    3    3    0    0  0.23190556255E+02  0.33583183894E+01 -0.65271554321E+03  0.65776563739E+03  0.77903614678E+02 0.  0.
          6    2    1    2  501    0  0.32980206304E+02 -0.10369838981E+02 -0.18722642909E+03  0.25733103213E+03  0.17311931371E+03 0.  0.
         24    2    5    5    0    0 -0.31825532586E+02 -0.44097223340E+02 -0.69465186305E+02  0.11866913920E+03  0.79369533567E+02 0.  0.
          5    1    5    5  501    0  0.64805738890E+02  0.33727384360E+02 -0.11776124279E+03  0.13866189293E+03  0.47000000000E+01 0. -1.
        -13    1    6    6    0    0 -0.49892788219E+02 -0.25067343327E+02 -0.73306115446E+02  0.92149056314E+02  0.00000000000E+00 0.  1.
         14    1    6    6    0    0  0.18067255634E+02 -0.19029880014E+02  0.38409291407E+01  0.26520082883E+02  0.00000000000E+00 0. -1.
         -5    1    3    3    0  503 -0.56170762559E+02  0.70115205914E+01 -0.10036085700E+03  0.11532002257E+03  0.47000000000E+01 0.  1.
         11    1    4    4    0    0 -0.51294319499E+01 -0.32130916204E+02 -0.36993991456E+03  0.37136807514E+03  0.00000000000E+00 0. -1.
        -12    1    4    4    0    0  0.28319988205E+02  0.35489234594E+02 -0.28277562865E+03  0.28639756225E+03  0.00000000000E+00 0.  1.
</event>
<event>
12    1  0.8313893E-002  0.1820036E+03  0.7818608E-02  0.1166100E+00
         21   -1    0    0  501  502  0.00000000000E+00  0.00000000000E+00  0.19128290272E+03  0.19128290272E+03  0.00000000000E+00 0. -1.
         21   -1    0    0  502  503 -0.00000000000E+00 -0.00000000000E+00 -0.38574980936E+03  0.38574980936E+03  0.00000000000E+00 0. -1.
         -6    2    1    2    0  503 -0.55168086825E+02  0.13344868799E+01 -0.31174440270E+03  0.36051641949E+03  0.17245932114E+03 0.  0.
        -24    2    3    3    0    0  0.15389904551E+02  0.35623929844E+02 -0.23391902201E+03  0.24991318298E+03  0.78946669546E+02 0.  0.
          6    2    1    2  501    0  0.55168086825E+02 -0.13344868799E+01  0.11727749606E+03  0.21651629259E+03  0.17343585332E+03 0.  0.
         24    2    5    5    0    0  0.74735991625E+02 -0.56663203680E+02  0.82060301601E+02  0.14791227969E+03  0.79674100482E+02 0.  0.
          5    1    5    5  501    0 -0.19567904799E+02  0.55328716800E+02  0.35217194460E+02  0.68604012904E+02  0.47000000000E+01 0. -1.
        -13    1    6    6    0    0  0.30707712497E+02 -0.65899104706E+02  0.28809433232E+02  0.78202551435E+02  0.00000000000E+00 0.  1.
         14    1    6    6    0    0  0.44028279128E+02  0.92359010263E+01  0.53250868369E+02  0.69709728251E+02  0.00000000000E+00 0. -1.
         -5    1    3    3    0  503 -0.70557991376E+02 -0.34289442964E+02 -0.77825380697E+02  0.11060323651E+03  0.47000000000E+01 0.  1.
         13    1    4    4    0    0  0.19427540042E+02  0.58396415038E+02 -0.13562989870E+03  0.14893971943E+03  0.00000000000E+00 0. -1.
        -14    1    4    4    0    0 -0.40376354913E+01 -0.22772485194E+02 -0.98289123307E+02  0.10097346356E+03  0.00000000000E+00 0.  1.
</event>
<event>
12    1  0.8313893E-002  0.1805990E+03  0.7818608E-02  0.1167799E+00
         21   -1    0    0  501  502  0.00000000000E+00  0.00000000000E+00  0.85676671165E+02  0.85676671165E+02  0.00000000000E+00 0.  1.
         21   -1    0    0  502  503 -0.00000000000E+00 -0.00000000000E+00 -0.12672361349E+04  0.12672361349E+04  0.00000000000E+00 0.  1.
         -6    2    1    2    0  503  0.16969055205E+02  0.41076553937E+02 -0.11570046018E+04  0.11706521903E+04  0.17260263610E+03 0.  0.
        -24    2    3    3    0    0  0.69084736386E+02  0.61067262589E+02 -0.79950287502E+03  0.80878861477E+03  0.80201401809E+02 0.  0.
          6    2    1    2  501    0 -0.16969055205E+02 -0.41076553937E+02 -0.24554861867E+02  0.18226061568E+03  0.17504501898E+03 0.  0.
         24    2    5    5    0    0 -0.55555963883E+02 -0.20293610508E+02 -0.67858470303E+02  0.12046925089E+03  0.80061055876E+02 0.  0.
          5    1    5    5  501    0  0.38586908678E+02 -0.20782943430E+02  0.43303608436E+02  0.61791364789E+02  0.47000000000E+01 0. -1.
        -13    1    6    6    0    0  0.16846875593E+02  0.67634751989E+01 -0.85014235295E+00  0.18173732584E+02  0.00000000000E+00 0.  1.
         14    1    6    6    0    0 -0.72402839476E+02 -0.27057085707E+02 -0.67008327950E+02  0.10229551831E+03  0.00000000000E+00 0. -1.
         -5    1    3    3    0  503 -0.52115681181E+02 -0.19990708652E+02 -0.35750172680E+03  0.36186357557E+03  0.47000000000E+01 0.  1.
         11    1    4    4    0    0  0.30098838098E+02  0.86125256879E+01 -0.54927664591E+03  0.55016811012E+03  0.00000000000E+00 0. -1.
        -12    1    4    4    0    0  0.38985898289E+02  0.52454736901E+02 -0.25022622911E+03  0.25862050464E+03  0.00000000000E+00 0.  1.
</event>
<event>
12    1  0.8313893E-002  0.1851858E+03  0.7818608E-02  0.1162903E+00
         21   -1    0    0  503  502  0.00000000000E+00  0.00000000000E+00  0.11468306127E+03  0.11468306127E+03  0.00000000000E+00 0.  1.
         21   -1    0    0  501  503 -0.00000000000E+00 -0.00000000000E+00 -0.30334768931E+03  0.30334768931E+03  0.00000000000E+00 0.  1.
          6    2    1    2  501    0 -0.39715518481E+02 -0.57759553524E+02 -0.11981277702E+03  0.22056494390E+03  0.17140683916E+03 0.  0.
         24    2    3    3    0    0 -0.12423892254E+02 -0.88179094817E+02 -0.28029644163E+02  0.11998455401E+03  0.75370593650E+02 0.  0.
         -6    2    1    2    0  502  0.39715518481E+02  0.57759553524E+02 -0.68851851027E+02  0.19746580668E+03  0.17128537295E+03 0.  0.
        -24    2    5    5    0    0 -0.29200911909E+02  0.22038059507E+02 -0.82290216793E+02  0.11854699278E+03  0.77093063210E+02 0.  0.
          5    1    3    3  501    0 -0.27291626227E+02  0.30419541293E+02 -0.91783132853E+02  0.10058038989E+03  0.47000000000E+01 0. -1.
        -13    1    4    4    0    0  0.18415546154E+02 -0.25912914872E+02  0.18099669393E+02  0.36581546296E+02  0.00000000000E+00 0.  1.
         14    1    4    4    0    0 -0.30839438407E+02 -0.62266179945E+02 -0.46129313556E+02  0.83403007712E+02  0.00000000000E+00 0. -1.
         -5    1    5    5    0  502  0.68916430389E+02  0.35721494017E+02  0.13438365766E+02  0.78918813897E+02  0.47000000000E+01 0.  1.
         13    1    6    6    0    0 -0.30748962815E+02  0.17277685777E+02  0.82587875492E+00  0.35280295006E+02  0.00000000000E+00 0. -1.
        -14    1    6    6    0    0  0.15480509061E+01  0.47603737298E+01 -0.83116095548E+02  0.83266697777E+02  0.00000000000E+00 0.  1.
</event>
<event>
12    1  0.8313893E-002  0.1712532E+03  0.7818608E-02  0.1176745E+00
         21   -1    0    0  501  502  0.00000000000E+00  0.00000000000E+00  0.20361218925E+03  0.20361218925E+03  0.00000000000E+00 0.  1.
         21   -1    0    0  502  503 -0.00000000000E+00 -0.00000000000E+00 -0.31057516333E+03  0.31057516333E+03  0.00000000000E+00 0.  1.
         -6    2    1    2    0  503  0.22384844822E+02  0.11107040200E+02 -0.24216228426E+03  0.29659777905E+03  0.16942025558E+03 0.  0.
        -24    2    3    3    0    0  0.64124545249E+02  0.49021096995E+02 -0.15668176850E+03  0.19408589257E+03  0.81271962337E+02 0.  0.
          6    2    1    2  501    0 -0.22384844822E+02 -0.11107040200E+02  0.13519931018E+03  0.21758957353E+03  0.16864732853E+03 0.  0.
         24    2    5    5    0    0 -0.71609867332E+01 -0.29723861825E+02  0.16064894616E+03  0.18226074856E+03  0.80474274595E+02 0.  0.
          5    1    5    5  501    0 -0.15223858089E+02  0.18616821626E+02 -0.25449635981E+02  0.35328824975E+02  0.47000000000E+01 0. -1.
        -11    1    6    6    0    0  0.15600755116E+02 -0.27462849702E+02  0.15249952708E+02  0.35073533206E+02  0.00000000000E+00 0.  1.
         12    1    6    6    0    0 -0.22761741849E+02 -0.22610121237E+01  0.14539899345E+03  0.14718721535E+03  0.00000000000E+00 0. -1.
         -5    1    3    3    0  503 -0.41739700427E+02 -0.37914056796E+02 -0.85480515755E+02  0.10251188647E+03  0.47000000000E+01 0.  1.
         11    1    4    4    0    0  0.60667892511E+02 -0.31921075149E+01 -0.68605361224E+02  0.91637755979E+02  0.00000000000E+00 0. -1.
        -12    1    4    4    0    0  0.34566527386E+01  0.52213204510E+02 -0.88076407276E+02  0.10244813660E+03  0.00000000000E+00 0.  1.
</event>
<event>
12    1  0.8313893E-002  0.1986860E+03  0.7818608E-02  0.1151140E+00
         21   -1    0    0  503  502  0.00000000000E+00  0.00000000000E+00  0.60494551943E+02  0.60494551943E+02  0.00000000000E+00 0.  1.
         21   -1    0    0  501  503 -0.00000000000E+00 -0.00000000000E+00 -0.72518893788E+03  0.72518893788E+03  0.00000000000E+00 0.  1.
          6    2    1    2  501    0  0.96855284910E+02  0.20882147318E+02 -0.46140275260E+03  0.50236304900E+03  0.17221824120E+03 0.  0.
         24    2    3    3    0    0  0.76797820069E+02  0.52375616051E+02 -0.44483900897E+03  0.46124628755E+03  0.78900466139E+02 0.  0.
         -6    2    1    2    0  502 -0.96855284910E+02 -0.20882147318E+02 -0.20329163334E+03  0.28332044083E+03  0.17066333441E+03 0.  0.
        -24    2    5    5    0    0 -0.12013797529E+03  0.25620380997E+02 -0.16162979145E+03  0.21651948364E+03  0.75279215482E+02 0.  0.
          5    1    3    3  501    0  0.20057464841E+02 -0.31493468733E+02 -0.16563743625E+02  0.41116761443E+02  0.47000000000E+01 0. -1.
        -11    1    4    4    0    0  0.11936440835E+02 -0.25649549773E+01 -0.22822029402E+03  0.22854662592E+03  0.00000000000E+00 0.  1.
         12    1    4    4    0    0  0.64861379234E+02  0.54940571028E+02 -0.21661871495E+03  0.23269966164E+03  0.00000000000E+00 0. -1.
         -5    1    5    5    0  502  0.23282690378E+02 -0.46502528316E+02 -0.41661841895E+02  0.66800957187E+02  0.47000000000E+01 0.  1.
         11    1    6    6    0    0 -0.55269603574E+02 -0.19469854951E+02 -0.38124345545E+02  0.69909012683E+02  0.00000000000E+00 0. -1.
        -12    1    6    6    0    0 -0.64868371714E+02  0.45090235948E+02 -0.12350544590E+03  0.14661047096E+03  0.00000000000E+00 0.  1.
</event>
<event>
12    1  0.8313893E-002  0.2085033E+03  0.7818608E-02  0.1143224E+00
         21   -1    0    0  503  502  0.00000000000E+00  0.00000000000E+00  0.93288384926E+03  0.93288384926E+03  0.00000000000E+00 0. -1.
         21   -1    0    0  501  503 -0.00000000000E+00 -0.00000000000E+00 -0.49565439713E+02  0.49565439713E+02  0.00000000000E+00 0. -1.
          6    2    1    2  501    0  0.98494753149E+02 -0.53686537710E+02  0.57415161391E+03  0.61083853655E+03  0.17575602762E+03 0.  0.
         24    2    3    3    0    0 -0.21775892022E+01 -0.24582838693E+02  0.39916282441E+03  0.40681620379E+03  0.74561420487E+02 0.  0.
         -6    2    1    2    0  502 -0.98494753149E+02  0.53686537710E+02  0.30916679563E+03  0.37161075242E+03  0.17299417061E+03 0.  0.
        -24    2    5    5    0    0  0.16251373093E+01  0.33298235180E+02  0.69886951509E+02  0.11138660068E+03  0.80071063954E+02 0.  0.
          5    1    3    3  501    0  0.10067234235E+03 -0.29103699017E+02  0.17498878950E+03  0.20402233275E+03  0.47000000000E+01 0. -1.
        -13    1    4    4    0    0 -0.83968860905E+01 -0.50709000219E+02  0.24531216841E+03  0.25063912378E+03  0.00000000000E+00 0.  1.
         14    1    4    4    0    0  0.62192968882E+01  0.26126161526E+02  0.15385065600E+03  0.15617708002E+03  0.00000000000E+00 0. -1.
         -5    1    5    5    0  502 -0.10011989046E+03  0.20388302530E+02  0.23927984412E+03  0.26022415174E+03  0.47000000000E+01 0.  1.
         13    1    6    6    0    0 -0.33395378942E+02  0.38834444212E+02  0.39256518223E+02  0.64532469463E+02  0.00000000000E+00 0. -1.
        -14    1    6    6    0    0  0.35020516252E+02 -0.55362090322E+01  0.30630433286E+02  0.46854131219E+02  0.00000000000E+00 0.  1.
</event>
<event>
12    1  0.8313893E-002  0.2359175E+03  0.7818608E-02  0.1123183E+00
         21   -1    0    0  501  502  0.00000000000E+00  0.00000000000E+00  0.11158642856E+03  0.11158642856E+03  0.00000000000E+00 0. -1.
         21   -1    0    0  502  503 -0.00000000000E+00 -0.00000000000E+00 -0.69511096889E+03  0.69511096889E+03  0.00000000000E+00 0. -1.
         -6    2    1    2    0  503 -0.15597549106E+03  0.28667856637E+02 -0.50872134547E+03  0.55920476476E+03  0.16959469857E+03 0.  0.
        -24    2    3    3    0    0 -0.15950569858E+02  0.13083207490E+02 -0.26296440513E+03  0.27588793933E+03  0.80859666748E+02 0.  0.
          6    2    1    2  501    0  0.15597549106E+03 -0.28667856637E+02 -0.74803194866E+02  0.24749263269E+03  0.17466220386E+03 0.  0.
         24    2    5    5    0    0  0.23620303720E+02  0.12451059628E+02 -0.69215471971E+02  0.10870512051E+03  0.79454855297E+02 0.  0.
          5    1    5    5  501    0  0.13235518734E+03 -0.41118916265E+02 -0.55877228946E+01  0.13878751219E+03  0.47000000000E+01 0. -1.
        -11    1    6    6    0    0  0.48591064434E+01 -0.31582813069E+02 -0.44646887965E+02  0.54903821377E+02  0.00000000000E+00 0.  1.
         12    1    6    6    0    0  0.18761197276E+02  0.44033872697E+02 -0.24568584006E+02  0.53801299129E+02  0.00000000000E+00 0. -1.
         -5    1    3    3    0  503 -0.14002492121E+03  0.15584649146E+02 -0.24575694034E+03  0.28331682543E+03  0.47000000000E+01 0.  1.
         13    1    4    4    0    0 -0.45694189567E+02 -0.86835850861E+01 -0.15269065690E+03  0.15961766918E+03  0.00000000000E+00 0. -1.
        -14    1    4    4    0    0  0.29743619709E+02  0.21766792577E+02 -0.11027374823E+03  0.11627027015E+03  0.00000000000E+00 0.  1.
</event>
<event>
12    1  0.8313893E-002  0.1893853E+03  0.7818608E-02  0.1159466E+00
         21   -1    0    0  501  502  0.00000000000E+00  0.00000000000E+00  0.94820016541E+02  0.94820016541E+02  0.00000000000E+00 0.  1.
         21   -1    0    0  502  503 -0.00000000000E+00 -0.00000000000E+00 -0.37765618188E+03  0.37765618188E+03  0.00000000000E+00 0.  1.
         -6    2    1    2    0  503  0.43527804669E+02 -0.64431048306E+02 -0.16284135639E+03  0.24827641090E+03  0.17052225395E+03 0.  0.
        -24    2    3    3    0    0  0.14635439420E+02  0.76825132970E+01 -0.76070965841E+01  0.74624748211E+02  0.72372425892E+02 0.  0.
          6    2    1    2  501    0 -0.43527804669E+02  0.64431048306E+02 -0.11999480895E+03  0.22419978752E+03  0.17268688654E+03 0.  0.
         24    2    5    5    0    0  0.24516982040E+02  0.11089957790E+02 -0.10818761218E+03  0.13681063012E+03  0.79300186077E+02 0.  0.
          5    1    5    5  501    0 -0.68044786709E+02  0.53341090516E+02 -0.11807196764E+02  0.87389157400E+02  0.47000000000E+01 0. -1.
        -11    1    6    6    0    0 -0.18802996708E+01  0.38545953944E+02 -0.26898181682E+02  0.47040814939E+02  0.00000000000E+00 0.  1.
         12    1    6    6    0    0  0.26397281711E+02 -0.27455996154E+02 -0.81289430500E+02  0.89769815180E+02  0.00000000000E+00 0. -1.
         -5    1    3    3    0  503  0.28892365249E+02 -0.72113561603E+02 -0.15523425981E+03  0.17365166269E+03  0.47000000000E+01 0.  1.
         13    1    4    4    0    0  0.31860179533E+02 -0.81242824992E+01  0.19971986955E+02  0.38470186754E+02  0.00000000000E+00 0. -1.
        -14    1    4    4    0    0 -0.17224740113E+02  0.15806795796E+02 -0.27579083539E+02  0.36154561457E+02  0.00000000000E+00 0.  1.
</event>
<event>
12    1  0.8313893E-002  0.1971306E+03  0.7818608E-02  0.1152246E+00
         21   -1    0    0  503  502  0.00000000000E+00  0.00000000000E+00  0.73055439868E+03  0.73055439868E+03  0.00000000000E+00 0. -1.
         21   -1    0    0  501  503 -0.00000000000E+00 -0.00000000000E+00 -0.55693985299E+02  0.55693985299E+02  0.00000000000E+00 0. -1.
          6    2    1    2  501    0  0.78488500537E+02 -0.57191619416E+02  0.42228168357E+03  0.46602821090E+03  0.17154925541E+03 0.  0.
         24    2    3    3    0    0  0.67888575078E+02 -0.41086335891E+01  0.38595621727E+03  0.40066926885E+03  0.83354195196E+02 0.  0.
         -6    2    1    2    0  502 -0.78488500537E+02  0.57191619416E+02  0.25257872981E+03  0.32022017308E+03  0.17121220296E+03 0.  0.
        -24    2    5    5    0    0 -0.10956358050E+03  0.80537013692E+02  0.19460529446E+03  0.25026535026E+03  0.79190505505E+02 0.  0.
          5    1    3    3  501    0  0.10599925460E+02 -0.53082985827E+02  0.36325466296E+02  0.65358942048E+02  0.47000000000E+01 0. -1.
        -11    1    4    4    0    0  0.65952106444E+01  0.26527636285E+02  0.43136178997E+02  0.51068015712E+02  0.00000000000E+00 0.  1.
         12    1    4    4    0    0  0.61293364433E+02 -0.30636269874E+02  0.34282003827E+03  0.34960125314E+03  0.00000000000E+00 0. -1.
         -5    1    5    5    0  502  0.31075079965E+02 -0.23345394276E+02  0.57973435354E+02  0.69954822818E+02  0.47000000000E+01 0.  1.
         11    1    6    6    0    0 -0.54973686470E+02  0.64432284821E+02  0.59060632049E+02  0.10325591406E+03  0.00000000000E+00 0. -1.
        -12    1    6    6    0    0 -0.54589894033E+02  0.16104728871E+02  0.13554466241E+03  0.14700943619E+03  0.00000000000E+00 0.  1.
</event>
<event>
12    1  0.8313893E-002  0.1829449E+03  0.7818608E-02  0.1165046E+00
         21   -1    0    0  503  502  0.00000000000E+00  0.00000000000E+00  0.64290527962E+03  0.64290527962E+03  0.00000000000E+00 0. -1.
         21   -1    0    0  501  503 -0.00000000000E+00 -0.00000000000E+00 -0.71053831425E+02  0.71053831425E+02  0.00000000000E+00 0. -1.
          6    2    1    2  501    0 -0.13022963584E+02  0.59907277815E+02  0.10083376062E+03  0.20866067580E+03  0.17208530102E+03 0.  0.
         24    2    3    3    0    0 -0.41214909479E+02  0.97109390164E+02  0.93057422617E+02  0.16110708067E+03  0.78529644832E+02 0.  0.
         -6    2    1    2    0  502  0.13022963584E+02 -0.59907277815E+02  0.47101768758E+03  0.50529843525E+03  0.17236695490E+03 0.  0.
        -24    2    5    5    0    0  0.33040291650E+02 -0.12199012247E+02  0.42503010192E+03  0.43591745759E+03  0.90182955834E+02 0.  0.
          5    1    3    3  501    0  0.28191945896E+02 -0.37202112348E+02  0.77763380063E+01  0.47553595126E+02  0.47000000000E+01 0. -1.
        -13    1    4    4    0    0 -0.17406477606E+02  0.10744485964E+02  0.63589430033E+02  0.66798540802E+02  0.00000000000E+00 0.  1.
         14    1    4    4    0    0 -0.23808431874E+02  0.86364904200E+02  0.29467992584E+02  0.94308539871E+02  0.00000000000E+00 0. -1.
         -5    1    5    5    0  502 -0.20017328066E+02 -0.47708265569E+02  0.45987585656E+02  0.69380977659E+02  0.47000000000E+01 0.  1.
         13    1    6    6    0    0 -0.24109970379E+01  0.35807148890E+02  0.19482578052E+03  0.19810363342E+03  0.00000000000E+00 0. -1.
        -14    1    6    6    0    0  0.35451288687E+02 -0.48006161137E+02  0.23020432140E+03  0.23781382417E+03  0.00000000000E+00 0.  1.
</event>
<event>
12    1  0.8313893E-002  0.2124399E+03  0.7818608E-02  0.1139852E+00
         21   -1    0    0  501  502  0.00000000000E+00  0.00000000000E+00  0.26507676295E+03  0.26507676295E+03  0.00000000000E+00 0.  1.
         21   -1    0    0  502  503 -0.00000000000E+00 -0.00000000000E+00 -0.19788628888E+03  0.19788628888E+03  0.00000000000E+00 0. -1.
         -6    2    1    2    0  503 -0.95412427725E+02 -0.75390688919E+02 -0.54126307670E+02  0.21922677863E+03  0.17419367367E+03 0.  0.
        -24    2    3    3    0    0 -0.70440293983E+02 -0.42213726516E+02  0.32653891255E+02  0.12290849779E+03  0.85418900088E+02 0.  0.
          6    2    1    2  501    0  0.95412427725E+02  0.75390688919E+02  0.12131678175E+03  0.24373627320E+03  0.17292287877E+03 0.  0.
         24    2    5    5    0    0  0.82228963709E+02  0.45844979844E+02  0.56003479792E+01  0.12349012694E+03  0.79718773847E+02 0.  0.
          5    1    5    5  501    0  0.13183464016E+02  0.29545709075E+02  0.11571643377E+03  0.12024614627E+03  0.47000000000E+01 0. -1.
        -13    1    6    6    0    0 -0.37615288563E+01  0.17495346917E+02  0.25143827438E+02  0.30861761475E+02  0.00000000000E+00 0.  1.
         14    1    6    6    0    0  0.85990492565E+02  0.28349632927E+02 -0.19543479459E+02  0.92628365461E+02  0.00000000000E+00 0. -1.
         -5    1    3    3    0  503 -0.24972133742E+02 -0.33176962403E+02 -0.86780198925E+02  0.96318280837E+02  0.47000000000E+01 0.  1.
         11    1    4    4    0    0 -0.34099282384E+02 -0.32523976603E+02 -0.25554827981E+02  0.53606150265E+02  0.00000000000E+00 0. -1.
        -12    1    4    4    0    0 -0.36341011600E+02 -0.96897499129E+01  0.58208719236E+02  0.69302347525E+02  0.00000000000E+00 0.  1.
</event>
<event>
12    1  0.8313893E-002  0.1867507E+03  0.7818608E-02  0.1161569E+00
         21   -1    0    0  503  502  0.00000000000E+00  0.00000000000E+00  0.22175017507E+03  0.22175017507E+03  0.00000000000E+00 0. -1.
         21   -1    0    0  501  503 -0.00000000000E+00 -0.00000000000E+00 -0.16475857179E+03  0.16475857179E+03  0.00000000000E+00 0. -1.
          6    2    1    2  501    0 -0.40883264748E+02 -0.59262973359E+02  0.71051515556E+02  0.19922955560E+03  0.17164077782E+03 0.  0.
         24    2    3    3    0    0 -0.33834238295E+02  0.33245184252E+02  0.28805073044E+02  0.97179078363E+02  0.79774952720E+02 0.  0.
         -6    2    1    2    0  502  0.40883264748E+02  0.59262973359E+02 -0.14059912274E+02  0.18727919127E+03  0.17231445964E+03 0.  0.
        -24    2    5    5    0    0  0.71742696671E+02  0.83830863556E+02  0.16710603079E+02  0.13703179947E+03  0.79522585471E+02 0.  0.
          5    1    3    3  501    0 -0.70490264526E+01 -0.92508157611E+02  0.42246442512E+02  0.10205047723E+03  0.47000000000E+01 0. -1.
        -13    1    4    4    0    0 -0.12146005572E+02  0.48503198440E+02  0.44010826018E+02  0.66611099053E+02  0.00000000000E+00 0.  1.
         14    1    4    4    0    0 -0.21688232723E+02 -0.15258014188E+02 -0.15205752974E+02  0.30567979310E+02  0.00000000000E+00 0. -1.
         -5    1    5    5    0  502 -0.30859431923E+02 -0.24567890197E+02 -0.30770515353E+02  0.50247391798E+02  0.47000000000E+01 0.  1.
         11    1    6    6    0    0  0.39732418905E+02  0.73317591190E+02 -0.21469881950E+02  0.86110917548E+02  0.00000000000E+00 0. -1.
        -12    1    6    6    0    0  0.32010277766E+02  0.10513272366E+02  0.38180485029E+02  0.50920881920E+02  0.00000000000E+00 0.  1.
</event>
<event>
12    1  0.8313893E-002  0.2616947E+03  0.7818608E-02  0.1106596E+00
         21   -1    0    0  503  502  0.00000000000E+00  0.00000000000E+00  0.33705624458E+03  0.33705624458E+03  0.00000000000E+00 0.  1.
         21   -1    0    0  501  503 -0.00000000000E+00 -0.00000000000E+00 -0.20880066501E+03  0.20880066501E+03  0.00000000000E+00 0.  1.
          6    2    1    2  501    0  0.19206781403E+03 -0.47011466713E+02  0.11726865759E+03  0.28393170144E+03  0.16662877855E+03 0.  0.
         24    2    3    3    0    0  0.19414628644E+03 -0.27367191672E+02  0.14037611360E+03  0.25317032773E+03  0.77123393713E+02 0.  0.
         -6    2    1    2    0  502 -0.19206781403E+03  0.47011466713E+02  0.10986921968E+02  0.26192520815E+03  0.17141755750E+03 0.  0.
        -24    2    5    5    0    0 -0.51729306673E+02  0.74461176963E+02  0.97738615328E+00  0.11850044025E+03  0.76295550402E+02 0.  0.
          5    1    3    3  501    0 -0.20784724062E+01 -0.19644275041E+02 -0.23107456005E+02  0.30761373709E+02  0.47000000000E+01 0. -1.
        -13    1    4    4    0    0  0.25034327883E+02  0.22286561892E+02  0.31541211483E+02  0.46024519936E+02  0.00000000000E+00 0.  1.
         14    1    4    4    0    0  0.16911195856E+03 -0.49653753565E+02  0.10883490212E+03  0.20714580780E+03  0.00000000000E+00 0. -1.
         -5    1    5    5    0  502 -0.14033850736E+03 -0.27449710250E+02  0.10009535814E+02  0.14342476790E+03  0.47000000000E+01 0.  1.
         13    1    6    6    0    0  0.14385084716E+02  0.42191258735E+02 -0.40480334233E+01  0.44759574959E+02  0.00000000000E+00 0. -1.
        -14    1    6    6    0    0 -0.66114391390E+02  0.32269918228E+02  0.50254195766E+01  0.73740865286E+02  0.00000000000E+00 0.  1.
</event>
<event>
12    1  0.8313893E-002  0.2159012E+03  0.7818608E-02  0.1137346E+00
         21   -1    0    0  501  502  0.00000000000E+00  0.00000000000E+00  0.82343325966E+03  0.82343325966E+03  0.00000000000E+00 0.  1.
         21   -1    0    0  502  503 -0.00000000000E+00 -0.00000000000E+00 -0.59237034205E+02  0.59237034205E+02  0.00000000000E+00 0. -1.
         -6    2    1    2    0  503 -0.12699929125E+03 -0.27932241571E+02  0.28222445874E+03  0.35533641004E+03  0.17234932286E+03 0.  0.
        -24    2    3    3    0    0 -0.14841215879E+03  0.93919775746E+01  0.19699067202E+03  0.25974092568E+03  0.80905163556E+02 0.  0.
          6    2    1    2  501    0  0.12699929125E+03  0.27932241571E+02  0.48197176672E+03  0.52733388383E+03  0.16992707560E+03 0.  0.
         24    2    5    5    0    0  0.13508740373E+01 -0.17017041835E+02  0.18706449125E+03  0.20360505603E+03  0.78552468953E+02 0.  0.
          5    1    5    5  501    0  0.12564841722E+03  0.44949283406E+02  0.29490727546E+03  0.32372882780E+03  0.47000000000E+01 0. -1.
        -11    1    6    6    0    0  0.37872954500E+01 -0.17007759011E+02  0.19475752498E+03  0.19553542137E+03  0.00000000000E+00 0.  1.
         12    1    6    6    0    0 -0.24364214126E+01 -0.92828243024E-02 -0.76930337312E+01  0.80696346547E+01  0.00000000000E+00 0. -1.
         -5    1    3    3    0  503  0.21412867538E+02 -0.37324219146E+02  0.85233786719E+02  0.95595484357E+02  0.47000000000E+01 0.  1.
         11    1    4    4    0    0 -0.28407060647E+02  0.35513327083E+02  0.66307684819E+02  0.80404393917E+02  0.00000000000E+00 0. -1.
        -12    1    4    4    0    0 -0.12000509814E+03 -0.26121349509E+02  0.13068298720E+03  0.17933653176E+03  0.00000000000E+00 0.  1.
</event>
<event>
12    1  0.8313893E-002  0.2104767E+03  0.7818608E-02  0.1141237E+00
         21   -1    0    0  501  502  0.00000000000E+00  0.00000000000E+00  0.11809519389E+03  0.11809519389E+03  0.00000000000E+00 0. -1.
         21   -1    0    0  502  503 -0.00000000000E+00 -0.00000000000E+00 -0.37497689224E+03  0.37497689224E+03  0.00000000000E+00 0.  1.
         -6    2    1    2    0  503 -0.11884360807E+03 -0.25990244486E+02 -0.13530967551E+03  0.25021822403E+03  0.17175900373E+03 0.  0.
        -24    2    3    3    0    0 -0.13612672040E+03  0.11907605782E+02 -0.74309847166E+02  0.17620456256E+03  0.82787797391E+02 0.  0.
          6    2    1    2  501    0  0.11884360807E+03  0.25990244486E+02 -0.12157202284E+03  0.24285386210E+03  0.17146120730E+03 0.  0.
         24    2    5    5    0    0  0.12470286237E+03  0.67017041432E+02 -0.11745812340E+03  0.20094272876E+03  0.80867062291E+02 0.  0.
          5    1    5    5  501    0 -0.58592543042E+01 -0.41026796946E+02 -0.41138994378E+01  0.41911133332E+02  0.47000000000E+01 0. -1.
        -13    1    6    6    0    0  0.91448163326E+02  0.38378100236E+02 -0.30870884047E+02  0.10386845833E+03  0.00000000000E+00 0.  1.
         14    1    6    6    0    0  0.33254699045E+02  0.28638941195E+02 -0.86587239356E+02  0.97074270436E+02  0.00000000000E+00 0. -1.
         -5    1    3    3    0  503  0.17283112334E+02 -0.37897850268E+02 -0.60999828341E+02  0.74013661472E+02  0.47000000000E+01 0.  1.
         11    1    4    4    0    0 -0.63511075082E+02 -0.35513744844E+02 -0.39056247204E+02  0.82584945217E+02  0.00000000000E+00 0. -1.
        -12    1    4    4    0    0 -0.72615645319E+02  0.47421350625E+02 -0.35253599962E+02  0.93619617338E+02  0.00000000000E+00 0.  1.
</event>
<event>
12    1  0.8313893E-002  0.2413438E+03  0.7818608E-02  0.1119263E+00
         21   -1    0    0  501  502  0.00000000000E+00  0.00000000000E+00  0.55246178695E+02  0.55246178695E+02  0.00000000000E+00 0.  1.
         21   -1    0    0  502  503 -0.00000000000E+00 -0.00000000000E+00 -0.12700527435E+04  0.12700527435E+04  0.00000000000E+00 0.  1.
         -6    2    1    2    0  503  0.15666910709E+03  0.55544347588E+02 -0.88418848567E+03  0.91596393640E+03  0.17196008526E+03 0.  0.
        -24    2    3    3    0    0  0.13155915632E+02  0.47142679861E+02 -0.31149738755E+03  0.32548632632E+03  0.80716886627E+02 0.  0.
          6    2    1    2  501    0 -0.15666910709E+03 -0.55544347588E+02 -0.33061807918E+03  0.40933498584E+03  0.17497552025E+03 0.  0.
         24    2    5    5    0    0 -0.62501501762E+02  0.16372595012E+02 -0.75122509302E+02  0.12766201811E+03  0.80496582989E+02 0.  0.
          5    1    5    5  501    0 -0.94167605329E+02 -0.71916942600E+02 -0.25549556988E+03  0.28167296774E+03  0.47000000000E+01 0. -1.
        -11    1    6    6    0    0  0.80623536139E+01  0.14725724592E+02  0.80148221201E+01  0.18603383675E+02  0.00000000000E+00 0.  1.
         12    1    6    6    0    0 -0.70563855376E+02  0.16468704202E+01 -0.83137331422E+02  0.10905863443E+03  0.00000000000E+00 0. -1.
         -5    1    3    3    0  503  0.14351319146E+03  0.84016677267E+01 -0.57269109811E+03  0.59047761008E+03  0.47000000000E+01 0.  1.
         13    1    4    4    0    0 -0.65801138928E+01  0.30827921547E+02 -0.32355017234E+02  0.45171957960E+02  0.00000000000E+00 0. -1.
        -14    1    4    4    0    0  0.19736029525E+02  0.16314758315E+02 -0.27914237032E+03  0.28031436836E+03  0.00000000000E+00 0.  1.
</event>
<event>
12    1  0.8313893E-002  0.1844021E+03  0.7818608E-02  0.1163661E+00
         21   -1    0    0  501  502  0.00000000000E+00  0.00000000000E+00  0.17365253014E+04  0.17365253014E+04  0.00000000000E+00 0.  1.
         21   -1    0    0  502  503 -0.00000000000E+00 -0.00000000000E+00 -0.32428047200E+02  0.32428047200E+02  0.00000000000E+00 0.  1.
         -6    2    1    2    0  503  0.31072426654E+02  0.59534651435E+02  0.29515702018E+03  0.34802555516E+03  0.17173890085E+03 0.  0.
        -24    2    3    3    0    0  0.40801088533E+02 -0.26903634185E+02  0.18700780897E+03  0.20915667468E+03  0.79912824927E+02 0.  0.
          6    2    1    2  501    0 -0.31072426654E+02 -0.59534651435E+02  0.14089402340E+04  0.14209277935E+04  0.17150317985E+03 0.  0.
         24    2    5    5    0    0 -0.60534559844E+02 -0.28777484005E+02  0.12962888590E+04  0.13004020993E+04  0.78665351473E+02 0.  0.
          5    1    5    5  501    0  0.29462133190E+02 -0.30757167430E+02  0.11265137508E+03  0.12052569414E+03  0.47000000000E+01 0. -1.
        -13    1    6    6    0    0  0.19263893775E+02 -0.61103499914E+01  0.22460851889E+03  0.22551589908E+03  0.00000000000E+00 0.  1.
         14    1    6    6    0    0 -0.79798453619E+02 -0.22667134014E+02  0.10716803401E+04  0.10748862002E+04  0.00000000000E+00 0. -1.
         -5    1    3    3    0  503 -0.97286618788E+01  0.86438285620E+02  0.10814921121E+03  0.13886888049E+03  0.47000000000E+01 0.  1.
         11    1    4    4    0    0  0.10988562438E+02  0.19633550425E+02  0.12096480312E+03  0.12303945871E+03  0.00000000000E+00 0. -1.
        -12    1    4    4    0    0  0.29812526095E+02 -0.46537184609E+02  0.66043005857E+02  0.86117215968E+02  0.00000000000E+00 0.  1.
</event>
<event>
12    1  0.8313893E-002  0.1747947E+03  0.7818608E-02  0.1173518E+00
         21   -1    0    0  503  502  0.00000000000E+00  0.00000000000E+00  0.28187334162E+03  0.28187334162E+03  0.00000000000E+00 0. -1.
         21   -1    0    0  501  503 -0.00000000000E+00 -0.00000000000E+00 -0.13763510603E+03  0.13763510603E+03  0.00000000000E+00 0. -1.
          6    2    1    2  501    0 -0.61371457181E+00 -0.28119800040E+02 -0.26505575978E+02  0.17679287177E+03  0.17251688077E+03 0.  0.
         24    2    3    3    0    0 -0.30367926141E+02 -0.31966903652E+01 -0.75849768391E+02  0.11383722209E+03  0.79204141312E+02 0.  0.
         -6    2    1    2    0  502  0.61371457181E+00  0.28119800040E+02  0.17074381157E+03  0.24271557588E+03  0.17019489353E+03 0.  0.
        -24    2    5    5    0    0 -0.50165977762E+02  0.60109833932E+02  0.11411298936E+03  0.16006523137E+03  0.80431874866E+02 0.  0.
          5    1    3    3  501    0  0.29754211569E+02 -0.24923109675E+02  0.49344192413E+02  0.62955649682E+02  0.47000000000E+01 0. -1.
        -11    1    4    4    0    0 -0.26861571412E+02  0.30374420505E+02 -0.13146284610E+02  0.42625980796E+02  0.00000000000E+00 0.  1.
         12    1    4    4    0    0 -0.35063547293E+01 -0.33571110870E+02 -0.62703483781E+02  0.71211241295E+02  0.00000000000E+00 0. -1.
         -5    1    5    5    0  502  0.50779692334E+02 -0.31990033892E+02  0.56630822212E+02  0.82650344502E+02  0.47000000000E+01 0.  1.
         11    1    6    6    0    0  0.40100648206E+01  0.12264847570E+01  0.67162424038E+02  0.67293209817E+02  0.00000000000E+00 0. -1.
        -12    1    6    6    0    0 -0.54176042583E+02  0.58883349175E+02  0.46950565318E+02  0.92772021557E+02  0.00000000000E+00 0.  1.
</event>
<event>
12    1  0.8313893E-002  0.2694733E+03  0.7818608E-02  0.1102755E+00
         21   -1    0    0  501  502  0.00000000000E+00  0.00000000000E+00  0.35393024592E+03  0.35393024592E+03  0.00000000000E+00 0. -1.
         21   -1    0    0  502  503 -0.00000000000E+00 -0.00000000000E+00 -0.44298900017E+03  0.44298900017E+03  0.00000000000E+00 0. -1.
         -6    2    1    2    0  503 -0.47959392835E+02  0.19150814600E+03 -0.33987169302E+03  0.42878475785E+03  0.17137131472E+03 0.  0.
        -24    2    3    3    0    0  0.36902854131E+02  0.11723328683E+03 -0.16591383872E+03  0.22141605063E+03  0.79951243974E+02 0.  0.
          6    2    1    2  501    0  0.47959392835E+02 -0.19150814600E+03  0.25081293877E+03  0.36813448824E+03  0.18341318882E+03 0.  0.
         24    2    5    5    0    0  0.50510404729E+02 -0.93146713807E+02  0.23316433116E+03  0.26805930473E+03  0.79136428051E+02 0.  0.
          5    1    5    5  501    0 -0.25510118938E+01 -0.98361432192E+02  0.17648607605E+02  0.10007518351E+03  0.47000000000E+01 0. -1.
        -11    1    6    6    0    0  0.46366941222E+02 -0.80815316525E+01  0.80855561561E+02  0.93556540271E+02  0.00000000000E+00 0.  1.
         12    1    6    6    0    0  0.41434635065E+01 -0.85065182154E+02  0.15230876960E+03  0.17450276446E+03  0.00000000000E+00 0. -1.
         -5    1    3    3    0  503 -0.84862246966E+02  0.74274859165E+02 -0.17395785430E+03  0.20736870723E+03  0.47000000000E+01 0.  1.
         11    1    4    4    0    0  0.27769881220E+01  0.72254452348E+02 -0.38197899373E+02  0.81777118216E+02  0.00000000000E+00 0. -1.
        -12    1    4    4    0    0  0.34125866009E+02  0.44978834485E+02 -0.12771593935E+03  0.13963893241E+03  0.00000000000E+00 0.  1.
</event>
<event>
12    1  0.8313893E-002  0.1821810E+03  0.7818608E-02  0.1167228E+00
         21   -1    0    0  501  502  0.00000000000E+00  0.00000000000E+00  0.10098058012E+03  0.10098058012E+03  0.00000000000E+00 0.  1.
         21   -1    0    0  502  503 -0.00000000000E+00 -0.00000000000E+00 -0.33323106599E+03  0.33323106599E+03  0.00000000000E+00 0. -1.
         -6    2    1    2    0  503  0.30942014587E+02 -0.54398118863E+02 -0.16138358867E+03  0.23873269929E+03  0.16441434066E+03 0.  0.
        -24    2    3    3    0    0  0.66825611477E+02 -0.68522265642E+01 -0.79290900242E+02  0.13719677513E+03  0.89572835658E+02 0.  0.
          6    2    1    2  501    0 -0.30942014587E+02  0.54398118863E+02 -0.70866897202E+02  0.19547894682E+03  0.17109452922E+03 0.  0.
         24    2    5    5    0    0 -0.59728584108E+02 -0.10920839936E+02 -0.75022573841E+02  0.12382287512E+03  0.77568997108E+02 0.  0.
          5    1    5    5  501    0  0.28786569521E+02  0.65318958799E+02  0.41556766391E+01  0.71656071702E+02  0.47000000000E+01 0. -1.
        -13    1    6    6    0    0  0.56511528119E+01 -0.22280675726E+02  0.87930257456E+00  0.23002982675E+02  0.00000000000E+00 0.  1.
         14    1    6    6    0    0 -0.65379736920E+02  0.11359835790E+02 -0.75901876416E+02  0.10081989244E+03  0.00000000000E+00 0. -1.
         -5    1    3    3    0  503 -0.35883596889E+02 -0.47545892298E+02 -0.82092688432E+02  0.10153592416E+03  0.47000000000E+01 0.  1.
         11    1    4    4    0    0 -0.16305570818E+02 -0.12499428688E+02 -0.40230206534E+02  0.45172744824E+02  0.00000000000E+00 0. -1.
        -12    1    4    4    0    0  0.83131182294E+02  0.56472021239E+01 -0.39060693708E+02  0.92024030310E+02  0.00000000000E+00 0.  1.
</event>
<event>
12    1  0.8313893E-002  0.2001396E+03  0.7818608E-02  0.1149715E+00
         21   -1    0    0  501  502  0.00000000000E+00  0.00000000000E+00  0.82072755491E+02  0.82072755491E+02  0.00000000000E+00 0.  1.
         21   -1    0    0  502  503 -0.00000000000E+00 -0.00000000000E+00 -0.95693983540E+03  0.95693983540E+03  0.00000000000E+00 0. -1.
         -6    2    1    2    0  503 -0.66449093057E+02 -0.79091377579E+02 -0.80125511673E+03  0.82576490720E+03  0.17090053216E+03 0.  0.
        -24    2    3    3    0    0  0.23652181553E+02 -0.46558453499E+02 -0.27413566338E+03  0.28999103798E+03  0.78850015128E+02 0.  0.
          6    2    1    2  501    0  0.66449093057E+02  0.79091377579E+02 -0.73611963178E+02  0.21324768370E+03  0.17142031824E+03 0.  0.
         24    2    5    5    0    0  0.10160492315E+03  0.91642570454E+02 -0.52821422366E+02  0.17026162294E+03  0.86469627382E+02 0.  0.
          5    1    5    5  501    0 -0.35155830089E+02 -0.12551192875E+02 -0.20790540812E+02  0.42986060754E+02  0.47000000000E+01 0. -1.
        -13    1    6    6    0    0  0.65788791571E+02  0.41999612401E+01 -0.32960892441E+02  0.73703630855E+02  0.00000000000E+00 0.  1.
         14    1    6    6    0    0  0.35816131576E+02  0.87442609214E+02 -0.19860529926E+02  0.96557992089E+02  0.00000000000E+00 0. -1.
         -5    1    3    3    0  503 -0.90101274610E+02 -0.32532924080E+02 -0.52711945335E+03  0.53577386922E+03  0.47000000000E+01 0.  1.
         13    1    4    4    0    0  0.26583936179E+02  0.55764670418E+01 -0.18259628318E+03  0.18460553968E+03  0.00000000000E+00 0. -1.
        -14    1    4    4    0    0 -0.29317546262E+01 -0.52134920541E+02 -0.91539380202E+02  0.10538549830E+03  0.00000000000E+00 0.  1.
</event>
<event>
12    1  0.8313893E-002  0.2328632E+03  0.7818608E-02  0.1124764E+00
         21   -1    0    0  503  502  0.00000000000E+00  0.00000000000E+00  0.43921661075E+03  0.43921661075E+03  0.00000000000E+00 0. -1.
         21   -1    0    0  501  503 -0.00000000000E+00 -0.00000000000E+00 -0.21714938416E+03  0.21714938416E+03  0.00000000000E+00 0.  1.
          6    2    1    2  501    0 -0.13897914206E+03 -0.73325222697E+02 -0.10487169629E+03  0.25538858151E+03  0.17185303219E+03 0.  0.
         24    2    3    3    0    0 -0.23969044393E+02 -0.57313365497E+02 -0.37136540449E+00  0.99100030133E+02  0.77209721579E+02 0.  0.
         -6    2    1    2    0  502  0.13897914206E+03  0.73325222697E+02  0.32693892287E+03  0.40097741340E+03  0.17088603383E+03 0.  0.
        -24    2    5    5    0    0  0.14114797642E+03  0.71964282128E+02  0.34176794843E+03  0.38521207165E+03  0.80507145155E+02 0.  0.
          5    1    3    3  501    0 -0.11501009766E+03 -0.16011857200E+02 -0.10450033089E+03  0.15628855138E+03  0.47000000000E+01 0. -1.
        -13    1    4    4    0    0 -0.30688220141E+02 -0.16408579049E+02 -0.31752304025E+02  0.47108567509E+02  0.00000000000E+00 0.  1.
         14    1    4    4    0    0  0.67191757476E+01 -0.40904786447E+02  0.31380938621E+02  0.51991462624E+02  0.00000000000E+00 0. -1.
         -5    1    5    5    0  502 -0.21688343667E+01  0.13609405684E+01 -0.14829025553E+02  0.15765341753E+02  0.47000000000E+01 0.  1.
         13    1    6    6    0    0  0.48582466811E+02  0.54698197921E+02  0.21632277797E+03  0.22835869417E+03  0.00000000000E+00 0. -1.
        -14    1    6    6    0    0  0.92565509612E+02  0.17266084207E+02  0.12544517046E+03  0.15685337748E+03  0.00000000000E+00 0.  1.
</event>
<event>
12    1  0.8313893E-002  0.2612026E+03  0.7818608E-02  0.1106708E+00
         21   -1    0    0  501  502  0.00000000000E+00  0.00000000000E+00  0.22955709905E+03  0.22955709905E+03  0.00000000000E+00 0. -1.
         21   -1    0    0  502  503 -0.00000000000E+00 -0.00000000000E+00 -0.34417785871E+03  0.34417785871E+03  0.00000000000E+00 0.  1.
         -6    2    1    2    0  503 -0.16391865459E+03 -0.10302207619E+03  0.50893933766E+02  0.26611465267E+03  0.17533950600E+03 0.  0.
        -24    2    3    3    0    0 -0.48227771680E+02 -0.89574121054E+01  0.65238213572E+02  0.11624674489E+03  0.82771540971E+02 0.  0.
          6    2    1    2  501    0  0.16391865459E+03  0.10302207619E+03 -0.16551469342E+03  0.30762030509E+03  0.17248844848E+03 0.  0.
         24    2    5    5    0    0  0.11656701849E+03  0.41748412373E+02 -0.24255031802E+02  0.14645882917E+03  0.74371246722E+02 0.  0.
          5    1    5    5  501    0  0.47351636103E+02  0.61273663817E+02 -0.14125966162E+03  0.16116147592E+03  0.47000000000E+01 0. -1.
        -11    1    6    6    0    0  0.56763685942E+02  0.58910956222E+02 -0.19235368490E+02  0.84039372949E+02  0.00000000000E+00 0.  1.
         12    1    6    6    0    0  0.59803332548E+02 -0.17162543849E+02 -0.50196633120E+01  0.62419456222E+02  0.00000000000E+00 0. -1.
         -5    1    3    3    0  503 -0.11569088291E+03 -0.94064664084E+02 -0.14344279806E+02  0.14986790778E+03  0.47000000000E+01 0.  1.
         11    1    4    4    0    0 -0.41022262159E+01 -0.63612068692E+01  0.71238493587E+02  0.71639487584E+02  0.00000000000E+00 0. -1.
        -12    1    4    4    0    0 -0.44125545464E+02 -0.25962052362E+01 -0.60002800148E+01  0.44607257306E+02  0.00000000000E+00 0.  1.
</event>
<event>
12    1  0.8313893E-002  0.2168051E+03  0.7818608E-02  0.1136393E+00
         21   -1    0    0  503  502  0.00000000000E+00  0.00000000000E+00  0.13016361387E+04  0.13016361387E+04  0.00000000000E+00 0.  1.
         21   -1    0    0  501  503 -0.00000000000E+00 -0.00000000000E+00 -0.76492780862E+02  0.76492780862E+02  0.00000000000E+00 0.  1.
          6    2    1    2  501    0  0.82718162788E+02 -0.10339713983E+03  0.11171523317E+03  0.24389497066E+03  0.17167178105E+03 0.  0.
         24    2    3    3    0    0  0.10474674115E+02 -0.10914275616E+03  0.38362816750E+02  0.14067287633E+03  0.79342878744E+02 0.  0.
         -6    2    1    2    0  502 -0.82718162788E+02  0.10339713983E+03  0.11134281247E+04  0.11342339489E+04  0.17097133989E+03 0.  0.
        -24    2    5    5    0    0 -0.10954167767E+03  0.81998199998E+02  0.10485863719E+04  0.10607223275E+04  0.82917988514E+02 0.  0.
          5    1    3    3  501    0  0.72243488672E+02  0.57456163231E+01  0.73352416422E+02  0.10322209433E+03  0.47000000000E+01 0. -1.
        -11    1    4    4    0    0  0.64529943083E+01 -0.21315965151E+02  0.47319872849E+02  0.52298966264E+02  0.00000000000E+00 0.  1.
         12    1    4    4    0    0  0.40216798069E+01 -0.87826791006E+02 -0.89570560985E+01  0.88373910069E+02  0.00000000000E+00 0. -1.
         -5    1    5    5    0  502  0.26823514884E+02  0.21398939836E+02  0.64841752810E+02  0.73511621424E+02  0.47000000000E+01 0.  1.
         11    1    6    6    0    0  0.11027443957E+02  0.16131211339E+02  0.21542297092E+03  0.21630736672E+03  0.00000000000E+00 0. -1.
        -12    1    6    6    0    0 -0.12056912163E+03  0.65866988659E+02  0.83316340096E+03  0.84441496078E+03  0.00000000000E+00 0.  1.
</event>
<event>
12    1  0.8313893E-002  0.1762353E+03  0.7818608E-02  0.1172015E+00
         21   -1    0    0  503  502  0.00000000000E+00  0.00000000000E+00  0.37835314761E+03  0.37835314761E+03  0.00000000000E+00 0. -1.
         21   -1    0    0  501  503 -0.00000000000E+00 -0.00000000000E+00 -0.18916305767E+03  0.18916305767E+03  0.00000000000E+00 0. -1.
          6    2    1    2  501    0 -0.26213799297E+02  0.12532595208E+02 -0.11960586019E+03  0.21298932495E+03  0.17382365068E+03 0.  0.
         24    2    3    3    0    0 -0.53773211015E+02  0.60938757907E+02 -0.51273985121E+02  0.12470561800E+03  0.79481942435E+02 0.  0.
         -6    2    1    2    0  502  0.26213799297E+02 -0.12532595208E+02  0.30879595014E+03  0.35452688033E+03  0.17172693683E+03 0.  0.
        -24    2    5    5    0    0  0.54747369584E+02 -0.19510997766E+01  0.30917053499E+03  0.32373137753E+03  0.78832124306E+02 0.  0.
          5    1    3    3  501    0  0.27559411718E+02 -0.48406162700E+02 -0.68331875074E+02  0.88283706949E+02  0.47000000000E+01 0. -1.
        -13    1    4    4    0    0  0.17153114668E+02 -0.12396399150E+01 -0.17454410128E+02  0.24503519805E+02  0.00000000000E+00 0.  1.
         14    1    4    4    0    0 -0.70926325683E+02  0.62178397822E+02 -0.33819574993E+02  0.10020209820E+03  0.00000000000E+00 0. -1.
         -5    1    5    5    0  502 -0.28533570287E+02 -0.10581495431E+02 -0.37458484657E+00  0.30795502799E+02  0.47000000000E+01 0.  1.
         13    1    6    6    0    0  0.31317643559E+02  0.34952913208E+01  0.29942399894E+02  0.43469059927E+02  0.00000000000E+00 0. -1.
        -14    1    6    6    0    0  0.23429726025E+02 -0.54463910975E+01  0.27922813509E+03  0.28026231760E+03  0.00000000000E+00 0.  1.
</event>
<event>
12    1  0.8313893E-002  0.1941354E+03  0.7818608E-02  0.1155392E+00
         21   -1    0    0  503  502  0.00000000000E+00  0.00000000000E+00  0.10192341963E+04  0.10192341963E+04  0.00000000000E+00 0. -1.
         21   -1    0    0  501  503 -0.00000000000E+00 -0.00000000000E+00 -0.72613239047E+02  0.72613239047E+02  0.00000000000E+00 0.  1.
          6    2    1    2  501    0 -0.77586486106E+02 -0.47067618686E+02  0.89773652120E+02  0.21388751486E+03  0.17162032760E+03 0.  0.
         24    2    3    3    0    0 -0.13179917995E+01 -0.15787044533E+01 -0.96228846575E+01  0.80516280838E+02  0.79912715888E+02 0.  0.
         -6    2    1    2    0  502  0.77586486106E+02  0.47067618686E+02  0.85684730514E+03  0.87795992049E+03  0.16849716350E+03 0.  0.
        -24    2    5    5    0    0  0.39171217799E+02  0.16502223009E+02  0.78737843154E+03  0.79276607886E+03  0.81893550876E+02 0.  0.
          5    1    3    3  501    0 -0.76268494307E+02 -0.45488914233E+02  0.99396536778E+02  0.13337123403E+03  0.47000000000E+01 0. -1.
        -11    1    4    4    0    0 -0.36292327539E+02  0.69079113348E+01 -0.21344079187E+02  0.42666403570E+02  0.00000000000E+00 0.  1.
         12    1    4    4    0    0  0.34974335740E+02 -0.84866157881E+01  0.11721194529E+02  0.37849877268E+02  0.00000000000E+00 0. -1.
         -5    1    5    5    0  502  0.38415268307E+02  0.30565395677E+02  0.69468873605E+02  0.85193841631E+02  0.47000000000E+01 0.  1.
         13    1    6    6    0    0  0.58567265761E+02  0.63254165129E+01  0.35674067452E+03  0.36157163104E+03  0.00000000000E+00 0. -1.
        -14    1    6    6    0    0 -0.19396047961E+02  0.10176806496E+02  0.43063775701E+03  0.43119444782E+03  0.00000000000E+00 0.  1.
</event>
<event>
12    1  0.8313893E-002  0.1764292E+03  0.7818608E-02  0.1171813E+00
         21   -1    0    0  501  502  0.00000000000E+00  0.00000000000E+00  0.71466754900E+02  0.71466754900E+02  0.00000000000E+00 0.  1.
         21   -1    0    0  502  503 -0.00000000000E+00 -0.00000000000E+00 -0.56429520362E+03  0.56429520362E+03  0.00000000000E+00 0.  1.
         -6    2    1    2    0  503  0.26455388031E+02 -0.23002480599E+02 -0.40226350339E+03  0.43925298126E+03  0.17291111507E+03 0.  0.
        -24    2    3    3    0    0 -0.11236395605E+02 -0.32169551901E+02 -0.38790583323E+03  0.39762440403E+03  0.80455544058E+02 0.  0.
          6    2    1    2  501    0 -0.26455388031E+02  0.23002480599E+02 -0.90564945328E+02  0.19650897726E+03  0.17083549734E+03 0.  0.
         24    2    5    5    0    0 -0.45364521948E+02  0.30533585959E+02  0.98560054352E+01  0.93938366237E+02  0.75743224681E+02 0.  0.
          5    1    5    5  501    0  0.18909133918E+02 -0.75311053607E+01 -0.10042095076E+03  0.10257061102E+03  0.47000000000E+01 0. -1.
        -11    1    6    6    0    0 -0.20360782952E+01 -0.19866131621E+02  0.18115993527E+02  0.26962900843E+02  0.00000000000E+00 0.  1.
         12    1    6    6    0    0 -0.43328443653E+02  0.50399717580E+02 -0.82599880915E+01  0.66975465395E+02  0.00000000000E+00 0. -1.
         -5    1    3    3    0  503  0.37691783635E+02  0.91670713024E+01 -0.14357670163E+02  0.41628577232E+02  0.47000000000E+01 0.  1.
         13    1    4    4    0    0 -0.34776375058E+02  0.12198486486E+02 -0.14825695119E+03  0.15276885452E+03  0.00000000000E+00 0. -1.
        -14    1    4    4    0    0  0.23539979453E+02 -0.44368038387E+02 -0.23964888204E+03  0.24485554951E+03  0.00000000000E+00 0.  1.
</event>
<event>
12    1  0.8313893E-002  0.2413430E+03  0.7818608E-02  0.1118958E+00
         21   -1    0    0  503  502  0.00000000000E+00  0.00000000000E+00  0.22606661298E+03  0.22606661298E+03  0.00000000000E+00 0. -1.
         21   -1    0    0  501  503 -0.00000000000E+00 -0.00000000000E+00 -0.28894769363E+03  0.28894769363E+03  0.00000000000E+00 0. -1.
          6    2    1    2  501    0  0.16540235177E+03  0.30477465642E+02 -0.11666233661E+03  0.26775159645E+03  0.17260939352E+03 0.  0.
         24    2    3    3    0    0  0.22441131925E+02 -0.27021758680E+02 -0.49636511979E+02  0.99648585335E+02  0.78944774327E+02 0.  0.
         -6    2    1    2    0  502 -0.16540235177E+03 -0.30477465642E+02  0.53781255964E+02  0.24726271016E+03  0.17308844693E+03 0.  0.
        -24    2    5    5    0    0 -0.76571786587E+02 -0.41576237032E+02  0.92892316863E+02  0.14945771478E+03  0.78209999292E+02 0.  0.
          5    1    3    3  501    0  0.14296121984E+03  0.57499224323E+02 -0.67025824636E+02  0.16810301111E+03  0.47000000000E+01 0. -1.
        -13    1    4    4    0    0  0.26804422461E+02 -0.24866105749E+02  0.11492659266E+02  0.38325989818E+02  0.00000000000E+00 0.  1.
         14    1    4    4    0    0 -0.43632905355E+01 -0.21556529316E+01 -0.61129171244E+02  0.61322595516E+02  0.00000000000E+00 0. -1.
         -5    1    5    5    0  502 -0.88830565182E+02  0.11098771389E+02 -0.39111060899E+02  0.97804995382E+02  0.47000000000E+01 0.  1.
         11    1    6    6    0    0 -0.38495146168E+02 -0.24375304857E+02 -0.21736716574E+01  0.45615311178E+02  0.00000000000E+00 0. -1.
        -12    1    6    6    0    0 -0.38076640418E+02 -0.17200932175E+02  0.95065988520E+02  0.10384240361E+03  0.00000000000E+00 0.  1.
</event>
<event>
12    1  0.8313893E-002  0.2074871E+03  0.7818608E-02  0.1143643E+00
         21   -1    0    0  501  502  0.00000000000E+00  0.00000000000E+00  0.42482835227E+02  0.42482835227E+02  0.00000000000E+00 0.  1.
         21   -1    0    0  502  503 -0.00000000000E+00 -0.00000000000E+00 -0.13831612675E+04  0.13831612675E+04  0.00000000000E+00 0.  1.
         -6    2    1    2    0  503 -0.11128066229E+03  0.31682426770E+02 -0.10393548284E+04  0.10597933028E+04  0.17180286202E+03 0.  0.
        -24    2    3    3    0    0 -0.54787151810E+02  0.27670619139E+02 -0.26440057426E+03  0.28275804149E+03  0.79228474625E+02 0.  0.
          6    2    1    2  501    0  0.11128066229E+03 -0.31682426770E+02 -0.30132360393E+03  0.36585079998E+03  0.17223162192E+03 0.  0.
         24    2    5    5    0    0  0.11394288551E+03  0.44803270359E+01 -0.29861534005E+03  0.32918669098E+03  0.78674657396E+02 0.  0.
          5    1    5    5  501    0 -0.26622232255E+01 -0.36162753806E+02 -0.27082638869E+01  0.36664108998E+02  0.47000000000E+01 0. -1.
        -13    1    6    6    0    0  0.49332640145E+02  0.21337841006E+02 -0.56292177834E+02  0.77832012230E+02  0.00000000000E+00 0.  1.
         14    1    6    6    0    0  0.64610245369E+02 -0.16857513970E+02 -0.24232316221E+03  0.25135467875E+03  0.00000000000E+00 0. -1.
         -5    1    3    3    0  503 -0.56493510479E+02  0.40118076310E+01 -0.77495425411E+03  0.77703526129E+03  0.47000000000E+01 0.  1.
         13    1    4    4    0    0 -0.36742934868E+02  0.53842858672E+02 -0.20848101794E+03  0.21843404390E+03  0.00000000000E+00 0. -1.
        -14    1    4    4    0    0 -0.18044216942E+02 -0.26172239533E+02 -0.55919556327E+02  0.64323997598E+02  0.00000000000E+00 0.  1.
</event>
<event>
12    1  0.8313893E-002  0.2086793E+03  0.7818608E-02  0.1142663E+00
         21   -1    0    0  501  502  0.00000000000E+00  0.00000000000E+00  0.75188050719E+02  0.75188050719E+02  0.00000000000E+00 0. -1.
         21   -1    0    0  502  503 -0.00000000000E+00 -0.00000000000E+00 -0.68645135624E+03  0.68645135624E+03  0.00000000000E+00 0.  1.
         -6    2    1    2    0  503 -0.55499591710E+02  0.10367015593E+03 -0.45677855445E+03  0.50218890604E+03  0.17239299183E+03 0.  0.
        -24    2    3    3    0    0 -0.42558255108E+02  0.13328269447E+03 -0.43198174401E+03  0.46118460822E+03  0.80669287703E+02 0.  0.
          6    2    1    2  501    0  0.55499591710E+02 -0.10367015593E+03 -0.15448475107E+03  0.25945050092E+03  0.17210844896E+03 0.  0.
         24    2    5    5    0    0  0.85934799028E+02 -0.44325124833E+02 -0.14875425709E+03  0.19234563432E+03  0.74293389092E+02 0.  0.
          5    1    5    5  501    0 -0.30435207318E+02 -0.59345031100E+02 -0.57304939831E+01  0.67104866605E+02  0.47000000000E+01 0. -1.
        -11    1    6    6    0    0  0.20895340421E+02  0.17365357488E+02 -0.61568925948E+02  0.67297128723E+02  0.00000000000E+00 0.  1.
         12    1    6    6    0    0  0.65039458607E+02 -0.61690482320E+02 -0.87185331141E+02  0.12504850559E+03  0.00000000000E+00 0. -1.
         -5    1    3    3    0  503 -0.12941336602E+02 -0.29612538536E+02 -0.24796810439E+02  0.41004297818E+02  0.47000000000E+01 0.  1.
         11    1    4    4    0    0  0.77436636739E+01  0.85911917676E+02 -0.17542096905E+03  0.19548232224E+03  0.00000000000E+00 0. -1.
        -12    1    4    4    0    0 -0.50301918782E+02  0.47370776793E+02 -0.25656077496E+03  0.26570228598E+03  0.00000000000E+00 0.  1.
</event>
<event>
12    1  0.8313893E-002  0.2089802E+03  0.7818608E-02  0.1142508E+00
         21   -1    0    0  501  502  0.00000000000E+00  0.00000000000E+00  0.52868983589E+02  0.52868983589E+02  0.00000000000E+00 0.  1.
         21   -1    0    0  502  503 -0.00000000000E+00 -0.00000000000E+00 -0.18615693184E+04  0.18615693184E+04  0.00000000000E+00 0. -1.
         -6    2    1    2    0  503  0.48421933093E+02  0.10818953492E+03 -0.16198006365E+04  0.16332258971E+04  0.17211353800E+03 0.  0.
        -24    2    3    3    0    0  0.45351440890E+02  0.94761864738E+02 -0.16100462153E+04  0.16157053668E+04  0.84961478474E+02 0.  0.
          6    2    1    2  501    0 -0.48421933093E+02 -0.10818953492E+03 -0.18889969828E+03  0.28121240484E+03  0.17131159200E+03 0.  0.
         24    2    5    5    0    0  0.48327710301E+01 -0.12861518694E+03 -0.13315874249E+03  0.20132238716E+03  0.78957145860E+02 0.  0.
          5    1    5    5  501    0 -0.53254704123E+02  0.20425652023E+02 -0.55740955793E+02  0.79890017677E+02  0.47000000000E+01 0. -1.
        -11    1    6    6    0    0 -0.28146281890E+02 -0.10878058116E+03 -0.95240084773E+02  0.14729596658E+03  0.00000000000E+00 0.  1.
         12    1    6    6    0    0  0.32979052921E+02 -0.19834605779E+02 -0.37918657717E+02  0.54026420583E+02  0.00000000000E+00 0. -1.
         -5    1    3    3    0  503  0.30704922029E+01  0.13427670178E+02 -0.97544212112E+01  0.17520530299E+02  0.47000000000E+01 0.  1.
         11    1    4    4    0    0  0.70489432969E+02  0.71815278603E+02 -0.11434279459E+04  0.11478474035E+04  0.00000000000E+00 0. -1.
        -12    1    4    4    0    0 -0.25137992079E+02  0.22946586135E+02 -0.46661826945E+03  0.46785796333E+03  0.00000000000E+00 0.  1.
</event>
<event>
12    1  0.8313893E-002  0.2678575E+03  0.7818608E-02  0.1102723E+00
         21   -1    0    0  503  502  0.00000000000E+00  0.00000000000E+00  0.11027156624E+03  0.11027156624E+03  0.00000000000E+00 0.  1.
         21   -1    0    0  501  503 -0.00000000000E+00 -0.00000000000E+00 -0.72313444380E+03  0.72313444380E+03  0.00000000000E+00 0. -1.
          6    2    1    2  501    0  0.32067682060E+02 -0.20088860008E+03 -0.17057129582E+03  0.31632820129E+03  0.17200115726E+03 0.  0.
         24    2    3    3    0    0  0.87206643444E+02 -0.14655099142E+03 -0.13326548201E+03  0.23026604631E+03  0.78616611714E+02 0.  0.
         -6    2    1    2    0  502 -0.32067682060E+02  0.20088860008E+03 -0.44229158174E+03  0.51707780874E+03  0.17424996741E+03 0.  0.
        -24    2    5    5    0    0 -0.78562561147E+02  0.18144434846E+03 -0.38767108918E+03  0.44261076295E+03  0.80754482774E+02 0.  0.
          5    1    3    3  501    0 -0.55138961384E+02 -0.54337608653E+02 -0.37305813808E+02  0.86062154984E+02  0.47000000000E+01 0. -1.
        -13    1    4    4    0    0  0.35694943739E+02 -0.10443364445E+03 -0.43728916692E+02  0.11871281842E+03  0.00000000000E+00 0.  1.
         14    1    4    4    0    0  0.51511699705E+02 -0.42117346971E+02 -0.89536565322E+02  0.11155322789E+03  0.00000000000E+00 0. -1.
         -5    1    5    5    0  502  0.46494879087E+02  0.19444251620E+02 -0.54620492556E+02  0.74467045795E+02  0.47000000000E+01 0.  1.
         11    1    6    6    0    0  0.97776860715E+01  0.22080869430E+02 -0.93599110512E+02  0.96664168275E+02  0.00000000000E+00 0. -1.
        -12    1    6    6    0    0 -0.88340247218E+02  0.15936347903E+03 -0.29407197867E+03  0.34594659467E+03  0.00000000000E+00 0.  1.
</event>
<event>
12    1  0.8313893E-002  0.2612527E+03  0.7818608E-02  0.1106527E+00
         21   -1    0    0  503  502  0.00000000000E+00  0.00000000000E+00  0.50238445260E+03  0.50238445260E+03  0.00000000000E+00 0. -1.
         21   -1    0    0  501  503 -0.00000000000E+00 -0.00000000000E+00 -0.15544296533E+03  0.15544296533E+03  0.00000000000E+00 0.  1.
          6    2    1    2  501    0  0.76946977555E+02  0.18029187743E+03  0.55081848444E+02  0.26611961126E+03  0.17134654663E+03 0.  0.
         24    2    3    3    0    0  0.74475924700E+02  0.35734416690E+02  0.10794714074E+02  0.11483707482E+03  0.79040597200E+02 0.  0.
         -6    2    1    2    0  502 -0.76946977555E+02 -0.18029187743E+03  0.29185963883E+03  0.39170780668E+03  0.17270483090E+03 0.  0.
        -24    2    5    5    0    0 -0.52289803293E+02 -0.20162868722E+03  0.22798810301E+03  0.31984057645E+03  0.83253037117E+02 0.  0.
          5    1    3    3  501    0  0.24710528548E+01  0.14455746074E+03  0.44287134370E+02  0.15128253643E+03  0.47000000000E+01 0. -1.
        -11    1    4    4    0    0  0.80177649501E+02  0.28463008095E+02 -0.15931376497E+02  0.86558691455E+02  0.00000000000E+00 0.  1.
         12    1    4    4    0    0 -0.57017248009E+01  0.72714085953E+01  0.26726090571E+02  0.28278383368E+02  0.00000000000E+00 0. -1.
         -5    1    5    5    0  502 -0.24657174262E+02  0.21336809786E+02  0.63871535812E+02  0.71867230234E+02  0.47000000000E+01 0.  1.
         13    1    6    6    0    0  0.71155890230E+01 -0.91265256201E+02  0.13777431457E+03  0.16541384570E+03  0.00000000000E+00 0. -1.
        -14    1    6    6    0    0 -0.59405392316E+02 -0.11036343102E+03  0.90213788447E+02  0.15442673074E+03  0.00000000000E+00 0.  1.
</event>
<event>
12    1  0.8313893E-002  0.1878064E+03  0.7818608E-02  0.1160676E+00
         21   -1    0    0  503  502  0.00000000000E+00  0.00000000000E+00  0.12552371323E+03  0.12552371323E+03  0.00000000000E+00 0.  1.
         21   -1    0    0  501  503 -0.00000000000E+00 -0.00000000000E+00 -0.28534151545E+03  0.28534151545E+03  0.00000000000E+00 0. -1.
          6    2    1    2  501    0  0.43657028718E+02 -0.59710396501E+02 -0.50446572272E+02  0.19353300624E+03  0.17157767991E+03 0.  0.
         24    2    3    3    0    0  0.47087625032E+02 -0.10058667747E+03 -0.10761739195E+02  0.13626508054E+03  0.78214020669E+02 0.  0.
         -6    2    1    2    0  502 -0.43657028718E+02  0.59710396501E+02 -0.10937122995E+03  0.21733222244E+03  0.17262665310E+03 0.  0.
        -24    2    5    5    0    0 -0.51163175505E+01 -0.24124439651E+02 -0.90821934378E+02  0.12309935908E+03  0.79351516360E+02 0.  0.
          5    1    3    3  501    0 -0.34305963143E+01  0.40876280970E+02 -0.39684833077E+02  0.57267925695E+02  0.47000000000E+01 0. -1.
        -13    1    4    4    0    0 -0.15393715968E+02 -0.56264091940E+02 -0.12429048060E+02  0.59641393082E+02  0.00000000000E+00 0.  1.
         14    1    4    4    0    0  0.62481341000E+02 -0.44322585531E+02  0.16673088654E+01  0.76623687461E+02  0.00000000000E+00 0. -1.
         -5    1    5    5    0  502 -0.38540711167E+02  0.83834836152E+02 -0.18549295575E+02  0.94232863356E+02  0.47000000000E+01 0.  1.
         13    1    6    6    0    0 -0.18809362253E+02 -0.47047920488E+02 -0.79102720633E+02  0.93939019274E+02  0.00000000000E+00 0. -1.
        -14    1    6    6    0    0  0.13693044703E+02  0.22923480837E+02 -0.11719213745E+02  0.29160339808E+02  0.00000000000E+00 0.  1.
</event>
<event>
12    1  0.8313893E-002  0.1876193E+03  0.7818608E-02  0.1160861E+00
         21   -1    0    0  501  502  0.00000000000E+00  0.00000000000E+00  0.49412349196E+03  0.49412349196E+03  0.00000000000E+00 0. -1.
         21   -1    0    0  502  503 -0.00000000000E+00 -0.00000000000E+00 -0.18536468114E+03  0.18536468114E+03  0.00000000000E+00 0. -1.
         -6    2    1    2    0  503 -0.65682311426E+02  0.28639874271E+02 -0.11249177129E+03  0.21875873415E+03  0.17339716470E+03 0.  0.
        -24    2    3    3    0    0 -0.89293980723E+02 -0.24828085920E+02 -0.10142662893E+03  0.15908578325E+03  0.80193993118E+02 0.  0.
          6    2    1    2  501    0  0.65682311426E+02 -0.28639874271E+02  0.42125058211E+03  0.46072943894E+03  0.17229380298E+03 0.  0.
         24    2    5    5    0    0 -0.17154191804E+02  0.13523948567E+02  0.28029784002E+03  0.29182283834E+03  0.78208224480E+02 0.  0.
          5    1    5    5  501    0  0.82836503230E+02 -0.42163822838E+02  0.14095274209E+03  0.16890660060E+03  0.47000000000E+01 0. -1.
        -13    1    6    6    0    0 -0.32509168325E+02  0.14153395699E+02  0.51591151719E+02  0.62600411905E+02  0.00000000000E+00 0.  1.
         14    1    6    6    0    0  0.15354976521E+02 -0.62944713211E+00  0.22870668830E+03  0.22922242643E+03  0.00000000000E+00 0. -1.
         -5    1    3    3    0  503  0.23611669297E+02  0.53467960191E+02 -0.11065142360E+02  0.59672950903E+02  0.47000000000E+01 0.  1.
         11    1    4    4    0    0  0.12933231025E+02 -0.14585342186E+02 -0.12096590407E+02  0.22941843232E+02  0.00000000000E+00 0. -1.
        -12    1    4    4    0    0 -0.10222721175E+03 -0.10242743734E+02 -0.89330038522E+02  0.13614394002E+03  0.00000000000E+00 0.  1.
</event>
<event>
12    1  0.8313893E-002  0.1737405E+03  0.7818608E-02  0.1174006E+00
         21   -1    0    0  501  502  0.00000000000E+00  0.00000000000E+00  0.23191736319E+02  0.23191736319E+02  0.00000000000E+00 0. -1.
         21   -1    0    0  502  503 -0.00000000000E+00 -0.00000000000E+00 -0.20340983540E+04  0.20340983540E+04  0.00000000000E+00 0. -1.
         -6    2    1    2    0  503  0.25202666969E+02  0.24214043586E+01 -0.16228128273E+04  0.16320867748E+04  0.17188580663E+03 0.  0.
        -24    2    3    3    0    0 -0.35858312357E+02 -0.41380982896E+02 -0.77481766157E+03  0.78075547421E+03  0.78984159903E+02 0.  0.
          6    2    1    2  501    0 -0.25202666969E+02 -0.24214043586E+01 -0.38809379037E+03  0.42520331548E+03  0.17187213778E+03 0.  0.
         24    2    5    5    0    0  0.47075916958E+02  0.26122322603E+02 -0.23036280777E+03  0.24930535950E+03  0.78661435127E+02 0.  0.
          5    1    5    5  501    0 -0.72278583927E+02 -0.28543726962E+02 -0.15773098261E+03  0.17589795598E+03  0.47000000000E+01 0. -1.
        -13    1    6    6    0    0 -0.11092131257E+02  0.14537449394E+02 -0.14017657927E+03  0.14136423235E+03  0.00000000000E+00 0.  1.
         14    1    6    6    0    0  0.58168048215E+02  0.11584873209E+02 -0.90186228498E+02  0.10794112715E+03  0.00000000000E+00 0. -1.
         -5    1    3    3    0  503  0.61060979326E+02  0.43802387254E+02 -0.84799516571E+03  0.85133130061E+03  0.47000000000E+01 0.  1.
         13    1    4    4    0    0 -0.40623805030E+02  0.12007285582E+02 -0.32080545257E+03  0.32359018347E+03  0.00000000000E+00 0. -1.
        -14    1    4    4    0    0  0.47654926727E+01 -0.53388268477E+02 -0.45401220901E+03  0.45716529074E+03  0.00000000000E+00 0.  1.
</event>
<event>
12    1  0.8313893E-002  0.2233904E+03  0.7818608E-02  0.1131849E+00
         21   -1    0    0  501  502  0.00000000000E+00  0.00000000000E+00  0.45463014767E+03  0.45463014767E+03  0.00000000000E+00 0.  1.
         21   -1    0    0  502  503 -0.00000000000E+00 -0.00000000000E+00 -0.13085259491E+03  0.13085259491E+03  0.00000000000E+00 0. -1.
         -6    2    1    2    0  503 -0.48658777131E+02 -0.12985822930E+03  0.41716252636E+02  0.22725213661E+03  0.17513552339E+03 0.  0.
        -24    2    3    3    0    0  0.10574946852E+02 -0.13845153945E+03  0.40549849275E+02  0.16720274417E+03  0.83855882950E+02 0.  0.
          6    2    1    2  501    0  0.48658777131E+02  0.12985822930E+03  0.28206130013E+03  0.35823060597E+03  0.17187132895E+03 0.  0.
         24    2    5    5    0    0 -0.30763685485E+02  0.93067917446E+02  0.12522165205E+03  0.17855807100E+03  0.81206409686E+02 0.  0.
          5    1    5    5  501    0  0.79422462616E+02  0.36790311858E+02  0.15683964808E+03  0.17967253497E+03  0.47000000000E+01 0. -1.
        -13    1    6    6    0    0 -0.46348905864E+02  0.18075451879E+02  0.60121110445E+02  0.78035190502E+02  0.00000000000E+00 0.  1.
         14    1    6    6    0    0  0.15585220379E+02  0.74992465567E+02  0.65100541603E+02  0.10052288050E+03  0.00000000000E+00 0. -1.
         -5    1    3    3    0  503 -0.59233723983E+02  0.85933101436E+01  0.11664033612E+01  0.60049392444E+02  0.47000000000E+01 0.  1.
         13    1    4    4    0    0  0.35533117758E+02 -0.76377218468E+02 -0.78856934815E+01  0.84606537101E+02  0.00000000000E+00 0. -1.
        -14    1    4    4    0    0 -0.24958170906E+02 -0.62074320980E+02  0.48435542756E+02  0.82596207069E+02  0.00000000000E+00 0.  1.
</event>
<event>
12    1  0.8313893E-002  0.2257221E+03  0.7818608E-02  0.1129905E+00
         21   -1    0    0  503  502  0.00000000000E+00  0.00000000000E+00  0.14059878922E+03  0.14059878922E+03  0.00000000000E+00 0.  1.
         21   -1    0    0  501  503 -0.00000000000E+00 -0.00000000000E+00 -0.88744505373E+03  0.88744505373E+03  0.00000000000E+00 0.  1.
          6    2    1    2  501    0  0.12600660037E+03  0.70693861545E+02 -0.76993327282E+03  0.80233890389E+03  0.17342199026E+03 0.  0.
         24    2    3    3    0    0  0.73218584038E+02  0.97038621493E+02 -0.67398772420E+03  0.68960798824E+03  0.80760571792E+02 0.  0.
         -6    2    1    2    0  502 -0.12600660037E+03 -0.70693861545E+02  0.23087008316E+02  0.22570493906E+03  0.17185582378E+03 0.  0.
        -24    2    5    5    0    0 -0.57562021596E+02  0.29201675191E+02  0.15003510323E+02  0.10425037322E+03  0.80479257145E+02 0.  0.
          5    1    3    3  501    0  0.52788016327E+02 -0.26344759948E+02 -0.95945548620E+02  0.11273091565E+03  0.47000000000E+01 0. -1.
        -13    1    4    4    0    0  0.30124764382E+02 -0.83270531550E+01 -0.11674061345E+03  0.12085202552E+03  0.00000000000E+00 0.  1.
         14    1    4    4    0    0  0.43093819656E+02  0.10536567465E+03 -0.55724711075E+03  0.56875596271E+03  0.00000000000E+00 0. -1.
         -5    1    5    5    0  502 -0.68444578769E+02 -0.99895536736E+02  0.80834979932E+01  0.12145456584E+03  0.47000000000E+01 0.  1.
         13    1    6    6    0    0  0.19854884309E+02 -0.70743965526E+00  0.60878680058E+01  0.20779293507E+02  0.00000000000E+00 0. -1.
        -14    1    6    6    0    0 -0.77416905905E+02  0.29909114847E+02  0.89156423167E+01  0.83471079715E+02  0.00000000000E+00 0.  1.
</event>
<event>
12    1  0.8313893E-002  0.1873059E+03  0.7818608E-02  0.1162462E+00
         21   -1    0    0  501  502  0.00000000000E+00  0.00000000000E+00  0.43095599093E+02  0.43095599093E+02  0.00000000000E+00 0.  1.
         21   -1    0    0  502  503 -0.00000000000E+00 -0.00000000000E+00 -0.78618061661E+03  0.78618061661E+03  0.00000000000E+00 0.  1.
         -6    2    1    2    0  503  0.38958352281E+02 -0.58817272627E+02 -0.36697397665E+03  0.41201141536E+03  0.17351161943E+03 0.  0.
        -24    2    3    3    0    0  0.82805871336E+02 -0.68542367736E+02 -0.31881858333E+03  0.34599464243E+03  0.80697800543E+02 0.  0.
          6    2    1    2  501    0 -0.38958352281E+02  0.58817272627E+02 -0.37611104087E+03  0.41726480034E+03  0.16635255865E+03 0.  0.
         24    2    5    5    0    0 -0.32387571280E+02  0.53472237976E+02 -0.38864990544E+03  0.40142000047E+03  0.78619544435E+02 0.  0.
          5    1    5    5  501    0 -0.65707810010E+01  0.53450346510E+01  0.12538864573E+02  0.15844799877E+02  0.47000000000E+01 0. -1.
        -11    1    6    6    0    0 -0.45313327458E+02  0.45599684772E+02 -0.16234580645E+03  0.17461039422E+03  0.00000000000E+00 0.  1.
         12    1    6    6    0    0  0.12925756178E+02  0.78725532042E+01 -0.22630409899E+03  0.22680960625E+03  0.00000000000E+00 0. -1.
         -5    1    3    3    0  503 -0.43847519055E+02  0.97250951094E+01 -0.48155393321E+02  0.66016772930E+02  0.47000000000E+01 0.  1.
         11    1    4    4    0    0 -0.61556368397E+01 -0.31393125191E+02 -0.13135164439E+03  0.13519125215E+03  0.00000000000E+00 0. -1.
        -12    1    4    4    0    0  0.88961508176E+02 -0.37149242545E+02 -0.18746693894E+03  0.21080339028E+03  0.00000000000E+00 0.  1.
</event>
<event>
12    1  0.8313893E-002  0.1795724E+03  0.7818608E-02  0.1168538E+00
         21   -1    0    0  503  502  0.00000000000E+00  0.00000000000E+00  0.31282068811E+02  0.31282068811E+02  0.00000000000E+00 0.  1.
         21   -1    0    0  501  503 -0.00000000000E+00 -0.00000000000E+00 -0.15445210108E+04  0.15445210108E+04  0.00000000000E+00 0.  1.
          6    2    1    2  501    0 -0.23837285779E+02 -0.40226260946E+02 -0.12124873870E+04  0.12255206816E+04  0.17201427021E+03 0.  0.
         24    2    3    3    0    0 -0.56511266555E+02  0.43796124679E+01 -0.42269243925E+03  0.43377866400E+03  0.79261130990E+02 0.  0.
         -6    2    1    2    0  502  0.23837285779E+02  0.40226260946E+02 -0.30075155497E+03  0.35028239798E+03  0.17337788860E+03 0.  0.
        -24    2    5    5    0    0  0.52909823589E+02 -0.19783603550E+02 -0.24246830527E+03  0.26159517518E+03  0.80313860692E+02 0.  0.
          5    1    3    3  501    0  0.32673980777E+02 -0.44605873414E+02 -0.78979494777E+03  0.79174201763E+03  0.47000000000E+01 0. -1.
        -13    1    4    4    0    0 -0.40087407431E+02 -0.19753447441E+02 -0.37644800478E+03  0.37909141275E+03  0.00000000000E+00 0.  1.
         14    1    4    4    0    0 -0.16423859124E+02  0.24133059909E+02 -0.46244434475E+02  0.54687251247E+02  0.00000000000E+00 0. -1.
         -5    1    5    5    0  502 -0.29072537811E+02  0.60009864495E+02 -0.58283249701E+02  0.88687222796E+02  0.47000000000E+01 0.  1.
         11    1    6    6    0    0 -0.21571893360E+02 -0.63317276124E+01 -0.57815634332E+02  0.62032934244E+02  0.00000000000E+00 0. -1.
        -12    1    6    6    0    0  0.74481716950E+02 -0.13451875937E+02 -0.18465267093E+03  0.19956224094E+03  0.00000000000E+00 0.  1.
</event>
<event>
12    1  0.8313893E-002  0.2016744E+03  0.7818608E-02  0.1148432E+00
         21   -1    0    0  501  502  0.00000000000E+00  0.00000000000E+00  0.49920391846E+02  0.49920391846E+02  0.00000000000E+00 0. -1.
         21   -1    0    0  502  503 -0.00000000000E+00 -0.00000000000E+00 -0.10709715287E+04  0.10709715287E+04  0.00000000000E+00 0.  1.
         -6    2    1    2    0  503  0.97241312732E+02 -0.38126620113E+02 -0.78611026799E+03  0.81156755980E+03  0.17251967601E+03 0.  0.
        -24    2    3    3    0    0  0.19958863714E+02  0.34828688977E+02 -0.42781826171E+03  0.43781589650E+03  0.83921989737E+02 0.  0.
          6    2    1    2  501    0 -0.97241312732E+02  0.38126620113E+02 -0.23494086885E+03  0.30932436074E+03  0.17197335906E+03 0.  0.
         24    2    5    5    0    0 -0.19937634277E+01  0.39651596473E+02 -0.17124030976E+03  0.19463228415E+03  0.83559907579E+02 0.  0.
          5    1    5    5  501    0 -0.95247549304E+02 -0.15249763597E+01 -0.63700559095E+02  0.11469207658E+03  0.47000000000E+01 0. -1.
        -13    1    6    6    0    0 -0.20496315748E+02 -0.20631177288E+02 -0.62410369316E+02  0.68853457675E+02  0.00000000000E+00 0.  1.
         14    1    6    6    0    0  0.18502552321E+02  0.60282773761E+02 -0.10882994044E+03  0.12577882648E+03  0.00000000000E+00 0. -1.
         -5    1    3    3    0  503  0.77282449018E+02 -0.72955309090E+02 -0.35829200628E+03  0.37375166329E+03  0.47000000000E+01 0.  1.
         13    1    4    4    0    0  0.37518131182E+02 -0.12912490119E+02 -0.13899625100E+03  0.14454860899E+03  0.00000000000E+00 0. -1.
        -14    1    4    4    0    0 -0.17559267468E+02  0.47741179097E+02 -0.28882201071E+03  0.29326728752E+03  0.00000000000E+00 0.  1.
</event>
<event>
12    1  0.8313893E-002  0.1830295E+03  0.7818608E-02  0.1165188E+00
         21   -1    0    0  503  502  0.00000000000E+00  0.00000000000E+00  0.34255866496E+03  0.34255866496E+03  0.00000000000E+00 0. -1.
         21   -1    0    0  501  503 -0.00000000000E+00 -0.00000000000E+00 -0.12519381357E+03  0.12519381357E+03  0.00000000000E+00 0. -1.
          6    2    1    2  501    0  0.48145110117E+02  0.34969329540E+02 -0.17271711257E+01  0.18303761236E+03  0.17308662219E+03 0.  0.
         24    2    3    3    0    0  0.91479606134E+01  0.16694995843E+02 -0.66155965424E+02  0.10539813480E+03  0.79810694696E+02 0.  0.
         -6    2    1    2    0  502 -0.48145110117E+02 -0.34969329540E+02  0.21909202251E+03  0.28471486617E+03  0.17181511881E+03 0.  0.
        -24    2    5    5    0    0 -0.89120231187E+02 -0.25653217145E+02  0.20790436831E+03  0.24097696380E+03  0.79026372584E+02 0.  0.
          5    1    3    3  501    0  0.38997149504E+02  0.18274333697E+02  0.64428794298E+02  0.77639477563E+02  0.47000000000E+01 0. -1.
        -13    1    4    4    0    0  0.10515450191E+02  0.12172214034E+02  0.16245318749E+02  0.22861493137E+02  0.00000000000E+00 0.  1.
         14    1    4    4    0    0 -0.13674895780E+01  0.45227818091E+01 -0.82401284173E+02  0.82536641659E+02  0.00000000000E+00 0. -1.
         -5    1    5    5    0  502  0.40975121069E+02 -0.93161123947E+01  0.11187654204E+02  0.43737902366E+02  0.47000000000E+01 0.  1.
         13    1    6    6    0    0 -0.81124523031E+02  0.67940267823E+01  0.17957807175E+03  0.19716904141E+03  0.00000000000E+00 0. -1.
        -14    1    6    6    0    0 -0.79957081559E+01 -0.32447243927E+02  0.28326296558E+02  0.43807922389E+02  0.00000000000E+00 0.  1.
</event>
<event>
12    1  0.8313893E-002  0.1934287E+03  0.7818608E-02  0.1155494E+00
         21   -1    0    0  501  502  0.00000000000E+00  0.00000000000E+00  0.22488092123E+03  0.22488092123E+03  0.00000000000E+00 0.  1.
         21   -1    0    0  502  503 -0.00000000000E+00 -0.00000000000E+00 -0.18947790651E+03  0.18947790651E+03  0.00000000000E+00 0.  1.
         -6    2    1    2    0  503 -0.70469002612E+02 -0.55663493866E+02 -0.55170767362E+02  0.20114292777E+03  0.17131946457E+03 0.  0.
        -24    2    3    3    0    0 -0.65997014656E+02 -0.10233419035E+03 -0.39772625148E+02  0.15157130918E+03  0.81019180425E+02 0.  0.
          6    2    1    2  501    0  0.70469002612E+02  0.55663493866E+02  0.90573782089E+02  0.21321589997E+03  0.17085989910E+03 0.  0.
         24    2    5    5    0    0  0.63358368453E+02 -0.61414547200E+01  0.10773690393E+03  0.14850828420E+03  0.79971680538E+02 0.  0.
          5    1    5    5  501    0  0.71106341595E+01  0.61804948586E+02 -0.17163121837E+02  0.64707615774E+02  0.47000000000E+01 0. -1.
        -11    1    6    6    0    0  0.19658072372E+02 -0.34103853575E+00  0.10220509460E+03  0.10407899633E+03  0.00000000000E+00 0.  1.
         12    1    6    6    0    0  0.43700296080E+02 -0.58004161843E+01  0.55318093306E+01  0.44429287862E+02  0.00000000000E+00 0. -1.
         -5    1    3    3    0  503 -0.44719879559E+01  0.46670696481E+02 -0.15398142214E+02  0.49571618593E+02  0.47000000000E+01 0.  1.
         11    1    4    4    0    0  0.58415546769E+01 -0.15471777487E+02  0.18387895798E+02  0.24730838472E+02  0.00000000000E+00 0. -1.
        -12    1    4    4    0    0 -0.71838569333E+02 -0.86862412861E+02 -0.58160520946E+02  0.12684047070E+03  0.00000000000E+00 0.  1.
</event>
<event>
12    1  0.8313893E-002  0.2094670E+03  0.7818608E-02  0.1142117E+00
         21   -1    0    0  503  502  0.00000000000E+00  0.00000000000E+00  0.14226355102E+04  0.14226355102E+04  0.00000000000E+00 0.  1.
         21   -1    0    0  501  503 -0.00000000000E+00 -0.00000000000E+00 -0.76861588443E+02  0.76861588443E+02  0.00000000000E+00 0.  1.
          6    2    1    2  501    0  0.11790554740E+03 -0.16760578145E+02  0.91733451243E+02  0.22808295503E+03  0.17153475803E+03 0.  0.
         24    2    3    3    0    0  0.49545692770E+02 -0.78305703586E+02  0.66062388528E+02  0.13246932812E+03  0.67803575345E+02 0.  0.
         -6    2    1    2    0  502 -0.11790554740E+03  0.16760578145E+02  0.12540404705E+04  0.12714141436E+04  0.17231885502E+03 0.  0.
        -24    2    5    5    0    0 -0.10659535714E+03  0.70819210169E+02  0.10077166115E+04  0.10189308974E+04  0.79683585995E+02 0.  0.
          5    1    3    3  501    0  0.68359854626E+02  0.61545125441E+02  0.25671062715E+02  0.95613626910E+02  0.47000000000E+01 0. -1.
        -13    1    4    4    0    0  0.31702099548E+02 -0.31496113389E+02 -0.55955896200E+01  0.45037083582E+02  0.00000000000E+00 0.  1.
         14    1    4    4    0    0  0.17843593222E+02 -0.46809590197E+02  0.71657978148E+02  0.87432244543E+02  0.00000000000E+00 0. -1.
         -5    1    5    5    0  502 -0.11310190256E+02 -0.54058632024E+02  0.24632385905E+03  0.25248324625E+03  0.47000000000E+01 0.  1.
         11    1    6    6    0    0 -0.65010194385E+01 -0.11482888456E+02  0.31516363057E+02  0.34167252178E+02  0.00000000000E+00 0. -1.
        -12    1    6    6    0    0 -0.10009433770E+03  0.82302098626E+02  0.97620024843E+03  0.98476364520E+03  0.00000000000E+00 0.  1.
</event>
<event>
12    1  0.8313893E-002  0.3715331E+03  0.7818608E-02  0.1054155E+00
         21   -1    0    0  501  502  0.00000000000E+00  0.00000000000E+00  0.99434559295E+02  0.99434559295E+02  0.00000000000E+00 0.  1.
         21   -1    0    0  502  503 -0.00000000000E+00 -0.00000000000E+00 -0.20530712347E+04  0.20530712347E+04  0.00000000000E+00 0. -1.
         -6    2    1    2    0  503 -0.24633896730E+03 -0.21779078934E+03 -0.15905675786E+04  0.16333836362E+04  0.17297735668E+03 0.  0.
        -24    2    3    3    0    0 -0.19569218855E+03 -0.93499903977E+02 -0.11523243575E+04  0.11750251179E+04  0.76124490906E+02 0.  0.
          6    2    1    2  501    0  0.24633896730E+03  0.21779078934E+03 -0.36306909674E+03  0.51912215781E+03  0.17190965938E+03 0.  0.
         24    2    5    5    0    0  0.32546171859E+02  0.70605751150E+02 -0.14395144453E+03  0.17940841013E+03  0.73626991290E+02 0.  0.
          5    1    5    5  501    0  0.21379279544E+03  0.14718503819E+03 -0.21911765221E+03  0.33971374767E+03  0.47000000000E+01 0. -1.
        -11    1    6    6    0    0  0.57666293093E+01 -0.11759054814E+02 -0.21827972520E+01  0.13277574611E+02  0.00000000000E+00 0.  1.
         12    1    6    6    0    0  0.26779542550E+02  0.82364805963E+02 -0.14176864728E+03  0.16613083552E+03  0.00000000000E+00 0. -1.
         -5    1    3    3    0  503 -0.50646778750E+02 -0.12429088536E+03 -0.43824322111E+03  0.45835851822E+03  0.47000000000E+01 0.  1.
         11    1    4    4    0    0 -0.92439055070E+01 -0.97114408914E+01 -0.22683189158E+03  0.22722779079E+03  0.00000000000E+00 0. -1.
        -12    1    4    4    0    0 -0.18644828304E+03 -0.83788463086E+02 -0.92549246595E+03  0.94779732714E+03  0.00000000000E+00 0.  1.
</event>
<event>
12    1  0.8313893E-002  0.2213464E+03  0.7818608E-02  0.1133344E+00
         21   -1    0    0  501  502  0.00000000000E+00  0.00000000000E+00  0.11237571464E+03  0.11237571464E+03  0.00000000000E+00 0.  1.
         21   -1    0    0  502  503 -0.00000000000E+00 -0.00000000000E+00 -0.83646596941E+03  0.83646596941E+03  0.00000000000E+00 0. -1.
         -6    2    1    2    0  503 -0.13300784374E+03 -0.19831664593E+02 -0.69335083557E+03  0.72782526420E+03  0.17581198083E+03 0.  0.
        -24    2    3    3    0    0 -0.84983690831E+02  0.62762564188E+01 -0.64321017855E+03  0.65350085174E+03  0.77989809109E+02 0.  0.
          6    2    1    2  501    0  0.13300784374E+03  0.19831664593E+02 -0.30739419196E+02  0.22101641985E+03  0.17268168558E+03 0.  0.
         24    2    5    5    0    0  0.90674721923E+02 -0.33273635380E+02 -0.69488958504E+02  0.14268454330E+03  0.78747212871E+02 0.  0.
          5    1    5    5  501    0  0.42333121813E+02  0.53105299973E+02  0.38749539308E+02  0.78331876552E+02  0.47000000000E+01 0. -1.
        -11    1    6    6    0    0  0.83459394212E+02 -0.10536459760E+00 -0.25794602588E+02  0.87354697107E+02  0.00000000000E+00 0.  1.
         12    1    6    6    0    0  0.72153277113E+01 -0.33168270782E+02 -0.43694355916E+02  0.55329846191E+02  0.00000000000E+00 0. -1.
         -5    1    3    3    0  503 -0.48024152905E+02 -0.26107921012E+02 -0.50140657019E+02  0.74324412464E+02  0.47000000000E+01 0.  1.
         11    1    4    4    0    0 -0.62326437424E+02 -0.63738105894E+01 -0.20118266121E+03  0.21071230015E+03  0.00000000000E+00 0. -1.
        -12    1    4    4    0    0 -0.22657253408E+02  0.12650067008E+02 -0.44202751734E+03  0.44278855159E+03  0.00000000000E+00 0.  1.
</event>
<event>
12    1  0.8313893E-002  0.3969123E+03  0.7818608E-02  0.1044860E+00
         21   -1    0    0  503  502  0.00000000000E+00  0.00000000000E+00  0.70554325707E+03  0.70554325707E+03  0.00000000000E+00 0.  1.
         21   -1    0    0  501  503 -0.00000000000E+00 -0.00000000000E+00 -0.22372819000E+03  0.22372819000E+03  0.00000000000E+00 0. -1.
          6    2    1    2  501    0  0.26420436837E+03  0.24112082326E+03  0.26231785343E+03  0.47570952852E+03  0.17188862563E+03 0.  0.
         24    2    3    3    0    0  0.20632155557E+03  0.25435869543E+03  0.21423206155E+03  0.39915892657E+03  0.78520966818E+02 0.  0.
         -6    2    1    2    0  502 -0.26420436837E+03 -0.24112082326E+03  0.21949721363E+03  0.45356191855E+03  0.17203542511E+03 0.  0.
        -24    2    5    5    0    0 -0.25128810146E+03 -0.21376732081E+03  0.13765185708E+03  0.36617887422E+03  0.79352106367E+02 0.  0.
          5    1    3    3  501    0  0.57882812798E+02 -0.13237872178E+02  0.48085791884E+02  0.76550601946E+02  0.47000000000E+01 0. -1.
        -13    1    4    4    0    0  0.59696569795E+02  0.13093364985E+03  0.10891690700E+03  0.18047214117E+03  0.00000000000E+00 0.  1.
         14    1    4    4    0    0  0.14662498577E+03  0.12342504558E+03  0.10531515455E+03  0.21868678540E+03  0.00000000000E+00 0. -1.
         -5    1    5    5    0  502 -0.12916266907E+02 -0.27353502443E+02  0.81845356555E+02  0.87383044330E+02  0.47000000000E+01 0.  1.
         13    1    6    6    0    0 -0.16656029446E+03 -0.10882721868E+03  0.11381116161E+03  0.22921316656E+03  0.00000000000E+00 0. -1.
        -14    1    6    6    0    0 -0.84727806995E+02 -0.10494010214E+03  0.23840695471E+02  0.13696570766E+03  0.00000000000E+00 0.  1.
</event>
<event>
12    1  0.8313893E-002  0.1858633E+03  0.7818608E-02  0.1163624E+00
         21   -1    0    0  503  502  0.00000000000E+00  0.00000000000E+00  0.31300720629E+02  0.31300720629E+02  0.00000000000E+00 0.  1.
         21   -1    0    0  501  503 -0.00000000000E+00 -0.00000000000E+00 -0.10693312180E+04  0.10693312180E+04  0.00000000000E+00 0.  1.
          6    2    1    2  501    0 -0.48083238843E+02 -0.19953287246E+02 -0.52330602786E+03  0.55533266761E+03  0.17842376914E+03 0.  0.
         24    2    3    3    0    0  0.26181412973E+02 -0.45259222964E+02 -0.18583681960E+03  0.20883131781E+03  0.79632481627E+02 0.  0.
         -6    2    1    2    0  502  0.48083238843E+02  0.19953287246E+02 -0.51472446954E+03  0.54529927104E+03  0.17233654264E+03 0.  0.
        -24    2    5    5    0    0 -0.35000864535E+02 -0.34262438781E+01 -0.31029719826E+03  0.32334844327E+03  0.83863370123E+02 0.  0.
          5    1    3    3  501    0 -0.74264651816E+02  0.25305935717E+02 -0.33746920826E+03  0.34650134980E+03  0.47000000000E+01 0. -1.
        -13    1    4    4    0    0 -0.48613941246E+01 -0.59542342832E+02 -0.10061677728E+03  0.11701563832E+03  0.00000000000E+00 0.  1.
         14    1    4    4    0    0  0.31042807098E+02  0.14283119868E+02 -0.85220042323E+02  0.91815679484E+02  0.00000000000E+00 0. -1.
         -5    1    5    5    0  502  0.83084103379E+02  0.23379531125E+02 -0.20442727127E+03  0.22195082778E+03  0.47000000000E+01 0.  1.
         13    1    6    6    0    0 -0.12141065571E+02 -0.35522850077E+02 -0.66304645829E+02  0.76194385681E+02  0.00000000000E+00 0. -1.
        -14    1    6    6    0    0 -0.22859798965E+02  0.32096606199E+02 -0.24399255243E+03  0.24715405758E+03  0.00000000000E+00 0.  1.
</event>
<event>
12    1  0.8313893E-002  0.2082109E+03  0.7818608E-02  0.1143559E+00
         21   -1    0    0  503  502  0.00000000000E+00  0.00000000000E+00  0.23176404271E+03  0.23176404271E+03  0.00000000000E+00 0. -1.
         21   -1    0    0  501  503 -0.00000000000E+00 -0.00000000000E+00 -0.39870458785E+03  0.39870458785E+03  0.00000000000E+00 0.  1.
          6    2    1    2  501    0  0.11683420486E+03  0.12367787575E+01 -0.31424877251E+03  0.37541668534E+03  0.16891902072E+03 0.  0.
         24    2    3    3    0    0  0.14010469516E+03 -0.16218234436E+02 -0.30341610465E+03  0.34402194219E+03  0.79983794703E+02 0.  0.
         -6    2    1    2    0  502 -0.11683420486E+03 -0.12367787575E+01  0.14730822737E+03  0.25505194522E+03  0.17233693702E+03 0.  0.
        -24    2    5    5    0    0 -0.76648382905E+02 -0.66935309177E+02  0.68512475292E+02  0.14477022538E+03  0.76870987170E+02 0.  0.
          5    1    3    3  501    0 -0.23270490302E+02  0.17455013193E+02 -0.10832667863E+02  0.31394743151E+02  0.47000000000E+01 0. -1.
        -13    1    4    4    0    0  0.95097727584E+02 -0.41817263983E+02 -0.24409578548E+03  0.26528289400E+03  0.00000000000E+00 0.  1.
         14    1    4    4    0    0  0.45006967576E+02  0.25599029547E+02 -0.59320319164E+02  0.78739048190E+02  0.00000000000E+00 0. -1.
         -5    1    5    5    0  502 -0.40185821953E+02  0.65698530419E+02  0.78795752081E+02  0.11028171984E+03  0.47000000000E+01 0.  1.
         11    1    6    6    0    0 -0.33323510331E+02 -0.14368721368E+02  0.67507430613E+02  0.76643131998E+02  0.00000000000E+00 0. -1.
        -12    1    6    6    0    0 -0.43324872574E+02 -0.52566587808E+02  0.10050446789E+01  0.68127093378E+02  0.00000000000E+00 0.  1.
</event>
<event>
12    1  0.8313893E-002  0.2280958E+03  0.7818608E-02  0.1128751E+00
         21   -1    0    0  501  502  0.00000000000E+00  0.00000000000E+00  0.13197557271E+04  0.13197557271E+04  0.00000000000E+00 0.  1.
         21   -1    0    0  502  503 -0.00000000000E+00 -0.00000000000E+00 -0.43202168536E+02  0.43202168536E+02  0.00000000000E+00 0. -1.
         -6    2    1    2    0  503 -0.66570215644E+02 -0.12596278065E+03  0.86385363650E+03  0.89346002459E+03  0.17812774779E+03 0.  0.
        -24    2    3    3    0    0  0.12620274162E+02  0.80867066289E+01  0.27270864438E+03  0.28213777698E+03  0.70760542231E+02 0.  0.
          6    2    1    2  501    0  0.66570215644E+02  0.12596278065E+03  0.41269992207E+03  0.46949787104E+03  0.17265227922E+03 0.  0.
         24    2    5    5    0    0  0.46792098781E+02 -0.38371226248E+01  0.13527568143E+03  0.16253616645E+03  0.76904300258E+02 0.  0.
          5    1    5    5  501    0  0.19778116862E+02  0.12979990328E+03  0.27742424063E+03  0.30696170460E+03  0.47000000000E+01 0. -1.
        -13    1    6    6    0    0  0.20090980627E+02  0.87230571692E+01  0.13088322943E+03  0.13270327417E+03  0.00000000000E+00 0.  1.
         14    1    6    6    0    0  0.26701118155E+02 -0.12560179794E+02  0.43924520018E+01  0.29832892279E+02  0.00000000000E+00 0. -1.
         -5    1    3    3    0  503 -0.79190489806E+02 -0.13404948728E+03  0.59114499212E+03  0.61132224762E+03  0.47000000000E+01 0.  1.
         13    1    4    4    0    0 -0.12143753610E+02  0.45043926086E+01  0.60287107653E+01  0.14286555148E+02  0.00000000000E+00 0. -1.
        -14    1    4    4    0    0  0.24764027772E+02  0.35823140202E+01  0.26667993361E+03  0.26785122183E+03  0.00000000000E+00 0.  1.
</event>
<event>
12    1  0.8313893E-002  0.1972659E+03  0.7818608E-02  0.1152199E+00
         21   -1    0    0  501  502  0.00000000000E+00  0.00000000000E+00  0.68179002034E+02  0.68179002034E+02  0.00000000000E+00 0. -1.
         21   -1    0    0  502  503 -0.00000000000E+00 -0.00000000000E+00 -0.62804743439E+03  0.62804743439E+03  0.00000000000E+00 0. -1.
         -6    2    1    2    0  503  0.38896663950E+02 -0.85729003747E+02 -0.38629451093E+03  0.43346845760E+03  0.17265295251E+03 0.  0.
        -24    2    3    3    0    0 -0.42562310509E+02 -0.61397518256E+02 -0.23454687582E+03  0.25946552524E+03  0.82029972026E+02 0.  0.
          6    2    1    2  501    0 -0.38896663950E+02  0.85729003747E+02 -0.17357392142E+03  0.26275797882E+03  0.17335350209E+03 0.  0.
         24    2    5    5    0    0  0.18257888229E+02  0.33563896792E+02 -0.19710018601E+02  0.90467434071E+02  0.79598907930E+02 0.  0.
          5    1    5    5  501    0 -0.57154552180E+02  0.52165106954E+02 -0.15386390282E+03  0.17229054475E+03  0.47000000000E+01 0. -1.
        -11    1    6    6    0    0 -0.12199744966E+02 -0.21870564005E+02 -0.57273598755E+01  0.25689647687E+02  0.00000000000E+00 0.  1.
         12    1    6    6    0    0  0.30457633195E+02  0.55434460797E+02 -0.13982658726E+02  0.64777786384E+02  0.00000000000E+00 0. -1.
         -5    1    3    3    0  503  0.81458974459E+02 -0.24331485491E+02 -0.15174763512E+03  0.17400293236E+03  0.47000000000E+01 0.  1.
         11    1    4    4    0    0  0.19331376939E+01  0.14822623551E+02 -0.80942300296E+02  0.82311014861E+02  0.00000000000E+00 0. -1.
        -12    1    4    4    0    0 -0.44495448203E+02 -0.76220141807E+02 -0.15360457552E+03  0.17715451038E+03  0.00000000000E+00 0.  1.
</event>
<event>
12    1  0.8313893E-002  0.3260605E+03  0.7818608E-02  0.1072903E+00
         21   -1    0    0  503  502  0.00000000000E+00  0.00000000000E+00  0.96242031377E+03  0.96242031377E+03  0.00000000000E+00 0.  1.
         21   -1    0    0  501  503 -0.00000000000E+00 -0.00000000000E+00 -0.43839290579E+03  0.43839290579E+03  0.00000000000E+00 0.  1.
          6    2    1    2  501    0 -0.18304375943E+02  0.27632934755E+03 -0.34377354860E+03  0.47380980729E+03  0.17211194691E+03 0.  0.
         24    2    3    3    0    0  0.17329693817E+02  0.20161848159E+03 -0.31911177889E+03  0.38731244718E+03  0.85019256097E+02 0.  0.
         -6    2    1    2    0  502  0.18304375943E+02 -0.27632934755E+03  0.86780095658E+03  0.92700341227E+03  0.17194146568E+03 0.  0.
        -24    2    5    5    0    0 -0.39538225272E+02 -0.18358657468E+03  0.67538577908E+03  0.70566051321E+03  0.80891950446E+02 0.  0.
          5    1    3    3  501    0 -0.35634069761E+02  0.74710865962E+02 -0.24661769708E+02  0.86497360108E+02  0.47000000000E+01 0. -1.
        -13    1    4    4    0    0  0.19444120291E+01  0.12007165259E+03 -0.11206610408E+03  0.16425527139E+03  0.00000000000E+00 0.  1.
         14    1    4    4    0    0  0.15385281788E+02  0.81546828998E+02 -0.20704567481E+03  0.22305717579E+03  0.00000000000E+00 0. -1.
         -5    1    5    5    0  502  0.57842601215E+02 -0.92742772873E+02  0.19241517749E+03  0.22134289906E+03  0.47000000000E+01 0.  1.
         13    1    6    6    0    0  0.21190288420E+02 -0.17116737735E+02  0.94585794371E+02  0.98430094639E+02  0.00000000000E+00 0. -1.
        -14    1    6    6    0    0 -0.60728513692E+02 -0.16646983695E+03  0.58079998471E+03  0.60723041857E+03  0.00000000000E+00 0.  1.
</event>
<event>
12    1  0.8313893E-002  0.1924595E+03  0.7818608E-02  0.1156722E+00
         21   -1    0    0  503  502  0.00000000000E+00  0.00000000000E+00  0.29899812037E+03  0.29899812037E+03  0.00000000000E+00 0.  1.
         21   -1    0    0  501  503 -0.00000000000E+00 -0.00000000000E+00 -0.23319809042E+03  0.23319809042E+03  0.00000000000E+00 0. -1.
          6    2    1    2  501    0 -0.34260316299E+01 -0.88988820565E+02 -0.15048211457E+03  0.24268177223E+03  0.16828198920E+03 0.  0.
         24    2    3    3    0    0 -0.55384473052E+02 -0.28531975416E+02 -0.62289390088E+02  0.12370800868E+03  0.86845781813E+02 0.  0.
         -6    2    1    2    0  502  0.34260316299E+01  0.88988820565E+02  0.21628214453E+03  0.28951443856E+03  0.17061622495E+03 0.  0.
        -24    2    5    5    0    0 -0.29462286090E+02  0.11864416197E+03  0.15090379147E+03  0.21041007860E+03  0.80969027564E+02 0.  0.
          5    1    3    3  501    0  0.51958441423E+02 -0.60456845149E+02 -0.88192724482E+02  0.11897376355E+03  0.47000000000E+01 0. -1.
        -11    1    4    4    0    0  0.77870970061E+01 -0.78631504437E+01  0.16975085126E+02  0.20263798502E+02  0.00000000000E+00 0.  1.
         12    1    4    4    0    0 -0.63171570059E+02 -0.20668824972E+02 -0.79264475214E+02  0.10344421018E+03  0.00000000000E+00 0. -1.
         -5    1    5    5    0  502  0.32888317720E+02 -0.29655341408E+02  0.65378353056E+02  0.79104359961E+02  0.47000000000E+01 0.  1.
         11    1    6    6    0    0 -0.14746047526E+02  0.33334519127E+02  0.14279384796E-01  0.36450463467E+02  0.00000000000E+00 0. -1.
        -12    1    6    6    0    0 -0.14716238564E+02  0.85309642846E+02  0.15088951208E+03  0.17395961513E+03  0.00000000000E+00 0.  1.
</event>
<event>
12    1  0.8313893E-002  0.2658056E+03  0.7818608E-02  0.1103935E+00
         21   -1    0    0  501  502  0.00000000000E+00  0.00000000000E+00  0.35488673030E+03  0.35488673030E+03  0.00000000000E+00 0. -1.
         21   -1    0    0  502  503 -0.00000000000E+00 -0.00000000000E+00 -0.29053119028E+03  0.29053119028E+03  0.00000000000E+00 0.  1.
         -6    2    1    2    0  503  0.12746351237E+03  0.15700123021E+03 -0.15009615985E+03  0.30388879328E+03  0.17006824574E+03 0.  0.
        -24    2    3    3    0    0  0.11058256667E+03  0.36418875946E+02 -0.61630847805E+02  0.15331232791E+03  0.78431306974E+02 0.  0.
          6    2    1    2  501    0 -0.12746351237E+03 -0.15700123021E+03  0.21445169986E+03  0.34152912730E+03  0.17250008682E+03 0.  0.
         24    2    5    5    0    0 -0.13563909052E+03 -0.11079974657E+03  0.99066807988E+02  0.21688090051E+03  0.80923085987E+02 0.  0.
          5    1    5    5  501    0  0.81755781591E+01 -0.46201483642E+02  0.11538489187E+03  0.12464822679E+03  0.47000000000E+01 0. -1.
        -13    1    6    6    0    0 -0.39601792903E+02 -0.92761456403E+00 -0.15243874081E+01  0.39641975567E+02  0.00000000000E+00 0.  1.
         14    1    6    6    0    0 -0.96037297621E+02 -0.10987213200E+03  0.10059119540E+03  0.17723892495E+03  0.00000000000E+00 0. -1.
         -5    1    3    3    0  503  0.16880945700E+02  0.12058235426E+03 -0.88465312042E+02  0.15057646537E+03  0.47000000000E+01 0.  1.
         11    1    4    4    0    0  0.33889380782E+02 -0.23535370079E+02 -0.29790445260E+02  0.50890808633E+02  0.00000000000E+00 0. -1.
        -12    1    4    4    0    0  0.76693185884E+02  0.59954246025E+02 -0.31840402545E+02  0.10242151928E+03  0.00000000000E+00 0.  1.
</event>
<event>
12    1  0.8313893E-002  0.1783940E+03  0.7818608E-02  0.1169677E+00
         21   -1    0    0  501  502  0.00000000000E+00  0.00000000000E+00  0.14247586309E+04  0.14247586309E+04  0.00000000000E+00 0.  1.
         21   -1    0    0  502  503 -0.00000000000E+00 -0.00000000000E+00 -0.10143281460E+03  0.10143281460E+03  0.00000000000E+00 0.  1.
         -6    2    1    2    0  503  0.64615125623E+01  0.43805760440E+02 -0.12351005467E+02  0.17882103321E+03  0.17281122299E+03 0.  0.
        -24    2    3    3    0    0 -0.45052556588E+02  0.16887484813E+02  0.42413268957E+02  0.98824104295E+02  0.75182432840E+02 0.  0.
          6    2    1    2  501    0 -0.64615125623E+01 -0.43805760440E+02  0.13356768218E+04  0.13473704123E+04  0.17150440205E+03 0.  0.
         24    2    5    5    0    0  0.50107605368E+02 -0.74767028449E+01  0.50143561639E+03  0.51041142627E+03  0.80718482920E+02 0.  0.
          5    1    5    5  501    0 -0.56569117930E+02 -0.36329057595E+02  0.83424120542E+03  0.83695898606E+03  0.47000000000E+01 0. -1.
        -11    1    6    6    0    0 -0.14369739137E+02 -0.31969885601E+01  0.26188010799E+03  0.26229353995E+03  0.00000000000E+00 0.  1.
         12    1    6    6    0    0  0.64477344505E+02 -0.42797142848E+01  0.23955550840E+03  0.24811788632E+03  0.00000000000E+00 0. -1.
         -5    1    3    3    0  503  0.51514069150E+02  0.26918275627E+02 -0.54764274424E+02  0.79996928918E+02  0.47000000000E+01 0.  1.
         13    1    4    4    0    0 -0.28756051720E+02 -0.17130809931E+02 -0.93702876463E+01  0.34758847075E+02  0.00000000000E+00 0. -1.
        -14    1    4    4    0    0 -0.16296504868E+02  0.34018294744E+02  0.51783556603E+02  0.64065257220E+02  0.00000000000E+00 0.  1.
</event>
<event>
12    1  0.8313893E-002  0.1886221E+03  0.7818608E-02  0.1159912E+00
         21   -1    0    0  503  502  0.00000000000E+00  0.00000000000E+00  0.31626674128E+03  0.31626674128E+03  0.00000000000E+00 0.  1.
         21   -1    0    0  501  503 -0.00000000000E+00 -0.00000000000E+00 -0.18946534004E+03  0.18946534004E+03  0.00000000000E+00 0.  1.
          6    2    1    2  501    0 -0.38192922829E+02  0.66558328467E+02 -0.98409683160E+02  0.21196629829E+03  0.17133748985E+03 0.  0.
         24    2    3    3    0    0 -0.40628025210E+02  0.19863502150E+02 -0.12692786811E+03  0.15699618458E+03  0.80572471235E+02 0.  0.
         -6    2    1    2    0  502  0.38192922829E+02 -0.66558328467E+02  0.22521108440E+03  0.29376578304E+03  0.17230668096E+03 0.  0.
        -24    2    5    5    0    0 -0.26662465973E+02  0.10205688998E+02  0.74671703401E+02  0.11270465782E+03  0.79444530492E+02 0.  0.
          5    1    3    3  501    0  0.24351023814E+01  0.46694826317E+02  0.28518184946E+02  0.54970113707E+02  0.47000000000E+01 0. -1.
        -11    1    4    4    0    0 -0.32751234458E+02 -0.19775206359E+02 -0.21048869210E+02  0.43666429212E+02  0.00000000000E+00 0.  1.
         12    1    4    4    0    0 -0.78767907519E+01  0.39638708509E+02 -0.10587899890E+03  0.11332975537E+03  0.00000000000E+00 0. -1.
         -5    1    5    5    0  502  0.64855388801E+02 -0.76764017465E+02  0.15053938100E+03  0.18106112522E+03  0.47000000000E+01 0.  1.
         11    1    6    6    0    0 -0.56696521509E+01  0.34235253098E+02  0.72911384382E+02  0.80748173247E+02  0.00000000000E+00 0. -1.
        -12    1    6    6    0    0 -0.20992813822E+02 -0.24029564100E+02  0.17603190181E+01  0.31956484569E+02  0.00000000000E+00 0.  1.
</event>
<event>
12    1  0.8313893E-002  0.2093541E+03  0.7818608E-02  0.1142508E+00
         21   -1    0    0  503  502  0.00000000000E+00  0.00000000000E+00  0.31531619722E+03  0.31531619722E+03  0.00000000000E+00 0.  1.
         21   -1    0    0  501  503 -0.00000000000E+00 -0.00000000000E+00 -0.14326913164E+03  0.14326913164E+03  0.00000000000E+00 0. -1.
          6    2    1    2  501    0  0.71841748646E+02  0.91668851506E+02  0.39889525057E+02  0.21100759436E+03  0.17137273845E+03 0.  0.
         24    2    3    3    0    0 -0.51675306101E+01  0.95562410954E+02  0.12516853954E+02  0.12905064212E+03  0.85665155338E+02 0.  0.
         -6    2    1    2    0  502 -0.71841748646E+02 -0.91668851506E+02  0.13215754052E+03  0.24757773450E+03  0.17396753697E+03 0.  0.
        -24    2    5    5    0    0 -0.11668989785E+03 -0.62919696682E+02  0.11196775423E+03  0.19041491563E+03  0.78394142761E+02 0.  0.
          5    1    3    3  501    0  0.77009279256E+02 -0.38935594476E+01  0.27372671103E+02  0.81956952238E+02  0.47000000000E+01 0. -1.
        -13    1    4    4    0    0  0.34486913754E+02  0.75558051765E+02  0.15680349710E+02  0.84523604832E+02  0.00000000000E+00 0.  1.
         14    1    4    4    0    0 -0.39654444364E+02  0.20004359189E+02 -0.31634957558E+01  0.44527037289E+02  0.00000000000E+00 0. -1.
         -5    1    5    5    0  502  0.44848149202E+02 -0.28749154824E+02  0.20189786292E+02  0.57162818864E+02  0.47000000000E+01 0.  1.
         13    1    6    6    0    0 -0.43717947830E+02 -0.28234895758E+02 -0.36437775984E+00  0.52044222274E+02  0.00000000000E+00 0. -1.
        -14    1    6    6    0    0 -0.72971950019E+02 -0.34684800924E+02  0.11233213199E+03  0.13837069336E+03  0.00000000000E+00 0.  1.
</event>
<event>
12    1  0.8313893E-002  0.1992894E+03  0.7818608E-02  0.1150979E+00
         21   -1    0    0  501  502  0.00000000000E+00  0.00000000000E+00  0.35411685523E+03  0.35411685523E+03  0.00000000000E+00 0.  1.
         21   -1    0    0  502  503 -0.00000000000E+00 -0.00000000000E+00 -0.13637724695E+03  0.13637724695E+03  0.00000000000E+00 0.  1.
         -6    2    1    2    0  503  0.29012101197E+02  0.89990475653E+02  0.13327992767E+01  0.19630338405E+03  0.17202690055E+03 0.  0.
        -24    2    3    3    0    0 -0.12981628899E+02  0.15785663797E+02 -0.50230645078E+02  0.96550157220E+02  0.79881820735E+02 0.  0.
          6    2    1    2  501    0 -0.29012101197E+02 -0.89990475653E+02  0.21640680900E+03  0.29419071812E+03  0.17543170730E+03 0.  0.
         24    2    5    5    0    0  0.14897642175E+02  0.73079080614E+00  0.43248090553E+02  0.93780025985E+02  0.81864657452E+02 0.  0.
          5    1    5    5  501    0 -0.43909743371E+02 -0.90721266460E+02  0.17315871844E+03  0.20041069214E+03  0.47000000000E+01 0. -1.
        -13    1    6    6    0    0 -0.32910996673E+02  0.16345591532E+00  0.29066218984E+02  0.43909059496E+02  0.00000000000E+00 0.  1.
         14    1    6    6    0    0  0.47808638848E+02  0.56733489083E+00  0.14181871569E+02  0.49870966489E+02  0.00000000000E+00 0. -1.
         -5    1    3    3    0  503  0.41993730096E+02  0.74204811857E+02  0.51563444355E+02  0.99753226834E+02  0.47000000000E+01 0.  1.
         13    1    4    4    0    0 -0.15527484775E+02  0.35786528707E+02 -0.61964980120E+02  0.73221835416E+02  0.00000000000E+00 0. -1.
        -14    1    4    4    0    0  0.25458558759E+01 -0.20000864911E+02  0.11734335042E+02  0.23328321804E+02  0.00000000000E+00 0.  1.
</event>
<event>
12    1  0.8313893E-002  0.1867150E+03  0.7818608E-02  0.1161996E+00
         21   -1    0    0  503  502  0.00000000000E+00  0.00000000000E+00  0.19125293015E+04  0.19125293015E+04  0.00000000000E+00 0.  1.
         21   -1    0    0  501  503 -0.00000000000E+00 -0.00000000000E+00 -0.33728398019E+02  0.33728398019E+02  0.00000000000E+00 0.  1.
          6    2    1    2  501    0 -0.40752503383E+02  0.60210098084E+02  0.27806983830E+03  0.33494076950E+03  0.17197808483E+03 0.  0.
         24    2    3    3    0    0  0.27685013218E+02  0.75893199509E+02  0.16752003941E+03  0.20389497070E+03  0.83570077098E+02 0.  0.
         -6    2    1    2    0  502  0.40752503383E+02 -0.60210098084E+02  0.16007310652E+04  0.16113169300E+04  0.16945879577E+03 0.  0.
        -24    2    5    5    0    0  0.40822069776E+02 -0.10544322140E+03  0.12651478216E+04  0.12726663082E+04  0.79346122744E+02 0.  0.
          5    1    3    3  501    0 -0.68437516601E+02 -0.15683101425E+02  0.11054979889E+03  0.13104579880E+03  0.47000000000E+01 0. -1.
        -13    1    4    4    0    0 -0.26117454654E+00  0.70754004944E+02  0.15931379855E+03  0.17431891416E+03  0.00000000000E+00 0.  1.
         14    1    4    4    0    0  0.27946187764E+02  0.51391945646E+01  0.82062408607E+01  0.29576056539E+02  0.00000000000E+00 0. -1.
         -5    1    5    5    0  502 -0.69566392849E-01  0.45233123318E+02  0.33558324361E+03  0.33865062185E+03  0.47000000000E+01 0.  1.
         11    1    6    6    0    0 -0.24203862228E+01 -0.71044446801E+02  0.44332419289E+03  0.44898720660E+03  0.00000000000E+00 0. -1.
        -12    1    6    6    0    0  0.43242455999E+02 -0.34398774602E+02  0.82182362868E+03  0.82367910156E+03  0.00000000000E+00 0.  1.
</event>
<event>
12    1  0.8313893E-002  0.1949344E+03  0.7818608E-02  0.1154403E+00
         21   -1    0    0  501  502  0.00000000000E+00  0.00000000000E+00  0.83317537389E+03  0.83317537389E+03  0.00000000000E+00 0.  1.
         21   -1    0    0  502  503 -0.00000000000E+00 -0.00000000000E+00 -0.56034635092E+02  0.56034635092E+02  0.00000000000E+00 0.  1.
         -6    2    1    2    0  503 -0.13273555160E+02  0.89236006209E+02  0.19251209620E+03  0.27293891362E+03  0.17115925717E+03 0.  0.
        -24    2    3    3    0    0  0.32592985887E+02  0.80093162902E+02  0.59591036974E+02  0.13195157676E+03  0.79893112644E+02 0.  0.
          6    2    1    2  501    0  0.13273555160E+02 -0.89236006209E+02  0.58462864260E+03  0.61627109536E+03  0.17280092928E+03 0.  0.
         24    2    5    5    0    0  0.36504054559E+02  0.12874848686E+02  0.23116375265E+03  0.24758993064E+03  0.79785872742E+02 0.  0.
          5    1    5    5  501    0 -0.23230499399E+02 -0.10211085490E+03  0.35346488996E+03  0.36868116472E+03  0.47000000000E+01 0. -1.
        -13    1    6    6    0    0 -0.17281180532E+02 -0.15988783909E+02  0.35266089930E+02  0.42402564904E+02  0.00000000000E+00 0.  1.
         14    1    6    6    0    0  0.53785235091E+02  0.28863632595E+02  0.19589766272E+03  0.20518736574E+03  0.00000000000E+00 0. -1.
         -5    1    3    3    0  503 -0.45866541047E+02  0.91428433076E+01  0.13292105922E+03  0.14098733687E+03  0.47000000000E+01 0.  1.
         13    1    4    4    0    0 -0.23445096134E+02  0.43054259602E+02  0.35746382119E+02  0.60672445452E+02  0.00000000000E+00 0. -1.
        -14    1    4    4    0    0  0.56038082020E+02  0.37038903300E+02  0.23844654856E+02  0.71279131304E+02  0.00000000000E+00 0.  1.
</event>
<event>
12    1  0.8313893E-002  0.1783614E+03  0.7818608E-02  0.1169466E+00
         21   -1    0    0  503  502  0.00000000000E+00  0.00000000000E+00  0.44559386885E+03  0.44559386885E+03  0.00000000000E+00 0.  1.
         21   -1    0    0  501  503 -0.00000000000E+00 -0.00000000000E+00 -0.14326472591E+03  0.14326472591E+03  0.00000000000E+00 0.  1.
          6    2    1    2  501    0 -0.44797368467E+02 -0.26094872557E+01 -0.57476188191E+02  0.18739347915E+03  0.17262441940E+03 0.  0.
         24    2    3    3    0    0 -0.51001585894E+02 -0.61379091831E+02 -0.56786179852E+02  0.12810667752E+03  0.82571762274E+02 0.  0.
         -6    2    1    2    0  502  0.44797368467E+02  0.26094872557E+01  0.35980533113E+03  0.40146511562E+03  0.17233905275E+03 0.  0.
        -24    2    5    5    0    0  0.22272562154E+02 -0.87776882970E+01  0.67844472443E+02  0.10837764118E+03  0.81053845251E+02 0.  0.
          5    1    3    3  501    0  0.62042174261E+01  0.58769604575E+02 -0.69000833898E+00  0.59286801628E+02  0.47000000000E+01 0. -1.
        -13    1    4    4    0    0  0.11537135338E+02 -0.21343847366E+02  0.11838466572E+02  0.26996566503E+02  0.00000000000E+00 0.  1.
         14    1    4    4    0    0 -0.62538721232E+02 -0.40035244465E+02 -0.68624646424E+02  0.10111011101E+03  0.00000000000E+00 0. -1.
         -5    1    5    5    0  502  0.22524806313E+02  0.11387175553E+02  0.29196085869E+03  0.29308747444E+03  0.47000000000E+01 0.  1.
         13    1    6    6    0    0  0.39313885585E+02 -0.33096829540E+02  0.57044111690E+02  0.76778984128E+02  0.00000000000E+00 0. -1.
        -14    1    6    6    0    0 -0.17041323431E+02  0.24319141243E+02  0.10800360753E+02  0.31598657051E+02  0.00000000000E+00 0.  1.
</event>
<event>
12    1  0.8313893E-002  0.2094103E+03  0.7818608E-02  0.1142138E+00
         21   -1    0    0  501  502  0.00000000000E+00  0.00000000000E+00  0.20179768520E+03  0.20179768520E+03  0.00000000000E+00 0. -1.
         21   -1    0    0  502  503 -0.00000000000E+00 -0.00000000000E+00 -0.23839753278E+03  0.23839753278E+03  0.00000000000E+00 0.  1.
         -6    2    1    2    0  503  0.11594215247E+03 -0.24447483380E+02 -0.84618715184E+02  0.22586060223E+03  0.17266274213E+03 0.  0.
        -24    2    3    3    0    0  0.19813158395E+02  0.33112822937E+02 -0.70338676754E+01  0.89495390656E+02  0.80442087030E+02 0.  0.
          6    2    1    2  501    0 -0.11594215247E+03  0.24447483380E+02  0.48018867600E+02  0.21433461575E+03  0.17202689818E+03 0.  0.
         24    2    5    5    0    0 -0.50386913711E+02 -0.55974138750E+02  0.24831952737E+02  0.10791633886E+03  0.73194023213E+02 0.  0.
          5    1    5    5  501    0 -0.65555238758E+02  0.80421622130E+02  0.23186914863E+02  0.10641827689E+03  0.47000000000E+01 0. -1.
        -11    1    6    6    0    0 -0.27480982226E+02 -0.27384021685E+02 -0.24936468775E+02  0.46118504992E+02  0.00000000000E+00 0.  1.
         12    1    6    6    0    0 -0.22905931485E+02 -0.28590117065E+02  0.49768421512E+02  0.61797833868E+02  0.00000000000E+00 0. -1.
         -5    1    3    3    0  503  0.96128994075E+02 -0.57560306317E+02 -0.77584847508E+02  0.13636521158E+03  0.47000000000E+01 0.  1.
         13    1    4    4    0    0  0.61954124124E+01 -0.11963451390E+02 -0.33055383595E+02  0.35695457537E+02  0.00000000000E+00 0. -1.
        -14    1    4    4    0    0  0.13617745982E+02  0.45076274328E+02  0.26021515920E+02  0.53799933120E+02  0.00000000000E+00 0.  1.
</event>
<event>
12    1  0.8313893E-002  0.2204351E+03  0.7818608E-02  0.1134171E+00
         21   -1    0    0  503  502  0.00000000000E+00  0.00000000000E+00  0.16750689094E+03  0.16750689094E+03  0.00000000000E+00 0. -1.
         21   -1    0    0  501  503 -0.00000000000E+00 -0.00000000000E+00 -0.36532349274E+03  0.36532349274E+03  0.00000000000E+00 0. -1.
          6    2    1    2  501    0  0.60700033452E+02 -0.12160477314E+03 -0.22377487357E+03  0.31411276357E+03  0.17354947215E+03 0.  0.
         24    2    3    3    0    0  0.89232694081E+02 -0.12933409464E+03 -0.14198066017E+03  0.22701374820E+03  0.81773787239E+02 0.  0.
         -6    2    1    2    0  502 -0.60700033452E+02  0.12160477314E+03  0.25958271770E+02  0.21871762011E+03  0.16938521352E+03 0.  0.
        -24    2    5    5    0    0 -0.12781979039E+02  0.94192956861E+01  0.52637107238E+02  0.93755339587E+02  0.75942718699E+02 0.  0.
          5    1    3    3  501    0 -0.28532660628E+02  0.77293214959E+01 -0.81794213400E+02  0.87099015373E+02  0.47000000000E+01 0. -1.
        -11    1    4    4    0    0  0.62657045653E+01 -0.25664766081E+02  0.71182435420E+01  0.27360713858E+02  0.00000000000E+00 0.  1.
         12    1    4    4    0    0  0.82966989515E+02 -0.10366932856E+03 -0.14909890371E+03  0.19965303434E+03  0.00000000000E+00 0. -1.
         -5    1    5    5    0  502 -0.47918054413E+02  0.11218547746E+03 -0.26678835468E+02  0.12496228052E+03  0.47000000000E+01 0.  1.
         13    1    6    6    0    0 -0.28220438262E+02  0.86169068145E+01  0.66650541251E+02  0.72889909232E+02  0.00000000000E+00 0. -1.
        -14    1    6    6    0    0  0.15438459222E+02  0.80238887163E+00 -0.14013434014E+02  0.20865430355E+02  0.00000000000E+00 0.  1.
</event>
<event>
12    1  0.8313893E-002  0.1778140E+03  0.7818608E-02  0.1170374E+00
         21   -1    0    0  503  502  0.00000000000E+00  0.00000000000E+00  0.12238220116E+04  0.12238220116E+04  0.00000000000E+00 0. -1.
         21   -1    0    0  501  503 -0.00000000000E+00 -0.00000000000E+00 -0.25579381798E+02  0.25579381798E+02  0.00000000000E+00 0.  1.
          6    2    1    2  501    0  0.36473919543E+02  0.85341692602E+01  0.60650090848E+03  0.63202941457E+03  0.17382361759E+03 0.  0.
         24    2    3    3    0    0  0.84518453762E+02  0.36419959961E+02  0.39238087022E+03  0.41077079807E+03  0.79373287168E+02 0.  0.
         -6    2    1    2    0  502 -0.36473919543E+02 -0.85341692602E+01  0.59174172129E+03  0.61737197880E+03  0.17200789704E+03 0.  0.
        -24    2    5    5    0    0 -0.55580351858E+02 -0.29338817651E+02  0.19779049789E+03  0.22238141491E+03  0.79890368043E+02 0.  0.
          5    1    3    3  501    0 -0.48044534220E+02 -0.27885790701E+02  0.21412003826E+03  0.22125861650E+03  0.47000000000E+01 0. -1.
        -11    1    4    4    0    0  0.43683660713E+02 -0.13564920998E+02  0.83396430044E+02  0.95116948222E+02  0.00000000000E+00 0.  1.
         12    1    4    4    0    0  0.40834793049E+02  0.49984880959E+02  0.30898444018E+03  0.31565384984E+03  0.00000000000E+00 0. -1.
         -5    1    5    5    0  502  0.19106432316E+02  0.20804648391E+02  0.39395122339E+03  0.39499056389E+03  0.47000000000E+01 0.  1.
         13    1    6    6    0    0  0.12576352608E+02 -0.28368792434E+02  0.41037213777E+02  0.51449061640E+02  0.00000000000E+00 0. -1.
        -14    1    6    6    0    0 -0.68156704466E+02 -0.97002521754E+00  0.15675328412E+03  0.17093235327E+03  0.00000000000E+00 0.  1.
</event>
<event>
12    1  0.8313893E-002  0.1839263E+03  0.7818608E-02  0.1164168E+00
         21   -1    0    0  503  502  0.00000000000E+00  0.00000000000E+00  0.16237362038E+03  0.16237362038E+03  0.00000000000E+00 0.  1.
         21   -1    0    0  501  503 -0.00000000000E+00 -0.00000000000E+00 -0.21212637282E+03  0.21212637282E+03  0.00000000000E+00 0.  1.
          6    2    1    2  501    0 -0.10144251133E+02 -0.63491478963E+02  0.18233939259E+01  0.18393535313E+03  0.17232183736E+03 0.  0.
         24    2    3    3    0    0 -0.15563410931E+02 -0.58469074128E+00  0.57046363387E+02  0.99921677731E+02  0.80544971797E+02 0.  0.
         -6    2    1    2    0  502  0.10144251133E+02  0.63491478963E+02 -0.51576146367E+02  0.19056464008E+03  0.17181591732E+03 0.  0.
        -24    2    5    5    0    0 -0.55501280898E+02  0.41253457552E+02 -0.58052563542E+02  0.12079430648E+03  0.80242908732E+02 0.  0.
          5    1    3    3  501    0  0.54191597982E+01 -0.62906788222E+02 -0.55222969461E+02  0.84013675395E+02  0.47000000000E+01 0. -1.
        -11    1    4    4    0    0  0.15603776420E+02 -0.32338143633E+02  0.35474665099E+02  0.50474599910E+02  0.00000000000E+00 0.  1.
         12    1    4    4    0    0 -0.31167187351E+02  0.31753452892E+02  0.21571698288E+02  0.49447077821E+02  0.00000000000E+00 0. -1.
         -5    1    5    5    0  502  0.65645532031E+02  0.22238021411E+02  0.64764171754E+01  0.69770333605E+02  0.47000000000E+01 0.  1.
         13    1    6    6    0    0 -0.10320687067E+02 -0.23161088430E+02 -0.24499632078E+02  0.35258822594E+02  0.00000000000E+00 0. -1.
        -14    1    6    6    0    0 -0.45180593831E+02  0.64414545982E+02 -0.33552931464E+02  0.85535483881E+02  0.00000000000E+00 0.  1.
</event>
<event>
12    1  0.8313893E-002  0.1852579E+03  0.7818608E-02  0.1162939E+00
         21   -1    0    0  503  502  0.00000000000E+00  0.00000000000E+00  0.13316426434E+03  0.13316426434E+03  0.00000000000E+00 0. -1.
         21   -1    0    0  501  503 -0.00000000000E+00 -0.00000000000E+00 -0.29807478955E+03  0.29807478955E+03  0.00000000000E+00 0. -1.
          6    2    1    2  501    0  0.65771906176E+02 -0.20177798963E+02 -0.24790261129E+01  0.18527444080E+03  0.17200984166E+03 0.  0.
         24    2    3    3    0    0  0.95244737807E+02  0.28513536804E+02 -0.91886740400E+01  0.12777136820E+03  0.79727717509E+02 0.  0.
         -6    2    1    2    0  502 -0.65771906176E+02  0.20177798963E+02 -0.16243149910E+03  0.24596461309E+03  0.17141036077E+03 0.  0.
        -24    2    5    5    0    0 -0.10046631221E+03  0.36639287664E+02 -0.15793228722E+03  0.20701573214E+03  0.80479741039E+02 0.  0.
          5    1    3    3  501    0 -0.29472831631E+02 -0.48691335767E+02  0.67096479271E+01  0.57503072600E+02  0.47000000000E+01 0. -1.
        -11    1    4    4    0    0  0.10998446400E+02 -0.14250395696E+02  0.21863689290E+02  0.28320672839E+02  0.00000000000E+00 0.  1.
         12    1    4    4    0    0  0.84246291407E+02  0.42763932499E+02 -0.31052363330E+02  0.99450695357E+02  0.00000000000E+00 0. -1.
         -5    1    5    5    0  502  0.34694406030E+02 -0.16461488700E+02 -0.44992118852E+01  0.38948880955E+02  0.47000000000E+01 0.  1.
         13    1    6    6    0    0 -0.86324259671E+02 -0.64542737101E+01 -0.11954925297E+03  0.14759932026E+03  0.00000000000E+00 0. -1.
        -14    1    6    6    0    0 -0.14142052535E+02  0.43093561374E+02 -0.38383034250E+02  0.59416411874E+02  0.00000000000E+00 0.  1.
</event>
<event>
12    1  0.8313893E-002  0.1727166E+03  0.7818608E-02  0.1175312E+00
         21   -1    0    0  503  502  0.00000000000E+00  0.00000000000E+00  0.27201717156E+04  0.27201717156E+04  0.00000000000E+00 0.  1.
         21   -1    0    0  501  503 -0.00000000000E+00 -0.00000000000E+00 -0.21092896255E+02  0.21092896255E+02  0.00000000000E+00 0.  1.
          6    2    1    2  501    0 -0.47554793247E+01 -0.12997502158E+02  0.39887469627E+03  0.43466312424E+03  0.17216114139E+03 0.  0.
         24    2    3    3    0    0  0.28370915187E+02 -0.44714851624E+02  0.12274245338E+03  0.15470874611E+03  0.77876565651E+02 0.  0.
         -6    2    1    2    0  502  0.47554793247E+01  0.12997502158E+02  0.23002041231E+04  0.23066014876E+04  0.17111360321E+03 0.  0.
        -24    2    5    5    0    0 -0.17784906446E+02  0.68396969815E+02  0.17721255397E+04  0.17751259470E+04  0.75158173366E+02 0.  0.
          5    1    3    3  501    0 -0.33126394512E+02  0.31717349466E+02  0.27613224288E+03  0.27995437812E+03  0.47000000000E+01 0. -1.
        -11    1    4    4    0    0  0.54646621910E+02 -0.31658199329E+02  0.69435784575E+02  0.93860657629E+02  0.00000000000E+00 0.  1.
         12    1    4    4    0    0 -0.26275706723E+02 -0.13056652295E+02  0.53306668808E+02  0.60848088485E+02  0.00000000000E+00 0. -1.
         -5    1    5    5    0  502  0.22540385770E+02 -0.55399467657E+02  0.52807858341E+03  0.53147554061E+03  0.47000000000E+01 0.  1.
         11    1    6    6    0    0  0.14324832063E+02  0.29213502364E+02  0.24385919171E+03  0.24602019209E+03  0.00000000000E+00 0. -1.
        -12    1    6    6    0    0 -0.32109738509E+02  0.39183467451E+02  0.15282663480E+04  0.15291057549E+04  0.00000000000E+00 0.  1.
</event>
<event>
12    1  0.8313893E-002  0.1752144E+03  0.7818608E-02  0.1175624E+00
         21   -1    0    0  501  502  0.00000000000E+00  0.00000000000E+00  0.35338602823E+03  0.35338602823E+03  0.00000000000E+00 0. -1.
         21   -1    0    0  502  503 -0.00000000000E+00 -0.00000000000E+00 -0.20875870553E+03  0.20875870553E+03  0.00000000000E+00 0. -1.
         -6    2    1    2    0  503  0.15562742248E+01 -0.34708614533E+02 -0.14845808151E+03  0.22067854617E+03  0.15953717079E+03 0.  0.
        -24    2    3    3    0    0  0.18480661039E-01 -0.47294385182E+02 -0.16951201866E+03  0.19565606226E+03  0.85499772032E+02 0.  0.
          6    2    1    2  501    0 -0.15562742248E+01  0.34708614533E+02  0.29308540421E+03  0.34146618759E+03  0.17173524157E+03 0.  0.
         24    2    5    5    0    0 -0.46528838190E+02 -0.23851643392E+02  0.12974636874E+03  0.16215203359E+03  0.82008097900E+02 0.  0.
          5    1    5    5  501    0  0.44972563965E+02  0.58560257925E+02  0.16333903547E+03  0.17931415400E+03  0.47000000000E+01 0. -1.
        -13    1    6    6    0    0 -0.14741667038E+02 -0.30855016775E+01 -0.95099365884E+01  0.17812241902E+02  0.00000000000E+00 0.  1.
         14    1    6    6    0    0 -0.31787171153E+02 -0.20766141714E+02  0.13925630533E+03  0.14433979169E+03  0.00000000000E+00 0. -1.
         -5    1    3    3    0  503  0.15377935638E+01  0.12585770648E+02  0.21053937149E+02  0.25022483916E+02  0.47000000000E+01 0.  1.
         13    1    4    4    0    0 -0.15087447514E+02 -0.38274540434E+02 -0.21158430547E+02  0.46262843635E+02  0.00000000000E+00 0. -1.
        -14    1    4    4    0    0  0.15105928175E+02 -0.90198447475E+01 -0.14835358811E+03  0.14939321862E+03  0.00000000000E+00 0.  1.
</event>
<event>
12    1  0.8313893E-002  0.1731797E+03  0.7818608E-02  0.1175143E+00
         21   -1    0    0  503  502  0.00000000000E+00  0.00000000000E+00  0.15943277230E+03  0.15943277230E+03  0.00000000000E+00 0.  1.
         21   -1    0    0  501  503 -0.00000000000E+00 -0.00000000000E+00 -0.31433959408E+03  0.31433959408E+03  0.00000000000E+00 0.  1.
          6    2    1    2  501    0  0.12305989712E+02  0.10149133337E+02 -0.22869624410E+03  0.28552765405E+03  0.17020466172E+03 0.  0.
         24    2    3    3    0    0  0.50083341523E+02 -0.28653322868E+02 -0.77212806972E+02  0.12458642055E+03  0.78934178999E+02 0.  0.
         -6    2    1    2    0  502 -0.12305989712E+02 -0.10149133337E+02  0.73789422313E+02  0.18824471233E+03  0.17244347070E+03 0.  0.
        -24    2    5    5    0    0 -0.47073976622E+02  0.44891128841E+02  0.39658873540E+02  0.11458856708E+03  0.85595214415E+02 0.  0.
          5    1    3    3  501    0 -0.37777351811E+02  0.38802456205E+02 -0.15148343713E+03  0.16094123350E+03  0.47000000000E+01 0. -1.
        -13    1    4    4    0    0  0.30195512284E+02 -0.97365463438E+01 -0.89171075346E+02  0.94646975520E+02  0.00000000000E+00 0.  1.
         14    1    4    4    0    0  0.19887829239E+02 -0.18916776524E+02  0.11958268374E+02  0.29939445025E+02  0.00000000000E+00 0. -1.
         -5    1    5    5    0  502  0.34767986911E+02 -0.55040262178E+02  0.34130548773E+02  0.73656145256E+02  0.47000000000E+01 0.  1.
         11    1    6    6    0    0 -0.32768953361E+02 -0.21533975715E+02  0.10109740554E+02  0.40493496620E+02  0.00000000000E+00 0. -1.
        -12    1    6    6    0    0 -0.14305023262E+02  0.66425104556E+02  0.29549132986E+02  0.74095070457E+02  0.00000000000E+00 0.  1.
</event>
<event>
12    1  0.8313893E-002  0.1957300E+03  0.7818608E-02  0.1153551E+00
         21   -1    0    0  503  502  0.00000000000E+00  0.00000000000E+00  0.45251004906E+03  0.45251004906E+03  0.00000000000E+00 0.  1.
         21   -1    0    0  501  503 -0.00000000000E+00 -0.00000000000E+00 -0.98209837048E+02  0.98209837048E+02  0.00000000000E+00 0.  1.
          6    2    1    2  501    0  0.70222935314E+02 -0.59702350105E+02  0.73413336838E+02  0.20836383086E+03  0.17184393133E+03 0.  0.
         24    2    3    3    0    0  0.40038812593E+02  0.31219060743E+02  0.22049266216E+02  0.99560604965E+02  0.82755106506E+02 0.  0.
         -6    2    1    2    0  502 -0.70222935314E+02  0.59702350105E+02  0.28088687518E+03  0.34235605525E+03  0.17266904953E+03 0.  0.
        -24    2    5    5    0    0  0.23715124589E+02  0.48820815618E+02  0.99446330207E+02  0.13769651296E+03  0.78261599250E+02 0.  0.
          5    1    3    3  501    0  0.30184122722E+02 -0.90921410848E+02  0.51364070622E+02  0.10880322590E+03  0.47000000000E+01 0. -1.
        -11    1    4    4    0    0 -0.13930091990E+02 -0.18419939374E+02  0.37010428543E+00  0.23097155811E+02  0.00000000000E+00 0.  1.
         12    1    4    4    0    0  0.53968904582E+02  0.49639000117E+02  0.21679161931E+02  0.76463449154E+02  0.00000000000E+00 0. -1.
         -5    1    5    5    0  502 -0.93938059904E+02  0.10881534487E+02  0.18144054497E+03  0.20465954229E+03  0.47000000000E+01 0.  1.
         11    1    6    6    0    0  0.44862564165E+02  0.38140003945E+02  0.97530359015E+02  0.11392752299E+03  0.00000000000E+00 0. -1.
        -12    1    6    6    0    0 -0.21147439576E+02  0.10680811673E+02  0.19159711920E+01  0.23768989970E+02  0.00000000000E+00 0.  1.
</event>
<event>
12    1  0.8313893E-002  0.1868749E+03  0.7818608E-02  0.1163335E+00
         21   -1    0    0  501  502  0.00000000000E+00  0.00000000000E+00  0.40268677068E+02  0.40268677068E+02  0.00000000000E+00 0. -1.
         21   -1    0    0  502  503 -0.00000000000E+00 -0.00000000000E+00 -0.15648503698E+04  0.15648503698E+04  0.00000000000E+00 0. -1.
         -6    2    1    2    0  503  0.45469430254E+02 -0.77907651327E+01 -0.13034949420E+04  0.13156340274E+04  0.17223723435E+03 0.  0.
        -24    2    3    3    0    0  0.83810361626E+02  0.28173930990E+02 -0.70724590826E+03  0.71705363454E+03  0.78429541267E+02 0.  0.
          6    2    1    2  501    0 -0.45469430254E+02  0.77907651327E+01 -0.22108675070E+03  0.28948501952E+03  0.18109130317E+03 0.  0.
         24    2    5    5    0    0  0.30315519367E+02  0.28318695805E+02 -0.18198595128E+03  0.20164586514E+03  0.76296718274E+02 0.  0.
          5    1    5    5  501    0 -0.75784949621E+02 -0.20527930672E+02 -0.39100799421E+02  0.87839154380E+02  0.47000000000E+01 0. -1.
        -11    1    6    6    0    0  0.18106774085E+02  0.45689002623E+02 -0.58756210450E+02  0.76600473203E+02  0.00000000000E+00 0.  1.
         12    1    6    6    0    0  0.12208745282E+02 -0.17370306818E+02 -0.12322974083E+03  0.12504539194E+03  0.00000000000E+00 0. -1.
         -5    1    3    3    0  503 -0.38340931372E+02 -0.35964696123E+02 -0.59624903378E+03  0.59858039282E+03  0.47000000000E+01 0.  1.
         13    1    4    4    0    0  0.61483546497E+02  0.74288872306E+00 -0.21727673354E+03  0.22580955984E+03  0.00000000000E+00 0. -1.
        -14    1    4    4    0    0  0.22326815129E+02  0.27431042267E+02 -0.48996917472E+03  0.49124407470E+03  0.00000000000E+00 0.  1.
</event>
<event>
12    1  0.8313893E-002  0.1761100E+03  0.7818608E-02  0.1171848E+00
         21   -1    0    0  501  502  0.00000000000E+00  0.00000000000E+00  0.10740052208E+03  0.10740052208E+03  0.00000000000E+00 0.  1.
         21   -1    0    0  502  503 -0.00000000000E+00 -0.00000000000E+00 -0.31432959040E+03  0.31432959040E+03  0.00000000000E+00 0. -1.
         -6    2    1    2    0  503  0.16825127401E+02  0.33268642906E+02 -0.16555549050E+03  0.24170922089E+03  0.17211867858E+03 0.  0.
        -24    2    3    3    0    0 -0.12625050256E+02  0.23173842479E+02 -0.18621579542E+03  0.20405080670E+03  0.79145375000E+02 0.  0.
          6    2    1    2  501    0 -0.16825127401E+02 -0.33268642906E+02 -0.41373577827E+02  0.18002089159E+03  0.17118954685E+03 0.  0.
         24    2    5    5    0    0 -0.73051045867E+02 -0.36551691166E+02 -0.41205400320E+02  0.12350318996E+03  0.82961867662E+02 0.  0.
          5    1    5    5  501    0  0.56225918465E+02  0.32830482599E+01 -0.16817750711E+00  0.56517701624E+02  0.47000000000E+01 0. -1.
        -13    1    6    6    0    0 -0.32038494145E+02 -0.49826907971E+02  0.60418285430E+01  0.59545693020E+02  0.00000000000E+00 0.  1.
         14    1    6    6    0    0 -0.41012551722E+02  0.13275216805E+02 -0.47247228863E+02  0.63957496943E+02  0.00000000000E+00 0. -1.
         -5    1    3    3    0  503  0.29450177658E+02  0.10094800428E+02  0.20660304919E+02  0.37658414187E+02  0.47000000000E+01 0.  1.
         13    1    4    4    0    0  0.58263346379E+01 -0.15592843238E+02 -0.13993743049E+03  0.14092397733E+03  0.00000000000E+00 0. -1.
        -14    1    4    4    0    0 -0.18451384894E+02  0.38766685716E+02 -0.46278364933E+02  0.63126829374E+02  0.00000000000E+00 0.  1.
</event>
<event>
12    1  0.8313893E-002  0.1890839E+03  0.7818608E-02  0.1159471E+00
         21   -1    0    0  503  502  0.00000000000E+00  0.00000000000E+00  0.27329596515E+03  0.27329596515E+03  0.00000000000E+00 0. -1.
         21   -1    0    0  501  503 -0.00000000000E+00 -0.00000000000E+00 -0.14139883081E+03  0.14139883081E+03  0.00000000000E+00 0.  1.
          6    2    1    2  501    0  0.30060828282E+02  0.71968105055E+02  0.79088596823E+01  0.18924924463E+03  0.17224884612E+03 0.  0.
         24    2    3    3    0    0  0.26822424318E+02  0.64225850029E+02 -0.59931425426E+02  0.12073045847E+03  0.78356018218E+02 0.  0.
         -6    2    1    2    0  502 -0.30060828282E+02 -0.71968105055E+02  0.12398827466E+03  0.22544555132E+03  0.17137544403E+03 0.  0.
        -24    2    5    5    0    0 -0.74254411523E+02 -0.83529603187E+02  0.67408296122E+02  0.15257494675E+03  0.79021033602E+02 0.  0.
          5    1    3    3  501    0  0.32384039643E+01  0.77422550268E+01  0.67840285109E+02  0.68518786159E+02  0.47000000000E+01 0. -1.
        -13    1    4    4    0    0  0.16078012904E+02 -0.14365203798E+02 -0.41796830469E+00  0.21564699781E+02  0.00000000000E+00 0.  1.
         14    1    4    4    0    0  0.10744411414E+02  0.78591053827E+02 -0.59513457122E+02  0.99165758691E+02  0.00000000000E+00 0. -1.
         -5    1    5    5    0  502  0.44193583241E+02  0.11561498132E+02  0.56579978538E+02  0.72870604568E+02  0.47000000000E+01 0.  1.
         11    1    6    6    0    0 -0.72203065839E+02 -0.25426100894E+02  0.51626767687E+02  0.92331427288E+02  0.00000000000E+00 0. -1.
        -12    1    6    6    0    0 -0.20513456839E+01 -0.58103502293E+02  0.15781528435E+02  0.60243519466E+02  0.00000000000E+00 0.  1.
</event>
<event>
12    1  0.8313893E-002  0.1977832E+03  0.7818608E-02  0.1151700E+00
         21   -1    0    0  501  502  0.00000000000E+00  0.00000000000E+00  0.29085298380E+03  0.29085298380E+03  0.00000000000E+00 0. -1.
         21   -1    0    0  502  503 -0.00000000000E+00 -0.00000000000E+00 -0.70506116299E+03  0.70506116299E+03  0.00000000000E+00 0. -1.
         -6    2    1    2    0  503  0.75622878462E+02  0.62599548325E+02 -0.65511651842E+03  0.68421713496E+03  0.17128313363E+03 0.  0.
        -24    2    3    3    0    0  0.44845072801E+02  0.48089012953E+02 -0.17605688876E+03  0.20392758923E+03  0.79163121784E+02 0.  0.
          6    2    1    2  501    0 -0.75622878462E+02 -0.62599548325E+02  0.24090833923E+03  0.31169701183E+03  0.17169937704E+03 0.  0.
         24    2    5    5    0    0 -0.90571531462E+02  0.11839540403E+02  0.14294666990E+03  0.18766790712E+03  0.80262792746E+02 0.  0.
          5    1    5    5  501    0  0.14948653000E+02 -0.74439088728E+02  0.97961669338E+02  0.12402910472E+03  0.47000000000E+01 0. -1.
        -13    1    6    6    0    0 -0.35808582808E+02 -0.22653282907E+02  0.10358851344E+03  0.11191964057E+03  0.00000000000E+00 0.  1.
         14    1    6    6    0    0 -0.54762948654E+02  0.34492823310E+02  0.39358156458E+02  0.75748266547E+02  0.00000000000E+00 0. -1.
         -5    1    3    3    0  503  0.30777805661E+02  0.14510535372E+02 -0.47905962966E+03  0.48028954572E+03  0.47000000000E+01 0.  1.
         11    1    4    4    0    0  0.11639487753E+02 -0.36800492169E+01 -0.12028416767E+03  0.12090203236E+03  0.00000000000E+00 0. -1.
        -12    1    4    4    0    0  0.33205585048E+02  0.51769062170E+02 -0.55772721089E+02  0.83025556873E+02  0.00000000000E+00 0.  1.
</event>
<event>
12    1  0.8313893E-002  0.1944325E+03  0.7818608E-02  0.1154600E+00
         21   -1    0    0  503  502  0.00000000000E+00  0.00000000000E+00  0.57395035392E+03  0.57395035392E+03  0.00000000000E+00 0. -1.
         21   -1    0    0  501  503 -0.00000000000E+00 -0.00000000000E+00 -0.71450941214E+02  0.71450941214E+02  0.00000000000E+00 0. -1.
          6    2    1    2  501    0  0.42390627869E+02 -0.79514822764E+02  0.16028774140E+03  0.25198440823E+03  0.17229164106E+03 0.  0.
         24    2    3    3    0    0  0.77159525569E+02 -0.15796801917E+02  0.13172317500E+03  0.17383783517E+03  0.81642309910E+02 0.  0.
         -6    2    1    2    0  502 -0.42390627869E+02  0.79514822764E+02  0.34221167131E+03  0.39341688690E+03  0.17189661588E+03 0.  0.
        -24    2    5    5    0    0 -0.27408022621E+02 -0.36222862233E+00  0.70562099052E+02  0.10983197562E+03  0.79578402429E+02 0.  0.
          5    1    3    3  501    0 -0.34768897700E+02 -0.63718020847E+02  0.28564566402E+02  0.78146573064E+02  0.47000000000E+01 0. -1.
        -11    1    4    4    0    0  0.33120898897E+02  0.27640961074E+02  0.88258776451E+02  0.98237611399E+02  0.00000000000E+00 0.  1.
         12    1    4    4    0    0  0.44038626672E+02 -0.43437762991E+02  0.43464398547E+02  0.75600223768E+02  0.00000000000E+00 0. -1.
         -5    1    5    5    0  502 -0.14982605249E+02  0.79877051387E+02  0.27164957226E+03  0.28358491128E+03  0.47000000000E+01 0.  1.
         13    1    6    6    0    0 -0.24439451773E+02  0.37208066324E+02  0.49828738595E+02  0.66817888268E+02  0.00000000000E+00 0. -1.
        -14    1    6    6    0    0 -0.29685708475E+01 -0.37570294946E+02  0.20733360456E+02  0.43014087356E+02  0.00000000000E+00 0.  1.
</event>
<event>
12    1  0.8313893E-002  0.2101808E+03  0.7818608E-02  0.1141611E+00
         21   -1    0    0  503  502  0.00000000000E+00  0.00000000000E+00  0.12880186911E+04  0.12880186911E+04  0.00000000000E+00 0.  1.
         21   -1    0    0  501  503 -0.00000000000E+00 -0.00000000000E+00 -0.97979085958E+02  0.97979085958E+02  0.00000000000E+00 0.  1.
          6    2    1    2  501    0  0.30526818304E+00  0.12047226255E+03  0.36119174537E+02  0.21326173855E+03  0.17222750979E+03 0.  0.
         24    2    3    3    0    0 -0.53039211623E+02  0.25369101056E+02  0.42303615524E+01  0.99554961066E+02  0.80228081468E+02 0.  0.
         -6    2    1    2    0  502 -0.30526818304E+00 -0.12047226255E+03  0.11539204306E+04  0.11727360385E+04  0.17106664377E+03 0.  0.
        -24    2    5    5    0    0 -0.55832189375E+02 -0.34730332598E+02  0.48051054085E+03  0.49160617780E+03  0.80391696133E+02 0.  0.
          5    1    3    3  501    0  0.53344479806E+02  0.95103161498E+02  0.31888812984E+02  0.11370677749E+03  0.47000000000E+01 0. -1.
        -11    1    4    4    0    0  0.35601519039E+01  0.28697739024E+02  0.25936263741E+02  0.38844879760E+02  0.00000000000E+00 0.  1.
         12    1    4    4    0    0 -0.56599363527E+02 -0.33286379685E+01 -0.21705902189E+02  0.60710081307E+02  0.00000000000E+00 0. -1.
         -5    1    5    5    0  502  0.55526921192E+02 -0.85741929956E+02  0.67340988978E+03  0.68112986073E+03  0.47000000000E+01 0.  1.
         11    1    6    6    0    0 -0.19577501488E+02  0.23561931204E+02  0.89041553512E+02  0.94163907196E+02  0.00000000000E+00 0. -1.
        -12    1    6    6    0    0 -0.36254687887E+02 -0.58292263801E+02  0.39146898734E+03  0.39744227060E+03  0.00000000000E+00 0.  1.
</event>
<event>
12    1  0.8313893E-002  0.1959505E+03  0.7818608E-02  0.1153326E+00
         21   -1    0    0  503  502  0.00000000000E+00  0.00000000000E+00  0.30196504144E+03  0.30196504144E+03  0.00000000000E+00 0.  1.
         21   -1    0    0  501  503 -0.00000000000E+00 -0.00000000000E+00 -0.18353600034E+03  0.18353600034E+03  0.00000000000E+00 0.  1.
          6    2    1    2  501    0  0.80280983777E+02  0.46915402690E+02 -0.75711567439E+02  0.21006867920E+03  0.17248338230E+03 0.  0.
         24    2    3    3    0    0  0.31818045067E+02  0.64795012969E+02 -0.10515333096E+03  0.15042604066E+03  0.79749539178E+02 0.  0.
         -6    2    1    2    0  502 -0.80280983777E+02 -0.46915402690E+02  0.19414060855E+03  0.27543236258E+03  0.17183224116E+03 0.  0.
        -24    2    5    5    0    0 -0.62916725427E+02 -0.34975563395E+02  0.21814052312E+03  0.24314981110E+03  0.79716613296E+02 0.  0.
          5    1    3    3  501    0  0.48462938710E+02 -0.17879610279E+02  0.29441763523E+02  0.59642638535E+02  0.47000000000E+01 0. -1.
        -11    1    4    4    0    0  0.13657687873E+02  0.52189770475E+02 -0.12774626710E+02  0.55439116766E+02  0.00000000000E+00 0.  1.
         12    1    4    4    0    0  0.18160357194E+02  0.12605242495E+02 -0.92378704252E+02  0.94986923896E+02  0.00000000000E+00 0. -1.
         -5    1    5    5    0  502 -0.17364258350E+02 -0.11939839295E+02 -0.23999914577E+02  0.32282551481E+02  0.47000000000E+01 0.  1.
         11    1    6    6    0    0  0.23274029755E+01  0.20721276768E+02  0.55201075907E+02  0.59008024004E+02  0.00000000000E+00 0. -1.
        -12    1    6    6    0    0 -0.65244128403E+02 -0.55696840164E+02  0.16293944722E+03  0.18414178709E+03  0.00000000000E+00 0.  1.
</event>
<event>
12    1  0.8313893E-002  0.1754695E+03  0.7818608E-02  0.1172369E+00
         21   -1    0    0  501  502  0.00000000000E+00  0.00000000000E+00  0.14323728478E+03  0.14323728478E+03  0.00000000000E+00 0.  1.
         21   -1    0    0  502  503 -0.00000000000E+00 -0.00000000000E+00 -0.23805222962E+03  0.23805222962E+03  0.00000000000E+00 0.  1.
         -6    2    1    2    0  503 -0.69443194424E+01  0.31570408084E+02 -0.10741179921E+03  0.20536842911E+03  0.17202901739E+03 0.  0.
        -24    2    3    3    0    0  0.56369316362E+02  0.16017669894E+02 -0.27078911102E+02  0.10180218434E+03  0.78716908815E+02 0.  0.
          6    2    1    2  501    0  0.69443194424E+01 -0.31570408084E+02  0.12596854374E+02  0.17592108530E+03  0.17246632504E+03 0.  0.
         24    2    5    5    0    0 -0.31385345811E+02  0.42854041111E+01 -0.47747794886E+02  0.95806360052E+02  0.76782824186E+02 0.  0.
          5    1    5    5  501    0  0.38329665253E+02 -0.35855812195E+02  0.60344649260E+02  0.80114725244E+02  0.47000000000E+01 0. -1.
        -13    1    6    6    0    0  0.17654164860E-01 -0.33650661928E+02 -0.22339880465E+02  0.40391058652E+02  0.00000000000E+00 0.  1.
         14    1    6    6    0    0 -0.31402999976E+02  0.37936066039E+02 -0.25407914422E+02  0.55415301400E+02  0.00000000000E+00 0. -1.
         -5    1    3    3    0  503 -0.63313635804E+02  0.15552738189E+02 -0.80332888108E+02  0.10356624477E+03  0.47000000000E+01 0.  1.
         13    1    4    4    0    0 -0.23892667879E+01 -0.19535360970E+02 -0.26642422508E+02  0.33123369411E+02  0.00000000000E+00 0. -1.
        -14    1    4    4    0    0  0.58758583150E+02  0.35553030865E+02 -0.43648859380E+00  0.68678814927E+02  0.00000000000E+00 0.  1.
</event>
<event>
12    1  0.8313893E-002  0.2023731E+03  0.7818608E-02  0.1147812E+00
         21   -1    0    0  503  502  0.00000000000E+00  0.00000000000E+00  0.36503753510E+03  0.36503753510E+03  0.00000000000E+00 0.  1.
         21   -1    0    0  501  503 -0.00000000000E+00 -0.00000000000E+00 -0.11933154325E+03  0.11933154325E+03  0.00000000000E+00 0. -1.
          6    2    1    2  501    0  0.10536608361E+03 -0.17281301667E+02  0.63041448896E+02  0.21196486819E+03  0.17191342619E+03 0.  0.
         24    2    3    3    0    0  0.66249096848E+02  0.11460113845E+02  0.10486786736E+03  0.14771732426E+03  0.79390561402E+02 0.  0.
         -6    2    1    2    0  502 -0.10536608361E+03  0.17281301667E+02  0.18266454296E+03  0.27240421016E+03  0.17157232731E+03 0.  0.
        -24    2    5    5    0    0 -0.55783222180E+02  0.67445556459E+02  0.64111943418E+02  0.13437623668E+03  0.79284050932E+02 0.  0.
          5    1    3    3  501    0  0.39116986766E+02 -0.28741415512E+02 -0.41826418464E+02  0.64247543928E+02  0.47000000000E+01 0. -1.
        -11    1    4    4    0    0  0.42179415691E+02  0.30241032553E+02  0.16868692431E+02  0.54572666622E+02  0.00000000000E+00 0.  1.
         12    1    4    4    0    0  0.24069681157E+02 -0.18780918707E+02  0.87999174929E+02  0.93144657639E+02  0.00000000000E+00 0. -1.
         -5    1    5    5    0  502 -0.49582861434E+02 -0.50164254792E+02  0.11855259954E+03  0.13802797348E+03  0.47000000000E+01 0.  1.
         13    1    6    6    0    0  0.83553293440E+01 -0.46889089469E+01 -0.91101674180E+01  0.13220913204E+02  0.00000000000E+00 0. -1.
        -14    1    6    6    0    0 -0.64138551524E+02  0.72134465405E+02  0.73222110836E+02  0.12115532347E+03  0.00000000000E+00 0.  1.
</event>
<event>
12    1  0.8313893E-002  0.2773408E+03  0.7818608E-02  0.1097432E+00
         21   -1    0    0  501  502  0.00000000000E+00  0.00000000000E+00  0.14778909187E+04  0.14778909187E+04  0.00000000000E+00 0.  1.
         21   -1    0    0  502  503 -0.00000000000E+00 -0.00000000000E+00 -0.40638437609E+03  0.40638437609E+03  0.00000000000E+00 0. -1.
         -6    2    1    2    0  503 -0.14067847979E+03  0.16590196765E+03 -0.34420925715E+03  0.44203838509E+03  0.17205819842E+03 0.  0.
        -24    2    3    3    0    0 -0.13335195038E+03  0.15497678195E+03 -0.35989872120E+03  0.42103155292E+03  0.77070963535E+02 0.  0.
          6    2    1    2  501    0  0.14067847979E+03 -0.16590196765E+03  0.14157157998E+04  0.14422369097E+04  0.16876664494E+03 0.  0.
         24    2    5    5    0    0  0.11083110880E+03 -0.11145027909E+03  0.64390821607E+03  0.66792115486E+03  0.82438941031E+02 0.  0.
          5    1    5    5  501    0  0.29847370993E+02 -0.54451688560E+02  0.77180758373E+03  0.77431575487E+03  0.47000000000E+01 0. -1.
        -13    1    6    6    0    0  0.66540718905E+01 -0.23112716720E+02  0.24699998302E+03  0.24816822109E+03  0.00000000000E+00 0.  1.
         14    1    6    6    0    0  0.10417703691E+03 -0.88337562371E+02  0.39690823305E+03  0.41975293377E+03  0.00000000000E+00 0. -1.
         -5    1    3    3    0  503 -0.73265294111E+01  0.10925185706E+02  0.15689464050E+02  0.21006832176E+02  0.47000000000E+01 0.  1.
         13    1    4    4    0    0 -0.92024888487E+02  0.15037441875E+03 -0.27815732983E+03  0.32932134163E+03  0.00000000000E+00 0. -1.
        -14    1    4    4    0    0 -0.41327061896E+02  0.46023631983E+01 -0.81741391363E+02  0.91710211285E+02  0.00000000000E+00 0.  1.
</event>
<event>
12    1  0.8313893E-002  0.2267816E+03  0.7818608E-02  0.1131017E+00
         21   -1    0    0  501  502  0.00000000000E+00  0.00000000000E+00  0.47701743638E+02  0.47701743638E+02  0.00000000000E+00 0.  1.
         21   -1    0    0  502  503 -0.00000000000E+00 -0.00000000000E+00 -0.11791542228E+04  0.11791542228E+04  0.00000000000E+00 0.  1.
         -6    2    1    2    0  503  0.12311268664E+03  0.49028439862E+02 -0.80019718788E+03  0.83171235726E+03  0.18403636655E+03 0.  0.
        -24    2    3    3    0    0  0.10198275074E+03  0.99861993964E+02 -0.48276172463E+03  0.50950452412E+03  0.78505273983E+02 0.  0.
          6    2    1    2  501    0 -0.12311268664E+03 -0.49028439862E+02 -0.33125529133E+03  0.39514360922E+03  0.16984664361E+03 0.  0.
         24    2    5    5    0    0 -0.12922659553E+03 -0.86891988087E+02 -0.29108369957E+03  0.33940426090E+03  0.78840354997E+02 0.  0.
          5    1    5    5  501    0  0.61139088973E+01  0.37863548225E+02 -0.40171591764E+02  0.55739348319E+02  0.47000000000E+01 0. -1.
        -13    1    6    6    0    0 -0.42176035486E+02 -0.63332648819E+02 -0.82898243562E+02  0.11252538008E+03  0.00000000000E+00 0.  1.
         14    1    6    6    0    0 -0.87050560048E+02 -0.23559339269E+02 -0.20818545601E+03  0.22687888082E+03  0.00000000000E+00 0. -1.
         -5    1    3    3    0  503  0.21129935896E+02 -0.50833554102E+02 -0.31743546325E+03  0.32220783314E+03  0.47000000000E+01 0.  1.
         11    1    4    4    0    0  0.50079653799E+02  0.97731837024E+02 -0.29845511666E+03  0.31801720135E+03  0.00000000000E+00 0. -1.
        -12    1    4    4    0    0  0.51903096941E+02  0.21301569405E+01 -0.18430660797E+03  0.19148732277E+03  0.00000000000E+00 0.  1.
</event>
<event>
12    1  0.8313893E-002  0.1787866E+03  0.7818608E-02  0.1169983E+00
         21   -1    0    0  501  502  0.00000000000E+00  0.00000000000E+00  0.38843939091E+02  0.38843939091E+02  0.00000000000E+00 0.  1.
         21   -1    0    0  502  503 -0.00000000000E+00 -0.00000000000E+00 -0.80685864887E+03  0.80685864887E+03  0.00000000000E+00 0.  1.
         -6    2    1    2    0  503 -0.31402650225E+02  0.90481064974E+01 -0.41187782708E+03  0.44900778688E+03  0.17577443944E+03 0.  0.
        -24    2    3    3    0    0  0.30478966569E+02 -0.42152484008E+02 -0.16826492556E+03  0.19245336623E+03  0.77584880538E+02 0.  0.
          6    2    1    2  501    0  0.31402650225E+02 -0.90481064974E+01 -0.35613688270E+03  0.39669480109E+03  0.17165456976E+03 0.  0.
         24    2    5    5    0    0 -0.12251881235E+01 -0.68231558678E+02 -0.18693508716E+03  0.21443511147E+03  0.79878930468E+02 0.  0.
          5    1    5    5  501    0  0.32627838349E+02  0.59183452180E+02 -0.16920179554E+03  0.18225968962E+03  0.47000000000E+01 0. -1.
        -11    1    6    6    0    0  0.32279293332E+02 -0.36569242222E+02 -0.14165645338E+03  0.14981926791E+03  0.00000000000E+00 0.  1.
         12    1    6    6    0    0 -0.33504481456E+02 -0.31662316456E+02 -0.45278633786E+02  0.64615843557E+02  0.00000000000E+00 0. -1.
         -5    1    3    3    0  503 -0.61881616795E+02  0.51200590506E+02 -0.24361290152E+03  0.25655442065E+03  0.47000000000E+01 0.  1.
         11    1    4    4    0    0  0.86462092472E+01  0.12273779057E+02 -0.10547413719E+03  0.10653729959E+03  0.00000000000E+00 0. -1.
        -12    1    4    4    0    0  0.21832757322E+02 -0.54426263065E+02 -0.62790788366E+02  0.85916066642E+02  0.00000000000E+00 0.  1.
</event>
<event>
12    1  0.8313893E-002  0.3242146E+03  0.7818608E-02  0.1073811E+00
         21   -1    0    0  501  502  0.00000000000E+00  0.00000000000E+00  0.15072513059E+04  0.15072513059E+04  0.00000000000E+00 0.  1.
         21   -1    0    0  502  503 -0.00000000000E+00 -0.00000000000E+00 -0.70359888136E+02  0.70359888136E+02  0.00000000000E+00 0.  1.
         -6    2    1    2    0  503 -0.96150476940E+02 -0.25677275283E+03  0.80242449938E+03  0.86544797335E+03  0.17302588408E+03 0.  0.
        -24    2    3    3    0    0  0.11202949770E+02 -0.95649693098E+02  0.40027558422E+03  0.41909470679E+03  0.78392984793E+02 0.  0.
          6    2    1    2  501    0  0.96150476940E+02  0.25677275283E+03  0.63446691835E+03  0.71216322065E+03  0.17161299937E+03 0.  0.
         24    2    5    5    0    0  0.35599039657E+02  0.23473685205E+03  0.55837289197E+03  0.61234113727E+03  0.82539085088E+02 0.  0.
          5    1    5    5  501    0  0.60551437284E+02  0.22035900784E+02  0.76094026381E+02  0.99822083385E+02  0.47000000000E+01 0. -1.
        -11    1    6    6    0    0  0.46831446852E+02  0.20449952195E+03  0.41063488062E+03  0.46112280802E+03  0.00000000000E+00 0.  1.
         12    1    6    6    0    0 -0.11232407195E+02  0.30237330095E+02  0.14773801135E+03  0.15121832925E+03  0.00000000000E+00 0. -1.
         -5    1    3    3    0  503 -0.10735342671E+03 -0.16112305973E+03  0.40214891516E+03  0.44635326656E+03  0.47000000000E+01 0.  1.
         13    1    4    4    0    0  0.20713034043E+02 -0.42035031300E+02  0.69217579026E+02  0.83588557123E+02  0.00000000000E+00 0. -1.
        -14    1    4    4    0    0 -0.95100842735E+01 -0.53614661798E+02  0.33105800519E+03  0.33550614967E+03  0.00000000000E+00 0.  1.
</event>
<event>
12    1  0.8313893E-002  0.2948123E+03  0.7818608E-02  0.1087983E+00
         21   -1    0    0  501  502  0.00000000000E+00  0.00000000000E+00  0.98295949318E+02  0.98295949318E+02  0.00000000000E+00 0.  1.
         21   -1    0    0  502  503 -0.00000000000E+00 -0.00000000000E+00 -0.11051849732E+04  0.11051849732E+04  0.00000000000E+00 0. -1.
         -6    2    1    2    0  503 -0.21866085460E+03 -0.95085827931E+02 -0.77357803534E+03  0.82751772566E+03  0.17178103944E+03 0.  0.
        -24    2    3    3    0    0 -0.15675212160E+03 -0.17215315333E+02 -0.34258645726E+03  0.38516906416E+03  0.78244057798E+02 0.  0.
          6    2    1    2  501    0  0.21866085460E+03  0.95085827931E+02 -0.23331098856E+03  0.37596319688E+03  0.17337942213E+03 0.  0.
         24    2    5    5    0    0  0.82956782094E+02 -0.96403136107E+01 -0.56718618026E+02  0.12981260203E+03  0.81606045559E+02 0.  0.
          5    1    5    5  501    0  0.13570407250E+03  0.10472614154E+03 -0.17659237053E+03  0.24615059485E+03  0.47000000000E+01 0. -1.
        -13    1    6    6    0    0  0.56841104453E+02  0.19297730611E+02 -0.66539143821E+02  0.89614570370E+02  0.00000000000E+00 0.  1.
         14    1    6    6    0    0  0.26115677642E+02 -0.28938044222E+02  0.98205257946E+01  0.40198031655E+02  0.00000000000E+00 0. -1.
         -5    1    3    3    0  503 -0.61908732998E+02 -0.77870512597E+02 -0.43099157808E+03  0.44234866150E+03  0.47000000000E+01 0.  1.
         13    1    4    4    0    0 -0.12915670169E+03 -0.28636332065E+02 -0.32406148632E+03  0.35002477058E+03  0.00000000000E+00 0. -1.
        -14    1    4    4    0    0 -0.27595419904E+02  0.11421016732E+02 -0.18524970949E+02  0.35144293584E+02  0.00000000000E+00 0.  1.
</event>
<event>
12    1  0.8313893E-002  0.3228915E+03  0.7818608E-02  0.1074384E+00
         21   -1    0    0  501  502  0.00000000000E+00  0.00000000000E+00  0.20560985885E+03  0.20560985885E+03  0.00000000000E+00 0. -1.
         21   -1    0    0  502  503 -0.00000000000E+00 -0.00000000000E+00 -0.50688514487E+03  0.50688514487E+03  0.00000000000E+00 0. -1.
         -6    2    1    2    0  503 -0.49495396576E+02  0.26835528303E+03 -0.16286414749E+03  0.36118806795E+03  0.17166169543E+03 0.  0.
        -24    2    3    3    0    0 -0.58625487876E+02  0.16481708448E+03 -0.32736093501E+02  0.19457799154E+03  0.78659543653E+02 0.  0.
          6    2    1    2  501    0  0.49495396576E+02 -0.26835528303E+03 -0.13841113853E+03  0.35130693577E+03  0.17261102988E+03 0.  0.
         24    2    5    5    0    0 -0.35522099973E+02 -0.16422578924E+03 -0.99676373316E+02  0.21133051549E+03  0.80580878269E+02 0.  0.
          5    1    5    5  501    0  0.85017496549E+02 -0.10412949379E+03 -0.38734765210E+02  0.13997642028E+03  0.47000000000E+01 0. -1.
        -13    1    6    6    0    0 -0.26648020252E+02 -0.72591267069E+01 -0.25106563301E+02  0.37324943733E+02  0.00000000000E+00 0.  1.
         14    1    6    6    0    0 -0.88740797219E+01 -0.15696666253E+03 -0.74569810016E+02  0.17400557176E+03  0.00000000000E+00 0. -1.
         -5    1    3    3    0  503  0.91300913006E+01  0.10353819855E+03 -0.13012805399E+03  0.16661007641E+03  0.47000000000E+01 0.  1.
         13    1    4    4    0    0  0.67199628873E+01  0.90725260248E+02 -0.15687781694E+01  0.90987316771E+02  0.00000000000E+00 0. -1.
        -14    1    4    4    0    0 -0.65345450764E+02  0.74091824232E+02 -0.31167315331E+02  0.10359067477E+03  0.00000000000E+00 0.  1.
</event>
<event>
12    1  0.8313893E-002  0.2032728E+03  0.7818608E-02  0.1148171E+00
         21   -1    0    0  503  502  0.00000000000E+00  0.00000000000E+00  0.43615121461E+02  0.43615121461E+02  0.00000000000E+00 0.  1.
         21   -1    0    0  501  503 -0.00000000000E+00 -0.00000000000E+00 -0.92863414427E+03  0.92863414427E+03  0.00000000000E+00 0.  1.
          6    2    1    2  501    0  0.96610196634E+02  0.18308311875E+02 -0.40645555301E+03  0.45445126005E+03  0.17790757941E+03 0.  0.
         24    2    3    3    0    0  0.95267095280E+02 -0.18158949494E+02 -0.14927001331E+03  0.19464718598E+03  0.78742766315E+02 0.  0.
         -6    2    1    2    0  502 -0.96610196634E+02 -0.18308311875E+02 -0.47856346980E+03  0.51779800568E+03  0.17153150055E+03 0.  0.
        -24    2    5    5    0    0  0.72822442821E+01 -0.54276746514E+02 -0.22919150369E+03  0.24522538223E+03  0.67880383287E+02 0.  0.
          5    1    3    3  501    0  0.13431013538E+01  0.36467261370E+02 -0.25718553970E+03  0.25980407407E+03  0.47000000000E+01 0. -1.
        -13    1    4    4    0    0  0.78377699127E+02  0.60882148062E+00 -0.51776627055E+02  0.93937497801E+02  0.00000000000E+00 0.  1.
         14    1    4    4    0    0  0.16889396154E+02 -0.18767770975E+02 -0.97493386255E+02  0.10070968818E+03  0.00000000000E+00 0. -1.
         -5    1    5    5    0  502 -0.10389244092E+03  0.35968434638E+02 -0.24937196611E+03  0.27257262345E+03  0.47000000000E+01 0.  1.
         11    1    6    6    0    0 -0.18503220900E+02 -0.39978464008E+02 -0.65736210968E+02  0.79132143914E+02  0.00000000000E+00 0. -1.
        -12    1    6    6    0    0  0.25785465182E+02 -0.14298282506E+02 -0.16345529272E+03  0.16609323832E+03  0.00000000000E+00 0.  1.
</event>
<event>
12    1  0.8313893E-002  0.2173818E+03  0.7818608E-02  0.1138521E+00
         21   -1    0    0  501  502  0.00000000000E+00  0.00000000000E+00  0.27934567524E+03  0.27934567524E+03  0.00000000000E+00 0. -1.
         21   -1    0    0  502  503 -0.00000000000E+00 -0.00000000000E+00 -0.17428803650E+03  0.17428803650E+03  0.00000000000E+00 0. -1.
         -6    2    1    2    0  503 -0.66710007388E+02 -0.11710969268E+03 -0.16770348042E+02  0.20444119416E+03  0.15280723834E+03 0.  0.
        -24    2    3    3    0    0 -0.75305778165E+02 -0.22039649181E+02 -0.13800643616E+02  0.10882158534E+03  0.74128087193E+02 0.  0.
          6    2    1    2  501    0  0.66710007388E+02  0.11710969268E+03  0.12182798678E+03  0.24919251758E+03  0.17055775342E+03 0.  0.
         24    2    5    5    0    0 -0.36954935685E+01  0.27511067590E+01  0.33949517583E+02  0.88632447554E+02  0.81742985963E+02 0.  0.
          5    1    5    5  501    0  0.70405500957E+02  0.11435858592E+03  0.87878469197E+02  0.16056007003E+03  0.47000000000E+01 0. -1.
        -13    1    6    6    0    0  0.51008230890E+01  0.11192905233E+02 -0.25305289670E+02  0.28136403627E+02  0.00000000000E+00 0.  1.
         14    1    6    6    0    0 -0.87963166575E+01 -0.84417984743E+01  0.59254807253E+02  0.60496043927E+02  0.00000000000E+00 0. -1.
         -5    1    3    3    0  503  0.85957707768E+01 -0.95070043499E+02 -0.29697044260E+01  0.95619608818E+02  0.47000000000E+01 0.  1.
         11    1    4    4    0    0 -0.14752725038E+02 -0.41715884164E+02 -0.44936397194E+01  0.44475281737E+02  0.00000000000E+00 0. -1.
        -12    1    4    4    0    0 -0.60553053127E+02  0.19676234982E+02 -0.93070038967E+01  0.64346303605E+02  0.00000000000E+00 0.  1.
</event>
<event>
12    1  0.8313893E-002  0.1884693E+03  0.7818608E-02  0.1160653E+00
         21   -1    0    0  501  502  0.00000000000E+00  0.00000000000E+00  0.14747433571E+03  0.14747433571E+03  0.00000000000E+00 0. -1.
         21   -1    0    0  502  503 -0.00000000000E+00 -0.00000000000E+00 -0.27444813101E+03  0.27444813101E+03  0.00000000000E+00 0. -1.
         -6    2    1    2    0  503 -0.64612298709E+02  0.26100113189E+02 -0.14150076298E+03  0.23289410419E+03  0.17135119723E+03 0.  0.
        -24    2    3    3    0    0 -0.10034262872E+03  0.48245345944E+01 -0.14282489695E+03  0.19102346940E+03  0.77453827538E+02 0.  0.
          6    2    1    2  501    0  0.64612298709E+02 -0.26100113189E+02  0.14526967675E+02  0.18902836252E+03  0.17511346035E+03 0.  0.
         24    2    5    5    0    0  0.77493234826E+02 -0.51223918943E+02  0.58696116960E+02  0.13639635819E+03  0.80806194482E+02 0.  0.
          5    1    5    5  501    0 -0.12880936117E+02  0.25123805754E+02 -0.44169149285E+02  0.52632004326E+02  0.47000000000E+01 0. -1.
        -13    1    6    6    0    0  0.13081059928E+02  0.17786561198E+02  0.30921845898E+02  0.37995216039E+02  0.00000000000E+00 0.  1.
         14    1    6    6    0    0  0.64412174898E+02 -0.69010480141E+02  0.27774271062E+02  0.98401142155E+02  0.00000000000E+00 0. -1.
         -5    1    3    3    0  503  0.35730330008E+02  0.21275578594E+02  0.13241339785E+01  0.41870634791E+02  0.47000000000E+01 0.  1.
         11    1    4    4    0    0 -0.26354712739E+02  0.35491036047E+02 -0.33330792152E+02  0.55363582152E+02  0.00000000000E+00 0. -1.
        -12    1    4    4    0    0 -0.73987915978E+02 -0.30666501452E+02 -0.10949410480E+03  0.13565988725E+03  0.00000000000E+00 0.  1.
</event>
<event>
12    1  0.8313893E-002  0.1932238E+03  0.7818608E-02  0.1155842E+00
         21   -1    0    0  501  502  0.00000000000E+00  0.00000000000E+00  0.36419206601E+03  0.36419206601E+03  0.00000000000E+00 0. -1.
         21   -1    0    0  502  503 -0.00000000000E+00 -0.00000000000E+00 -0.15872232103E+03  0.15872232103E+03  0.00000000000E+00 0. -1.
         -6    2    1    2    0  503  0.79924494206E+02 -0.30781679532E+02 -0.53502519301E+02  0.20049426491E+03  0.17320506378E+03 0.  0.
        -24    2    3    3    0    0  0.70878265028E+02  0.10328054525E+02 -0.93386807677E+02  0.14231616803E+03  0.80014990297E+02 0.  0.
          6    2    1    2  501    0 -0.79924494206E+02  0.30781679532E+02  0.25897226428E+03  0.32242012214E+03  0.17190888553E+03 0.  0.
         24    2    5    5    0    0 -0.36537433679E+01 -0.33915432212E+01  0.44853482568E+02  0.92520188974E+02  0.80766936696E+02 0.  0.
          5    1    5    5  501    0 -0.76270750838E+02  0.34173222753E+02  0.21411878171E+03  0.22989993317E+03  0.47000000000E+01 0. -1.
        -13    1    6    6    0    0 -0.93906809727E+01 -0.41413172655E+02  0.24004601673E+02  0.48779674660E+02  0.00000000000E+00 0.  1.
         14    1    6    6    0    0  0.57369376048E+01  0.38021629434E+02  0.20848880895E+02  0.43740514314E+02  0.00000000000E+00 0. -1.
         -5    1    3    3    0  503  0.90462291777E+01 -0.41109734057E+02  0.39884288376E+02  0.58178096873E+02  0.47000000000E+01 0.  1.
         13    1    4    4    0    0  0.30004829453E+01 -0.19563101273E+02  0.37065998774E+01  0.20135955700E+02  0.00000000000E+00 0. -1.
        -14    1    4    4    0    0  0.67877782083E+02  0.29891155798E+02 -0.97093407555E+02  0.12218021233E+03  0.00000000000E+00 0.  1.
</event>
<event>
12    1  0.8313893E-002  0.2248400E+03  0.7818608E-02  0.1130365E+00
         21   -1    0    0  503  502  0.00000000000E+00  0.00000000000E+00  0.32474067073E+03  0.32474067073E+03  0.00000000000E+00 0.  1.
         21   -1    0    0  501  503 -0.00000000000E+00 -0.00000000000E+00 -0.15585398429E+03  0.15585398429E+03  0.00000000000E+00 0.  1.
          6    2    1    2  501    0 -0.13443545608E+03 -0.54189977409E+02  0.95504559046E+02  0.24408254221E+03  0.17159755566E+03 0.  0.
         24    2    3    3    0    0 -0.12545197120E+03  0.18173218075E+02  0.50271517268E+02  0.15814504672E+03  0.80088497435E+02 0.  0.
         -6    2    1    2    0  502  0.13443545608E+03  0.54189977409E+02  0.73382127390E+02  0.23651211282E+03  0.17188251041E+03 0.  0.
        -24    2    5    5    0    0  0.82119961300E+02  0.63049797561E+02  0.11078455515E+03  0.17142417991E+03  0.79962908783E+02 0.  0.
          5    1    3    3  501    0 -0.89834848794E+01 -0.72363195484E+02  0.45233041778E+02  0.85937495482E+02  0.47000000000E+01 0. -1.
        -13    1    4    4    0    0 -0.10462032236E+03 -0.56251640059E+01  0.64957144648E+02  0.12327402387E+03  0.00000000000E+00 0.  1.
         14    1    4    4    0    0 -0.20831648840E+02  0.23798382081E+02 -0.14685627381E+02  0.34871022850E+02  0.00000000000E+00 0. -1.
         -5    1    5    5    0  502  0.52315494782E+02 -0.88598201514E+01 -0.37402427764E+02  0.65087932906E+02  0.47000000000E+01 0.  1.
         13    1    6    6    0    0  0.13809367201E+02 -0.44904918490E+01 -0.96015832712E+01  0.17408433039E+02  0.00000000000E+00 0. -1.
        -14    1    6    6    0    0  0.68310594099E+02  0.67540289410E+02  0.12038613842E+03  0.15401574687E+03  0.00000000000E+00 0.  1.
</event>
<event>
12    1  0.8313893E-002  0.2489842E+03  0.7818608E-02  0.1113978E+00
         21   -1    0    0  503  502  0.00000000000E+00  0.00000000000E+00  0.37613614773E+02  0.37613614773E+02  0.00000000000E+00 0.  1.
         21   -1    0    0  501  503 -0.00000000000E+00 -0.00000000000E+00 -0.16527863294E+04  0.16527863294E+04  0.00000000000E+00 0. -1.
          6    2    1    2  501    0  0.10121612953E+03  0.14892341479E+03 -0.85755822964E+03  0.89292090448E+03  0.17169372755E+03 0.  0.
         24    2    3    3    0    0  0.28460456775E+02  0.15393055277E+03 -0.56599843743E+03  0.59234202668E+03  0.77525690675E+02 0.  0.
         -6    2    1    2    0  502 -0.10121612953E+03 -0.14892341479E+03 -0.75761448503E+03  0.79747903974E+03  0.17195994459E+03 0.  0.
        -24    2    5    5    0    0 -0.12031532910E+03 -0.11748873238E+03 -0.44523005513E+03  0.48290148058E+03  0.81759753554E+02 0.  0.
          5    1    3    3  501    0  0.72755672759E+02 -0.50071379763E+01 -0.29155979221E+03  0.30057887780E+03  0.47000000000E+01 0. -1.
        -11    1    4    4    0    0  0.23275338511E+02  0.16162268226E+03 -0.55118285497E+03  0.57486187247E+03  0.00000000000E+00 0.  1.
         12    1    4    4    0    0  0.51851182646E+01 -0.76921294878E+01 -0.14815582461E+02  0.17480154208E+02  0.00000000000E+00 0. -1.
         -5    1    5    5    0  502  0.19099199568E+02 -0.31434682417E+02 -0.31238442990E+03  0.31457755916E+03  0.47000000000E+01 0.  1.
         11    1    6    6    0    0 -0.10972354169E+02 -0.10105894005E+02 -0.14550875813E+03  0.14627139277E+03  0.00000000000E+00 0. -1.
        -12    1    6    6    0    0 -0.10934297493E+03 -0.10738283837E+03 -0.29972129700E+03  0.33663008781E+03  0.00000000000E+00 0.  1.
</event>
<event>
12    1  0.8313893E-002  0.2058942E+03  0.7818608E-02  0.1144876E+00
         21   -1    0    0  501  502  0.00000000000E+00  0.00000000000E+00  0.15650642896E+04  0.15650642896E+04  0.00000000000E+00 0. -1.
         21   -1    0    0  502  503 -0.00000000000E+00 -0.00000000000E+00 -0.63721856021E+02  0.63721856021E+02  0.00000000000E+00 0. -1.
         -6    2    1    2    0  503 -0.33273541855E+02 -0.10850551890E+03  0.13314018055E+03  0.24519119540E+03  0.17179009984E+03 0.  0.
        -24    2    3    3    0    0  0.13061873240E+02 -0.12099436838E+03  0.63180737756E+02  0.16022440371E+03  0.82884282039E+02 0.  0.
          6    2    1    2  501    0  0.33273541855E+02  0.10850551890E+03  0.13682022530E+04  0.13835949502E+04  0.17168868593E+03 0.  0.
         24    2    5    5    0    0 -0.22093288979E+02  0.12216409949E+03  0.10512335985E+04  0.10615029436E+04  0.79273198652E+02 0.  0.
          5    1    5    5  501    0  0.55366830834E+02 -0.13658580592E+02  0.31696865447E+03  0.32209200657E+03  0.47000000000E+01 0. -1.
        -11    1    6    6    0    0 -0.36688654939E+02  0.17730036528E+02  0.23830196416E+03  0.24176070342E+03  0.00000000000E+00 0.  1.
         12    1    6    6    0    0  0.14595365959E+02  0.10443406296E+03  0.81293163438E+03  0.81974224021E+03  0.00000000000E+00 0. -1.
         -5    1    3    3    0  503 -0.46335415095E+02  0.12488849478E+02  0.69959442796E+02  0.84966791688E+02  0.47000000000E+01 0.  1.
         13    1    4    4    0    0 -0.31440108172E+02 -0.35392723630E+02  0.51047491766E+01  0.47614953029E+02  0.00000000000E+00 0. -1.
        -14    1    4    4    0    0  0.44501981412E+02 -0.85601644748E+02  0.58075988579E+02  0.11260945068E+03  0.00000000000E+00 0.  1.
</event>
<event>
12    1  0.8313893E-002  0.1844214E+03  0.7818608E-02  0.1164085E+00
         21   -1    0    0  501  502  0.00000000000E+00  0.00000000000E+00  0.10030243161E+04  0.10030243161E+04  0.00000000000E+00 0.  1.
         21   -1    0    0  502  503 -0.00000000000E+00 -0.00000000000E+00 -0.11021127697E+03  0.11021127697E+03  0.00000000000E+00 0. -1.
         -6    2    1    2    0  503 -0.25976117590E+01  0.65325977315E+02 -0.17121137337E+02  0.18521444037E+03  0.17244426543E+03 0.  0.
        -24    2    3    3    0    0 -0.25356528154E+02  0.93119845899E+02 -0.51870298745E+02  0.13501422498E+03  0.78892672889E+02 0.  0.
          6    2    1    2  501    0  0.25976117590E+01 -0.65325977315E+02  0.90993417642E+03  0.92802115267E+03  0.17020230161E+03 0.  0.
         24    2    5    5    0    0  0.13600686470E+01 -0.45416404396E+02  0.22330514819E+03  0.24108634133E+03  0.78695204393E+02 0.  0.
          5    1    5    5  501    0  0.12375431120E+01 -0.19909572919E+02  0.68662902824E+03  0.68693481134E+03  0.47000000000E+01 0. -1.
        -13    1    6    6    0    0  0.36462948299E+02 -0.29211820921E+02  0.16204516267E+03  0.16864611417E+03  0.00000000000E+00 0.  1.
         14    1    6    6    0    0 -0.35102879652E+02 -0.16204583475E+02  0.61259985519E+02  0.72440227162E+02  0.00000000000E+00 0. -1.
         -5    1    3    3    0  503  0.22758916395E+02 -0.27793868584E+02  0.34749161409E+02  0.50200215388E+02  0.47000000000E+01 0.  1.
         13    1    4    4    0    0  0.12130787281E+02  0.76189705462E+02 -0.53441682835E+02  0.93851162394E+02  0.00000000000E+00 0. -1.
        -14    1    4    4    0    0 -0.37487315435E+02  0.16930140437E+02  0.15713840899E+01  0.41163062589E+02  0.00000000000E+00 0.  1.
</event>
<event>
12    1  0.8313893E-002  0.1827847E+03  0.7818608E-02  0.1165939E+00
         21   -1    0    0  503  502  0.00000000000E+00  0.00000000000E+00  0.20985108356E+03  0.20985108356E+03  0.00000000000E+00 0.  1.
         21   -1    0    0  501  503 -0.00000000000E+00 -0.00000000000E+00 -0.29443862518E+03  0.29443862518E+03  0.00000000000E+00 0.  1.
          6    2    1    2  501    0  0.31605685825E+02 -0.41600937513E+02 -0.21520622365E+03  0.28235432934E+03  0.17515904549E+03 0.  0.
         24    2    3    3    0    0  0.56410485538E+02  0.33354640202E+02 -0.11489813747E+03  0.15461467663E+03  0.80058986592E+02 0.  0.
         -6    2    1    2    0  502 -0.31605685825E+02  0.41600937513E+02  0.13061868203E+03  0.22193537941E+03  0.17165230892E+03 0.  0.
        -24    2    5    5    0    0  0.67626828359E+01  0.45378685747E+02  0.80031096188E+01  0.93315506551E+02  0.80862692262E+02 0.  0.
          5    1    3    3  501    0 -0.24804799712E+02 -0.74955577715E+02 -0.10030808619E+03  0.12773965271E+03  0.47000000000E+01 0. -1.
        -11    1    4    4    0    0  0.23712264364E+02  0.40063971276E+02 -0.11178297872E+03  0.12109016313E+03  0.00000000000E+00 0.  1.
         12    1    4    4    0    0  0.32698221174E+02 -0.67093310741E+01 -0.31151587496E+01  0.33524513500E+02  0.00000000000E+00 0. -1.
         -5    1    5    5    0  502 -0.38368368661E+02 -0.37777482346E+01  0.12261557241E+03  0.12861987286E+03  0.47000000000E+01 0.  1.
         13    1    6    6    0    0 -0.87259339881E+00 -0.22073186665E+02 -0.81353796649E+01  0.23540845165E+02  0.00000000000E+00 0. -1.
        -14    1    6    6    0    0  0.76352762347E+01  0.67451872412E+02  0.16138489284E+02  0.69774661386E+02  0.00000000000E+00 0.  1.
</event>
<event>
12    1  0.8313893E-002  0.1914583E+03  0.7818608E-02  0.1157304E+00
         21   -1    0    0  501  502  0.00000000000E+00  0.00000000000E+00  0.23512406659E+03  0.23512406659E+03  0.00000000000E+00 0.  1.
         21   -1    0    0  502  503 -0.00000000000E+00 -0.00000000000E+00 -0.21333234001E+03  0.21333234001E+03  0.00000000000E+00 0.  1.
         -6    2    1    2    0  503  0.61144814652E+02  0.58652935281E+02 -0.10601665734E+03  0.21825806653E+03  0.17093331096E+03 0.  0.
        -24    2    3    3    0    0  0.11247604230E+02  0.31504232040E+02  0.12249006240E+02  0.86973486788E+02  0.79343077913E+02 0.  0.
          6    2    1    2  501    0 -0.61144814652E+02 -0.58652935281E+02  0.12780838392E+03  0.23019834007E+03  0.17168994611E+03 0.  0.
         24    2    5    5    0    0  0.63455748088E+01 -0.70900203049E+01  0.12018419768E+03  0.14479397785E+03  0.80190522762E+02 0.  0.
          5    1    5    5  501    0 -0.67490389461E+02 -0.51562914976E+02  0.76241862309E+01  0.85404362219E+02  0.47000000000E+01 0. -1.
        -11    1    6    6    0    0 -0.20963382414E+02  0.18381704508E+02  0.96793746262E+02  0.10072923994E+03  0.00000000000E+00 0.  1.
         12    1    6    6    0    0  0.27308957222E+02 -0.25471724813E+02  0.23390451422E+02  0.44064737912E+02  0.00000000000E+00 0. -1.
         -5    1    3    3    0  503  0.49897210422E+02  0.27148703240E+02 -0.11826566358E+03  0.13128457974E+03  0.47000000000E+01 0.  1.
         13    1    4    4    0    0  0.31036453355E+02  0.34670297581E+01  0.34139571699E+02  0.46268694470E+02  0.00000000000E+00 0. -1.
        -14    1    4    4    0    0 -0.19788849124E+02  0.28037202282E+02 -0.21890565459E+02  0.40704792317E+02  0.00000000000E+00 0.  1.
</event>
<event>
12    1  0.8313893E-002  0.1958767E+03  0.7818608E-02  0.1153663E+00
         21   -1    0    0  501  502  0.00000000000E+00  0.00000000000E+00  0.37837536577E+03  0.37837536577E+03  0.00000000000E+00 0. -1.
         21   -1    0    0  502  503 -0.00000000000E+00 -0.00000000000E+00 -0.14722497302E+03  0.14722497302E+03  0.00000000000E+00 0. -1.
         -6    2    1    2    0  503 -0.52991811642E+01  0.90705022886E+02 -0.32912073239E+02  0.19681974290E+03  0.17146231111E+03 0.  0.
        -24    2    3    3    0    0 -0.32204106996E+02  0.14440772578E+02  0.30994349087E+02  0.93639164669E+02  0.81006191520E+02 0.  0.
          6    2    1    2  501    0  0.52991811642E+01 -0.90705022886E+02  0.26406246598E+03  0.32878059589E+03  0.17352870598E+03 0.  0.
         24    2    5    5    0    0  0.53065010051E+02 -0.56285807885E+01  0.11687805785E+03  0.15213146511E+03  0.81461193563E+02 0.  0.
          5    1    5    5  501    0 -0.47765828887E+02 -0.85076442097E+02  0.14718440813E+03  0.17664913078E+03  0.47000000000E+01 0. -1.
        -13    1    6    6    0    0  0.74998224912E+01 -0.37637955328E+02  0.29026674532E+02  0.48118716245E+02  0.00000000000E+00 0.  1.
         14    1    6    6    0    0  0.45565187560E+02  0.32009374540E+02  0.87851383320E+02  0.10401274887E+03  0.00000000000E+00 0. -1.
         -5    1    3    3    0  503  0.26904925832E+02  0.76264250308E+02 -0.63906422326E+02  0.10318057823E+03  0.47000000000E+01 0.  1.
         13    1    4    4    0    0 -0.21526499169E+02  0.35560435471E+02 -0.13109972689E+02  0.43586765437E+02  0.00000000000E+00 0. -1.
        -14    1    4    4    0    0 -0.10677607827E+02 -0.21119662893E+02  0.44104321776E+02  0.50052399232E+02  0.00000000000E+00 0.  1.
</event>
<event>
12    1  0.8313893E-002  0.1744357E+03  0.7818608E-02  0.1173473E+00
         21   -1    0    0  501  502  0.00000000000E+00  0.00000000000E+00  0.25022881261E+04  0.25022881261E+04  0.00000000000E+00 0. -1.
         21   -1    0    0  502  503 -0.00000000000E+00 -0.00000000000E+00 -0.18265392903E+02  0.18265392903E+02  0.00000000000E+00 0. -1.
         -6    2    1    2    0  503 -0.17858983102E+02  0.13791588450E+02  0.51215654193E+03  0.54104726092E+03  0.17297012435E+03 0.  0.
        -24    2    3    3    0    0 -0.59157422407E+02  0.44729106988E+02  0.21622643846E+03  0.24061522654E+03  0.75110058684E+02 0.  0.
          6    2    1    2  501    0  0.17858983102E+02 -0.13791588450E+02  0.19718661913E+04  0.19795062581E+04  0.17227767801E+03 0.  0.
         24    2    5    5    0    0  0.53875171151E+02 -0.36831421436E+02  0.97552925848E+03  0.98224131167E+03  0.94242095334E+02 0.  0.
          5    1    5    5  501    0 -0.36016188049E+02  0.23039832987E+02  0.99633693281E+03  0.99726494643E+03  0.47000000000E+01 0. -1.
        -11    1    6    6    0    0 -0.26588219255E+02 -0.12923004283E+02  0.19810997337E+03  0.20030351718E+03  0.00000000000E+00 0.  1.
         12    1    6    6    0    0  0.80463390406E+02 -0.23908417153E+02  0.77741928511E+03  0.78193779450E+03  0.00000000000E+00 0. -1.
         -5    1    3    3    0  503  0.41298439305E+02 -0.30937518538E+02  0.29593010347E+03  0.30043203438E+03  0.47000000000E+01 0.  1.
         13    1    4    4    0    0  0.11965557467E+01  0.45142493483E+02  0.95873919487E+02  0.10597681304E+03  0.00000000000E+00 0. -1.
        -14    1    4    4    0    0 -0.60353978153E+02 -0.41338649540E+00  0.12035251897E+03  0.13463841350E+03  0.00000000000E+00 0.  1.
</event>
<event>
12    1  0.8313893E-002  0.1828086E+03  0.7818608E-02  0.1165295E+00
         21   -1    0    0  501  502  0.00000000000E+00  0.00000000000E+00  0.10254698807E+04  0.10254698807E+04  0.00000000000E+00 0.  1.
         21   -1    0    0  502  503 -0.00000000000E+00 -0.00000000000E+00 -0.51996052410E+02  0.51996052410E+02  0.00000000000E+00 0.  1.
         -6    2    1    2    0  503  0.36482726762E+02  0.52043532895E+02  0.15580278319E+03  0.23960860070E+03  0.17058210812E+03 0.  0.
        -24    2    3    3    0    0  0.65903595748E+02 -0.13579289049E+02  0.11763074240E+03  0.15805409751E+03  0.81341411093E+02 0.  0.
          6    2    1    2  501    0 -0.36482726762E+02 -0.52043532895E+02  0.81767104514E+03  0.83785733245E+03  0.17140435472E+03 0.  0.
         24    2    5    5    0    0  0.30038379308E+02 -0.58805059216E+02  0.63192689140E+03  0.64038896426E+03  0.80038054962E+02 0.  0.
          5    1    5    5  501    0 -0.66521106070E+02  0.67615263212E+01  0.18574415373E+03  0.19746836819E+03  0.47000000000E+01 0. -1.
        -11    1    6    6    0    0 -0.79683591224E+01 -0.53156103068E+02  0.50284335637E+03  0.50570792666E+03  0.00000000000E+00 0.  1.
         12    1    6    6    0    0  0.38006738430E+02 -0.56489561483E+01  0.12908353504E+03  0.13468103760E+03  0.00000000000E+00 0. -1.
         -5    1    3    3    0  503 -0.29420868986E+02  0.65622821944E+02  0.38172040790E+02  0.81554503186E+02  0.47000000000E+01 0.  1.
         11    1    4    4    0    0  0.11699538204E+02  0.32185061497E+02  0.44729046504E+02  0.56333338077E+02  0.00000000000E+00 0. -1.
        -12    1    4    4    0    0  0.54204057544E+02 -0.45764350546E+02  0.72901695897E+02  0.10172075943E+03  0.00000000000E+00 0.  1.
</event>
<event>
12    1  0.8313893E-002  0.1911479E+03  0.7818608E-02  0.1159403E+00
         21   -1    0    0  501  502  0.00000000000E+00  0.00000000000E+00  0.18760171169E+03  0.18760171169E+03  0.00000000000E+00 0.  1.
         21   -1    0    0  502  503 -0.00000000000E+00 -0.00000000000E+00 -0.50251511795E+03  0.50251511795E+03  0.00000000000E+00 0.  1.
         -6    2    1    2    0  503 -0.60684998560E+02 -0.40020358803E+02 -0.42989835583E+03  0.46704946464E+03  0.16744643294E+03 0.  0.
        -24    2    3    3    0    0  0.90151639779E+01 -0.68545074300E+02 -0.28061547442E+03  0.29977950101E+03  0.79642980516E+02 0.  0.
          6    2    1    2  501    0  0.60684998560E+02  0.40020358803E+02  0.11498494957E+03  0.22306736500E+03  0.17678578148E+03 0.  0.
         24    2    5    5    0    0  0.91979337067E+02  0.61001707869E+02  0.12367760961E+03  0.18411604962E+03  0.80132152105E+02 0.  0.
          5    1    5    5  501    0 -0.31294338506E+02 -0.20981349066E+02 -0.86926600385E+01  0.38951315379E+02  0.47000000000E+01 0. -1.
        -13    1    6    6    0    0  0.19191106379E+02  0.14234594900E+02  0.86866740485E+02  0.90093023362E+02  0.00000000000E+00 0.  1.
         14    1    6    6    0    0  0.72788230687E+02  0.46767112969E+02  0.36810869122E+02  0.94023026262E+02  0.00000000000E+00 0. -1.
         -5    1    3    3    0  503 -0.69700162538E+02  0.28524715497E+02 -0.14928288141E+03  0.16726996363E+03  0.47000000000E+01 0.  1.
         11    1    4    4    0    0 -0.30874278522E+02 -0.44039109928E+02 -0.10424849463E+03  0.11730478639E+03  0.00000000000E+00 0. -1.
        -12    1    4    4    0    0  0.39889442500E+02 -0.24505964372E+02 -0.17636697979E+03  0.18247471461E+03  0.00000000000E+00 0.  1.
</event>
<event>
12    1  0.8313893E-002  0.1843940E+03  0.7818608E-02  0.1164322E+00
         21   -1    0    0  503  502  0.00000000000E+00  0.00000000000E+00  0.13677107406E+03  0.13677107406E+03  0.00000000000E+00 0.  1.
         21   -1    0    0  501  503 -0.00000000000E+00 -0.00000000000E+00 -0.30824562653E+03  0.30824562653E+03  0.00000000000E+00 0. -1.
          6    2    1    2  501    0  0.55660035045E+02 -0.29715266262E+02 -0.18739736707E+03  0.26290476481E+03  0.17326311098E+03 0.  0.
         24    2    3    3    0    0  0.66296912092E+02 -0.88987151267E+01 -0.36569971483E+02  0.11020419110E+03  0.79580985400E+02 0.  0.
         -6    2    1    2    0  502 -0.55660035045E+02  0.29715266262E+02  0.15922814598E+02  0.18211193578E+03  0.17008875500E+03 0.  0.
        -24    2    5    5    0    0 -0.25136073480E+02  0.77357166590E+02  0.36661710067E+02  0.12166646712E+03  0.82720582825E+02 0.  0.
          5    1    3    3  501    0 -0.10636877047E+02 -0.20816551135E+02 -0.15082739558E+03  0.15270057371E+03  0.47000000000E+01 0. -1.
        -11    1    4    4    0    0  0.66265616590E+02 -0.64060644789E+00 -0.57479077877E+02  0.87723353289E+02  0.00000000000E+00 0.  1.
         12    1    4    4    0    0  0.31295501481E-01 -0.82581086788E+01  0.20909106394E+02  0.22480837808E+02  0.00000000000E+00 0. -1.
         -5    1    5    5    0  502 -0.30523961566E+02 -0.47641900328E+02 -0.20738895469E+02  0.60445468663E+02  0.47000000000E+01 0.  1.
         13    1    6    6    0    0 -0.19448127887E+02  0.79853812453E+02 -0.22926620646E+01  0.82219932747E+02  0.00000000000E+00 0. -1.
        -14    1    6    6    0    0 -0.56879455925E+01 -0.24966458628E+01  0.38954372132E+02  0.39446534370E+02  0.00000000000E+00 0.  1.
</event>
<event>
12    1  0.8313893E-002  0.2204934E+03  0.7818608E-02  0.1133593E+00
         21   -1    0    0  503  502  0.00000000000E+00  0.00000000000E+00  0.11630650477E+03  0.11630650477E+03  0.00000000000E+00 0.  1.
         21   -1    0    0  501  503 -0.00000000000E+00 -0.00000000000E+00 -0.97519059883E+03  0.97519059883E+03  0.00000000000E+00 0. -1.
          6    2    1    2  501    0  0.92586077161E+02 -0.10162003959E+03 -0.84208034656E+03  0.87036436597E+03  0.17186042404E+03 0.  0.
         24    2    3    3    0    0  0.92665560222E+02 -0.43247364051E+01 -0.46087226287E+03  0.47690779224E+03  0.80200936523E+02 0.  0.
         -6    2    1    2    0  502 -0.92586077161E+02  0.10162003959E+03 -0.16803747490E+02  0.22113273763E+03  0.17239056700E+03 0.  0.
        -24    2    5    5    0    0  0.18278029099E+02  0.15661491860E+02 -0.36371020512E+02  0.79412272777E+02  0.66363312602E+02 0.  0.
          5    1    3    3  501    0 -0.79483060932E-01 -0.97295303181E+02 -0.38120808369E+03  0.39345657373E+03  0.47000000000E+01 0. -1.
        -13    1    4    4    0    0  0.88727267583E+02  0.48172907643E+01 -0.24181037012E+03  0.25761985443E+03  0.00000000000E+00 0.  1.
         14    1    4    4    0    0  0.39382926387E+01 -0.91420271694E+01 -0.21906189276E+03  0.21928793781E+03  0.00000000000E+00 0. -1.
         -5    1    5    5    0  502 -0.11086410626E+03  0.85958547727E+02  0.19567273022E+02  0.14172046485E+03  0.47000000000E+01 0.  1.
         11    1    6    6    0    0  0.72634403406E+01  0.33688312034E+02 -0.44924869121E+02  0.56620701151E+02  0.00000000000E+00 0. -1.
        -12    1    6    6    0    0  0.11014588759E+02 -0.18026820175E+02  0.85538486096E+01  0.22791571626E+02  0.00000000000E+00 0.  1.
</event>
<event>
12    1  0.8313893E-002  0.2417747E+03  0.7818608E-02  0.1120885E+00
         21   -1    0    0  501  502  0.00000000000E+00  0.00000000000E+00  0.14270354537E+03  0.14270354537E+03  0.00000000000E+00 0. -1.
         21   -1    0    0  502  503 -0.00000000000E+00 -0.00000000000E+00 -0.38735682520E+03  0.38735682520E+03  0.00000000000E+00 0.  1.
         -6    2    1    2    0  503 -0.14828374040E+03  0.35513586853E+02 -0.12087909703E+03  0.25844476962E+03  0.17009603267E+03 0.  0.
        -24    2    3    3    0    0 -0.20823525858E+02  0.52674007582E+02 -0.36253693185E+02  0.10441835856E+03  0.79879240298E+02 0.  0.
          6    2    1    2  501    0  0.14828374040E+03 -0.35513586853E+02 -0.12377418280E+03  0.27161560095E+03  0.18763183054E+03 0.  0.
         24    2    5    5    0    0  0.48556901483E+02 -0.11372147584E+02 -0.13908504432E+03  0.16776588275E+03  0.79458438442E+02 0.  0.
          5    1    5    5  501    0  0.99726838916E+02 -0.24141439269E+02  0.15310861514E+02  0.10384971820E+03  0.47000000000E+01 0. -1.
        -11    1    6    6    0    0 -0.12094052268E+02 -0.17185451660E+02 -0.80655668071E+02  0.83348321165E+02  0.00000000000E+00 0.  1.
         12    1    6    6    0    0  0.60650953752E+02  0.58133040769E+01 -0.58429376245E+02  0.84417561584E+02  0.00000000000E+00 0. -1.
         -5    1    3    3    0  503 -0.12746021454E+03 -0.17160420730E+02 -0.84625403840E+02  0.15402641106E+03  0.47000000000E+01 0.  1.
         13    1    4    4    0    0 -0.15337936008E+02 -0.12424736437E+02 -0.33680219864E+02  0.39038232115E+02  0.00000000000E+00 0. -1.
        -14    1    4    4    0    0 -0.54855898496E+01  0.65098744020E+02 -0.25734733209E+01  0.65380126444E+02  0.00000000000E+00 0.  1.
</event>
<event>
12    1  0.8313893E-002  0.1819217E+03  0.7818608E-02  0.1166005E+00
         21   -1    0    0  501  502  0.00000000000E+00  0.00000000000E+00  0.14388185215E+03  0.14388185215E+03  0.00000000000E+00 0.  1.
         21   -1    0    0  502  503 -0.00000000000E+00 -0.00000000000E+00 -0.29321034083E+03  0.29321034083E+03  0.00000000000E+00 0.  1.
         -6    2    1    2    0  503 -0.55652006953E+02 -0.12668140958E+02 -0.17636456323E+03  0.25337710676E+03  0.17273642174E+03 0.  0.
        -24    2    3    3    0    0  0.28355145471E+02  0.29343250056E+02 -0.61233964874E+02  0.10471876253E+03  0.74507584662E+02 0.  0.
          6    2    1    2  501    0  0.55652006953E+02  0.12668140958E+02  0.27036074554E+02  0.18371508622E+03  0.17251856684E+03 0.  0.
         24    2    5    5    0    0  0.93179698713E+02 -0.19056492864E+02 -0.50532090775E+01  0.12483731313E+03  0.80704483492E+02 0.  0.
          5    1    5    5  501    0 -0.37527691760E+02  0.31724633822E+02  0.32089283632E+02  0.58877773090E+02  0.47000000000E+01 0. -1.
        -13    1    6    6    0    0  0.44905638769E+02 -0.49548583713E+02  0.41685510083E+01  0.66999666855E+02  0.00000000000E+00 0.  1.
         14    1    6    6    0    0  0.48274059944E+02  0.30492090849E+02 -0.92217600858E+01  0.57837646277E+02  0.00000000000E+00 0. -1.
         -5    1    3    3    0  503 -0.84007152424E+02 -0.42011391014E+02 -0.11513059836E+03  0.14865834424E+03  0.47000000000E+01 0.  1.
         11    1    4    4    0    0  0.24436718217E+02 -0.74245140459E+01  0.75447208278E+01  0.26630798305E+02  0.00000000000E+00 0. -1.
        -12    1    4    4    0    0  0.39184272547E+01  0.36767764102E+02 -0.68778685702E+02  0.78087964221E+02  0.00000000000E+00 0.  1.
</event>
<event>
12    1  0.8313893E-002  0.2072032E+03  0.7818608E-02  0.1144229E+00
         21   -1    0    0  501  502  0.00000000000E+00  0.00000000000E+00  0.18545454626E+04  0.18545454626E+04  0.00000000000E+00 0.  1.
         21   -1    0    0  502  503 -0.00000000000E+00 -0.00000000000E+00 -0.29052247174E+02  0.29052247174E+02  0.00000000000E+00 0.  1.
         -6    2    1    2    0  503  0.97850305000E+02  0.59036211566E+02  0.13419391288E+04  0.13575200465E+04  0.17029414167E+03 0.  0.
        -24    2    3    3    0    0 -0.12450014200E+02  0.65248503071E+01  0.67806193844E+03  0.68248033108E+03  0.76248497796E+02 0.  0.
          6    2    1    2  501    0 -0.97850305000E+02 -0.59036211566E+02  0.48355408654E+03  0.52607766323E+03  0.17283864344E+03 0.  0.
         24    2    5    5    0    0 -0.10175411640E+03 -0.62246085904E+02  0.49336201984E+03  0.51408480735E+03  0.81539138528E+02 0.  0.
          5    1    5    5  501    0  0.39038114025E+01  0.32098743373E+01 -0.98079332916E+01  0.11992855881E+02  0.47000000000E+01 0. -1.
        -11    1    6    6    0    0 -0.25004104254E+01  0.51345060233E+01  0.15465832699E+03  0.15476373384E+03  0.00000000000E+00 0.  1.
         12    1    6    6    0    0 -0.99253705977E+02 -0.67380591927E+02  0.33870369284E+03  0.35932107351E+03  0.00000000000E+00 0. -1.
         -5    1    3    3    0  503  0.11030031920E+03  0.52511361259E+02  0.66387719040E+03  0.67503971543E+03  0.47000000000E+01 0.  1.
         11    1    4    4    0    0 -0.21218239526E+02 -0.14807329753E+02  0.82284903248E+02  0.86257034528E+02  0.00000000000E+00 0. -1.
        -12    1    4    4    0    0  0.87682253264E+01  0.21332180061E+02  0.59577703520E+03  0.59622329655E+03  0.00000000000E+00 0.  1.
</event>
<event>
12    1  0.8313893E-002  0.2200387E+03  0.7818608E-02  0.1134075E+00
         21   -1    0    0  501  502  0.00000000000E+00  0.00000000000E+00  0.58524010479E+02  0.58524010479E+02  0.00000000000E+00 0.  1.
         21   -1    0    0  502  503 -0.00000000000E+00 -0.00000000000E+00 -0.82360109693E+03  0.82360109693E+03  0.00000000000E+00 0.  1.
         -6    2    1    2    0  503  0.65828856081E+02  0.11927598679E+03 -0.39471129351E+03  0.45132600013E+03  0.17128325621E+03 0.  0.
        -24    2    3    3    0    0  0.12733220727E+02 -0.85129680021E+00 -0.96414429716E+02  0.12536155467E+03  0.79100679619E+02 0.  0.
          6    2    1    2  501    0 -0.65828856081E+02 -0.11927598679E+03 -0.37036579294E+03  0.43079910728E+03  0.17279135085E+03 0.  0.
         24    2    5    5    0    0 -0.77689326902E+02 -0.14635213939E+02 -0.22329000552E+03  0.24984679489E+03  0.79468064975E+02 0.  0.
          5    1    5    5  501    0  0.11860470820E+02 -0.10464077285E+03 -0.14707578743E+03  0.18095231239E+03  0.47000000000E+01 0. -1.
        -11    1    6    6    0    0 -0.21716323284E+02 -0.17885990723E+02 -0.17060816549E+03  0.17291227109E+03  0.00000000000E+00 0.  1.
         12    1    6    6    0    0 -0.55973003617E+02  0.32507767834E+01 -0.52681840025E+02  0.76934523798E+02  0.00000000000E+00 0. -1.
         -5    1    3    3    0  503  0.53095635355E+02  0.12012728359E+03 -0.29829686379E+03  0.32596444546E+03  0.47000000000E+01 0.  1.
         11    1    4    4    0    0  0.29017690299E+02  0.13062694831E+02 -0.98810849341E+02  0.10380869084E+03  0.00000000000E+00 0. -1.
        -12    1    4    4    0    0 -0.16284469572E+02 -0.13913991631E+02  0.23964196252E+01  0.21552863832E+02  0.00000000000E+00 0.  1.
</event>
<event>
12    1  0.8313893E-002  0.1953730E+03  0.7818608E-02  0.1153823E+00
         21   -1    0    0  503  502  0.00000000000E+00  0.00000000000E+00  0.24337208742E+03  0.24337208742E+03  0.00000000000E+00 0. -1.
         21   -1    0    0  501  503 -0.00000000000E+00 -0.00000000000E+00 -0.24938801461E+03  0.24938801461E+03  0.00000000000E+00 0. -1.
          6    2    1    2  501    0 -0.65442856536E+01  0.92111710407E+02 -0.15345254542E+03  0.24799862174E+03  0.17154660538E+03 0.  0.
         24    2    3    3    0    0  0.33280845295E+02  0.11685338104E+03 -0.74666636675E+02  0.15619720161E+03  0.63719163789E+02 0.  0.
         -6    2    1    2    0  502  0.65442856536E+01 -0.92111710407E+02  0.14743661824E+03  0.24476148029E+03  0.17217209695E+03 0.  0.
        -24    2    5    5    0    0 -0.48849845999E+02 -0.92402431553E+02  0.69255780331E+02  0.14882958905E+03  0.80183331544E+02 0.  0.
          5    1    3    3  501    0 -0.39825130949E+02 -0.24741670631E+02 -0.78785908749E+02  0.91801420131E+02  0.47000000000E+01 0. -1.
        -11    1    4    4    0    0  0.19468881786E+02  0.48751190121E+00 -0.60020618608E+01  0.20378905084E+02  0.00000000000E+00 0.  1.
         12    1    4    4    0    0  0.13811963509E+02  0.11636586914E+03 -0.68664574814E+02  0.13581829652E+03  0.00000000000E+00 0. -1.
         -5    1    5    5    0  502  0.55394131653E+02  0.29072114586E+00  0.78180837907E+02  0.95931891237E+02  0.47000000000E+01 0.  1.
         11    1    6    6    0    0 -0.28213806158E+02 -0.41203070201E+02  0.78323106112E+02  0.92888216707E+02  0.00000000000E+00 0. -1.
        -12    1    6    6    0    0 -0.20636039841E+02 -0.51199361352E+02 -0.90673257816E+01  0.55941372346E+02  0.00000000000E+00 0.  1.
</event>
<event>
12    1  0.8313893E-002  0.2432525E+03  0.7818608E-02  0.1117651E+00
         21   -1    0    0  503  502  0.00000000000E+00  0.00000000000E+00  0.58991668617E+03  0.58991668617E+03  0.00000000000E+00 0. -1.
         21   -1    0    0  501  503 -0.00000000000E+00 -0.00000000000E+00 -0.10209311488E+03  0.10209311488E+03  0.00000000000E+00 0. -1.
          6    2    1    2  501    0 -0.12588533107E+03 -0.11744235775E+03  0.28988554937E+03  0.37839976401E+03  0.17179326442E+03 0.  0.
         24    2    3    3    0    0 -0.63673863233E+02 -0.36749550015E+02  0.24280330669E+03  0.26605910563E+03  0.80181741443E+02 0.  0.
         -6    2    1    2    0  502  0.12588533107E+03  0.11744235775E+03  0.19793802192E+03  0.31361003704E+03  0.17184868588E+03 0.  0.
        -24    2    5    5    0    0  0.40946020192E+02  0.10712732392E+03  0.65813782849E+02  0.15612990812E+03  0.83019600671E+02 0.  0.
          5    1    3    3  501    0 -0.62211467837E+02 -0.80692807737E+02  0.47082242676E+02  0.11234065838E+03  0.47000000000E+01 0. -1.
        -11    1    4    4    0    0 -0.23298705953E+02 -0.57378705142E+02  0.11778612619E+03  0.13307410352E+03  0.00000000000E+00 0.  1.
         12    1    4    4    0    0 -0.40375157280E+02  0.20629155127E+02  0.12501718050E+03  0.13298500211E+03  0.00000000000E+00 0. -1.
         -5    1    5    5    0  502  0.84939310878E+02  0.10315033830E+02  0.13212423907E+03  0.15748012892E+03  0.47000000000E+01 0.  1.
         11    1    6    6    0    0  0.62506940640E+02  0.48597801914E+02  0.35214494525E+02  0.86654051282E+02  0.00000000000E+00 0. -1.
        -12    1    6    6    0    0 -0.21560920447E+02  0.58529522008E+02  0.30599288325E+02  0.69475856836E+02  0.00000000000E+00 0.  1.
</event>
<event>
12    1  0.8313893E-002  0.2463410E+03  0.7818608E-02  0.1115654E+00
         21   -1    0    0  501  502  0.00000000000E+00  0.00000000000E+00  0.38925098646E+03  0.38925098646E+03  0.00000000000E+00 0. -1.
         21   -1    0    0  502  503 -0.00000000000E+00 -0.00000000000E+00 -0.15604186603E+03  0.15604186603E+03  0.00000000000E+00 0.  1.
         -6    2    1    2    0  503 -0.17313110000E+03  0.16718687451E+02  0.12644315704E+03  0.27689664102E+03  0.17444192600E+03 0.  0.
        -24    2    3    3    0    0 -0.19108627861E+03  0.42603939167E+02  0.13587498229E+03  0.24367791102E+03  0.50870934723E+02 0.  0.
          6    2    1    2  501    0  0.17313110000E+03 -0.16718687451E+02  0.10676596338E+03  0.26839621147E+03  0.17430910216E+03 0.  0.
         24    2    5    5    0    0  0.18037863832E+03 -0.33260329643E+02  0.13010361005E+03  0.23851497170E+03  0.79496790419E+02 0.  0.
          5    1    5    5  501    0 -0.72475383120E+01  0.16541642192E+02 -0.23337646672E+02  0.29881239770E+02  0.47000000000E+01 0. -1.
        -13    1    6    6    0    0  0.12849618018E+03 -0.11036313514E+02  0.45395815782E+02  0.13672544981E+03  0.00000000000E+00 0.  1.
         14    1    6    6    0    0  0.51882458141E+02 -0.22224016129E+02  0.84707794273E+02  0.10178952189E+03  0.00000000000E+00 0. -1.
         -5    1    3    3    0  503  0.17955178609E+02 -0.25885251715E+02 -0.94318252514E+01  0.33218730000E+02  0.47000000000E+01 0.  1.
         11    1    4    4    0    0 -0.30390564224E+02 -0.45053552727E+01  0.40925012196E+02  0.51173638166E+02  0.00000000000E+00 0. -1.
        -12    1    4    4    0    0 -0.16069571439E+03  0.47109294439E+02  0.94949970099E+02  0.19250427286E+03  0.00000000000E+00 0.  1.
</event>
<event>
12    1  0.8313893E-002  0.2597470E+03  0.7818608E-02  0.1107344E+00
         21   -1    0    0  503  502  0.00000000000E+00  0.00000000000E+00  0.44866927246E+03  0.44866927246E+03  0.00000000000E+00 0. -1.
         21   -1    0    0  501  503 -0.00000000000E+00 -0.00000000000E+00 -0.26075937994E+03  0.26075937994E+03  0.00000000000E+00 0. -1.
          6    2    1    2  501    0  0.16405717916E+03 -0.10499012793E+03 -0.13706007827E+03  0.29340702873E+03  0.17136083116E+03 0.  0.
         24    2    3    3    0    0  0.19140702498E+03 -0.76776838407E+02 -0.93674775097E+02  0.23468413453E+03  0.61403154492E+02 0.  0.
         -6    2    1    2    0  502 -0.16405717916E+03  0.10499012793E+03  0.32496997079E+03  0.41602162367E+03  0.17184535039E+03 0.  0.
        -24    2    5    5    0    0 -0.10587543275E+03  0.13825773230E+03  0.23875421610E+03  0.30671885393E+03  0.82146648441E+02 0.  0.
          5    1    3    3  501    0 -0.27349845820E+02 -0.28213289520E+02 -0.43385303177E+02  0.58722894204E+02  0.47000000000E+01 0. -1.
        -11    1    4    4    0    0  0.85396119777E+02 -0.55212164897E+02 -0.19573069272E+02  0.10355667756E+03  0.00000000000E+00 0.  1.
         12    1    4    4    0    0  0.10601090520E+03 -0.21564673509E+02 -0.74101705825E+02  0.13112745697E+03  0.00000000000E+00 0. -1.
         -5    1    5    5    0  502 -0.58181746407E+02 -0.33267604377E+02  0.86215754692E+02  0.10930276974E+03  0.47000000000E+01 0.  1.
         11    1    6    6    0    0 -0.66190807415E+02  0.23361635648E+02  0.10107307758E+03  0.12305590606E+03  0.00000000000E+00 0. -1.
        -12    1    6    6    0    0 -0.39684625340E+02  0.11489609666E+03  0.13768113852E+03  0.18366294786E+03  0.00000000000E+00 0.  1.
</event>
<event>
12    1  0.8313893E-002  0.1730783E+03  0.7818608E-02  0.1174779E+00
         21   -1    0    0  503  502  0.00000000000E+00  0.00000000000E+00  0.17205222511E+02  0.17205222511E+02  0.00000000000E+00 0. -1.
         21   -1    0    0  501  503 -0.00000000000E+00 -0.00000000000E+00 -0.20311649432E+04  0.20311649432E+04  0.00000000000E+00 0. -1.
          6    2    1    2  501    0 -0.21442012503E+01 -0.13033984886E+02 -0.13957251816E+04  0.14063654531E+04  0.17216423199E+03 0.  0.
         24    2    3    3    0    0  0.42797427691E+02  0.41172347297E+02 -0.75490114626E+03  0.76166737592E+03  0.82065028571E+02 0.  0.
         -6    2    1    2    0  502  0.21442012503E+01  0.13033984886E+02 -0.61823453912E+03  0.64200471264E+03  0.17257353020E+03 0.  0.
        -24    2    5    5    0    0 -0.24348080487E+02  0.56727054519E+02 -0.53530385127E+03  0.54448284682E+03  0.78106142887E+02 0.  0.
          5    1    3    3  501    0 -0.44941628941E+02 -0.54206332184E+02 -0.64082403535E+03  0.64469807719E+03  0.47000000000E+01 0. -1.
        -11    1    4    4    0    0  0.35009105430E+02  0.26436263702E+02 -0.14388853072E+03  0.15042746682E+03  0.00000000000E+00 0.  1.
         12    1    4    4    0    0  0.77883222603E+01  0.14736083596E+02 -0.61101261555E+03  0.61123990910E+03  0.00000000000E+00 0. -1.
         -5    1    5    5    0  502  0.26492281737E+02 -0.43693069633E+02 -0.82930687854E+02  0.97521865823E+02  0.47000000000E+01 0.  1.
         13    1    6    6    0    0  0.42066320770E+01  0.47085801694E+02 -0.13484266136E+03  0.14288915913E+03  0.00000000000E+00 0. -1.
        -14    1    6    6    0    0 -0.28554712564E+02  0.96412528252E+01 -0.40046118991E+03  0.40159368769E+03  0.00000000000E+00 0.  1.
</event>
<event>
12    1  0.8313893E-002  0.1821367E+03  0.7818608E-02  0.1166389E+00
         21   -1    0    0  501  502  0.00000000000E+00  0.00000000000E+00  0.49683506646E+03  0.49683506646E+03  0.00000000000E+00 0. -1.
         21   -1    0    0  502  503 -0.00000000000E+00 -0.00000000000E+00 -0.71480632796E+02  0.71480632796E+02  0.00000000000E+00 0. -1.
         -6    2    1    2    0  503  0.54492158882E+02  0.16278223924E+02  0.13401154008E+03  0.22612578199E+03  0.17303005649E+03 0.  0.
        -24    2    3    3    0    0 -0.74702909660E+01 -0.42986453038E+02  0.38048736972E+02  0.97352350302E+02  0.78269619471E+02 0.  0.
          6    2    1    2  501    0 -0.54492158882E+02 -0.16278223924E+02  0.29134289358E+03  0.34218991727E+03  0.17023184746E+03 0.  0.
         24    2    5    5    0    0 -0.42268823192E+02 -0.77403526489E+02  0.17842721530E+03  0.21312499969E+03  0.76210465199E+02 0.  0.
          5    1    5    5  501    0 -0.12223335689E+02  0.61125302565E+02  0.11291567828E+03  0.12906491758E+03  0.47000000000E+01 0. -1.
        -11    1    6    6    0    0 -0.24411399290E+02 -0.78273863586E+02  0.17714547222E+03  0.19520049299E+03  0.00000000000E+00 0.  1.
         12    1    6    6    0    0 -0.17857423902E+02  0.87033709688E+00  0.12817430811E+01  0.17924506699E+02  0.00000000000E+00 0. -1.
         -5    1    3    3    0  503  0.61962449848E+02  0.59264676962E+02  0.95962803112E+02  0.12877343168E+03  0.47000000000E+01 0.  1.
         13    1    4    4    0    0 -0.12813497872E+02  0.24012074637E+01 -0.19752509184E+02  0.23666709617E+02  0.00000000000E+00 0. -1.
        -14    1    4    4    0    0  0.53432069062E+01 -0.45387660502E+02  0.57801246157E+02  0.73685640685E+02  0.00000000000E+00 0.  1.
</event>
<event>
12    1  0.8313893E-002  0.1764623E+03  0.7818608E-02  0.1172067E+00
         21   -1    0    0  501  502  0.00000000000E+00  0.00000000000E+00  0.77918290497E+03  0.77918290497E+03  0.00000000000E+00 0. -1.
         21   -1    0    0  502  503 -0.00000000000E+00 -0.00000000000E+00 -0.50651961545E+02  0.50651961545E+02  0.00000000000E+00 0. -1.
         -6    2    1    2    0  503  0.16434358832E+02 -0.17445692957E+02  0.16995699713E+03  0.24499861556E+03  0.17482705854E+03 0.  0.
        -24    2    3    3    0    0 -0.14384942672E+02 -0.84767729185E+01  0.86569001783E+01  0.80468733321E+02  0.78239969752E+02 0.  0.
          6    2    1    2  501    0 -0.16434358832E+02  0.17445692957E+02  0.55857394629E+03  0.58483625095E+03  0.17162210406E+03 0.  0.
         24    2    5    5    0    0 -0.55416062598E+02  0.27082158404E+02  0.20092048334E+03  0.22490497383E+03  0.80055126808E+02 0.  0.
          5    1    5    5  501    0  0.38981703765E+02 -0.96364654469E+01  0.35765346294E+03  0.35993127712E+03  0.47000000000E+01 0. -1.
        -13    1    6    6    0    0  0.18185433765E+02  0.20048817924E+02  0.57206739750E+02  0.63287251277E+02  0.00000000000E+00 0.  1.
         14    1    6    6    0    0 -0.73601496363E+02  0.70333404799E+01  0.14371374359E+03  0.16161772255E+03  0.00000000000E+00 0. -1.
         -5    1    3    3    0  503  0.30819301505E+02 -0.89689200385E+01  0.16130009695E+03  0.16452988224E+03  0.47000000000E+01 0.  1.
         11    1    4    4    0    0 -0.33861273404E+02 -0.14057908246E+02  0.32630163413E+02  0.49080935048E+02  0.00000000000E+00 0. -1.
        -12    1    4    4    0    0  0.19476330732E+02  0.55811353275E+01 -0.23973263235E+02  0.31387798273E+02  0.00000000000E+00 0.  1.
</event>
<event>
12    1  0.8313893E-002  0.1958204E+03  0.7818608E-02  0.1153859E+00
         21   -1    0    0  501  502  0.00000000000E+00  0.00000000000E+00  0.12303442356E+03  0.12303442356E+03  0.00000000000E+00 0.  1.
         21   -1    0    0  502  503 -0.00000000000E+00 -0.00000000000E+00 -0.30971204621E+03  0.30971204621E+03  0.00000000000E+00 0. -1.
         -6    2    1    2    0  503  0.83848715122E+02 -0.44647651021E+02 -0.11134947368E+03  0.22526502644E+03  0.17123553100E+03 0.  0.
        -24    2    3    3    0    0  0.58713013955E+02 -0.24814727810E+02 -0.14521229366E+03  0.17842563177E+03  0.81768619390E+02 0.  0.
          6    2    1    2  501    0 -0.83848715122E+02  0.44647651021E+02 -0.75328148968E+02  0.20748144334E+03  0.16837517493E+03 0.  0.
         24    2    5    5    0    0 -0.10897624862E+03  0.57283648495E+02 -0.17432452554E+02  0.14294414377E+03  0.70511691865E+02 0.  0.
          5    1    5    5  501    0  0.25127533495E+02 -0.12635997474E+02 -0.57895696414E+02  0.64537299564E+02  0.47000000000E+01 0. -1.
        -13    1    6    6    0    0 -0.46617044429E+02  0.48257173230E+02  0.19546407449E+02  0.69885375034E+02  0.00000000000E+00 0.  1.
         14    1    6    6    0    0 -0.62359204188E+02  0.90264752651E+01 -0.36978860003E+02  0.73058768740E+02  0.00000000000E+00 0. -1.
         -5    1    3    3    0  503  0.25135701167E+02 -0.19832923211E+02  0.33862819980E+02  0.46839394672E+02  0.47000000000E+01 0.  1.
         11    1    4    4    0    0  0.15219625110E+02  0.87552527266E+01  0.51843730702E+01  0.18307625814E+02  0.00000000000E+00 0. -1.
        -12    1    4    4    0    0  0.43493388845E+02 -0.33569980537E+02 -0.15039666673E+03  0.16011800595E+03  0.00000000000E+00 0.  1.
</event>
<event>
12    1  0.8313893E-002  0.2041261E+03  0.7818608E-02  0.1146512E+00
         21   -1    0    0  501  502  0.00000000000E+00  0.00000000000E+00  0.26474446480E+02  0.26474446480E+02  0.00000000000E+00 0.  1.
         21   -1    0    0  502  503 -0.00000000000E+00 -0.00000000000E+00 -0.16729506347E+04  0.16729506347E+04  0.00000000000E+00 0. -1.
         -6    2    1    2    0  503 -0.88137617019E+02 -0.61118118848E+02 -0.10360852950E+04  0.10558067741E+04  0.17248635208E+03 0.  0.
        -24    2    3    3    0    0 -0.58265338777E+02  0.29555167198E+02 -0.64146047033E+03  0.64977125831E+03  0.80391513937E+02 0.  0.
          6    2    1    2  501    0  0.88137617019E+02  0.61118118848E+02 -0.61039089323E+03  0.64361830713E+03  0.17367734091E+03 0.  0.
         24    2    5    5    0    0  0.57320408621E+01 -0.68172009595E+01 -0.39489135778E+03  0.40306056679E+03  0.80245283517E+02 0.  0.
          5    1    5    5  501    0  0.82405576157E+02  0.67935319808E+02 -0.21549953545E+03  0.24055774034E+03  0.47000000000E+01 0. -1.
        -13    1    6    6    0    0 -0.17871002644E+02  0.23700150413E+02 -0.72087812166E+02  0.77959749409E+02  0.00000000000E+00 0.  1.
         14    1    6    6    0    0  0.23603043506E+02 -0.30517351373E+02 -0.32280354562E+03  0.32510081738E+03  0.00000000000E+00 0. -1.
         -5    1    3    3    0  503 -0.29872278242E+02 -0.90673286047E+02 -0.39462482466E+03  0.40603551575E+03  0.47000000000E+01 0.  1.
         11    1    4    4    0    0 -0.16932135861E+02 -0.86606873147E+01 -0.44496537267E+03  0.44537162865E+03  0.00000000000E+00 0. -1.
        -12    1    4    4    0    0 -0.41333202916E+02  0.38215854513E+02 -0.19649509766E+03  0.20439962965E+03  0.00000000000E+00 0.  1.
</event>
<event>
12    1  0.8313893E-002  0.2551562E+03  0.7818608E-02  0.1110316E+00
         21   -1    0    0  503  502  0.00000000000E+00  0.00000000000E+00  0.18382310690E+03  0.18382310690E+03  0.00000000000E+00 0. -1.
         21   -1    0    0  501  503 -0.00000000000E+00 -0.00000000000E+00 -0.36059249951E+03  0.36059249951E+03  0.00000000000E+00 0. -1.
          6    2    1    2  501    0 -0.44711043575E+01  0.18738807988E+03 -0.13032382676E+03  0.28651172671E+03  0.17311957274E+03 0.  0.
         24    2    3    3    0    0  0.61702640885E+02  0.14270883821E+03 -0.94013380753E+02  0.19867245483E+03  0.80369149248E+02 0.  0.
         -6    2    1    2    0  502  0.44711043575E+01 -0.18738807988E+03 -0.46445565851E+02  0.25790387970E+03  0.17094717700E+03 0.  0.
        -24    2    5    5    0    0 -0.17965362604E+02 -0.10422772007E+03  0.37989786425E+02  0.13719572253E+03  0.78697334929E+02 0.  0.
          5    1    3    3  501    0 -0.66173745243E+02  0.44679241669E+02 -0.36310446003E+02  0.87839271880E+02  0.47000000000E+01 0. -1.
        -13    1    4    4    0    0  0.11891510439E+02 -0.91959180006E+01 -0.60271632914E+01  0.16195666881E+02  0.00000000000E+00 0.  1.
         14    1    4    4    0    0  0.49811130447E+02  0.15190475621E+03 -0.87986217461E+02  0.18247678794E+03  0.00000000000E+00 0. -1.
         -5    1    5    5    0  502  0.22436466961E+02 -0.83160359811E+02 -0.84435352276E+02  0.12070815717E+03  0.47000000000E+01 0.  1.
         11    1    6    6    0    0 -0.28104006614E+02 -0.63343430267E+01  0.24578777007E+02  0.37869187588E+02  0.00000000000E+00 0. -1.
        -12    1    6    6    0    0  0.10138644010E+02 -0.97893377040E+02  0.13411009417E+02  0.99326534945E+02  0.00000000000E+00 0.  1.
</event>
<event>
12    1  0.8313893E-002  0.2321404E+03  0.7818608E-02  0.1125404E+00
         21   -1    0    0  503  502  0.00000000000E+00  0.00000000000E+00  0.67493967294E+02  0.67493967294E+02  0.00000000000E+00 0.  1.
         21   -1    0    0  501  503 -0.00000000000E+00 -0.00000000000E+00 -0.80517673221E+03  0.80517673221E+03  0.00000000000E+00 0. -1.
          6    2    1    2  501    0  0.33474429094E+02 -0.15181021982E+03 -0.42069725034E+03  0.47977248901E+03  0.17037777003E+03 0.  0.
         24    2    3    3    0    0  0.54756922454E+02 -0.15868393922E+03 -0.27226248239E+03  0.32958872531E+03  0.79517013350E+02 0.  0.
         -6    2    1    2    0  502 -0.33474429094E+02  0.15181021982E+03 -0.31698551457E+03  0.39289821050E+03  0.17240158676E+03 0.  0.
        -24    2    5    5    0    0  0.48324076535E+02  0.57183230008E+02 -0.15912122175E+03  0.19143236308E+03  0.75641577574E+02 0.  0.
          5    1    3    3  501    0 -0.21282493360E+02  0.68737193971E+01 -0.14843476796E+03  0.15018376370E+03  0.47000000000E+01 0. -1.
        -13    1    4    4    0    0  0.36936635068E+02 -0.57650778305E+02 -0.17622840848E+03  0.18906183964E+03  0.00000000000E+00 0.  1.
         14    1    4    4    0    0  0.17820287385E+02 -0.10103316091E+03 -0.96034073903E+02  0.14052688567E+03  0.00000000000E+00 0. -1.
         -5    1    5    5    0  502 -0.81798505629E+02  0.94626989812E+02 -0.15786429283E+03  0.20146584741E+03  0.47000000000E+01 0.  1.
         13    1    6    6    0    0 -0.14598921521E+02  0.21914356938E+02 -0.80672896059E+02  0.84861556126E+02  0.00000000000E+00 0. -1.
        -14    1    6    6    0    0  0.62922998057E+02  0.35268873069E+02 -0.78448325689E+02  0.10657080696E+03  0.00000000000E+00 0.  1.
</event>
<event>
12    1  0.8313893E-002  0.2019955E+03  0.7818608E-02  0.1148143E+00
         21   -1    0    0  501  502  0.00000000000E+00  0.00000000000E+00  0.48881452766E+02  0.48881452766E+02  0.00000000000E+00 0. -1.
         21   -1    0    0  502  503 -0.00000000000E+00 -0.00000000000E+00 -0.88458427510E+03  0.88458427510E+03  0.00000000000E+00 0. -1.
         -6    2    1    2    0  503  0.57197045077E+02  0.91531212323E+02 -0.53069911902E+03  0.56784129703E+03  0.17074167296E+03 0.  0.
        -24    2    3    3    0    0  0.45446009018E+02  0.13030904685E+03 -0.39628596080E+03  0.42737495087E+03  0.80999990618E+02 0.  0.
          6    2    1    2  501    0 -0.57197045077E+02 -0.91531212323E+02 -0.30500370331E+03  0.36562443083E+03  0.17030707735E+03 0.  0.
         24    2    5    5    0    0 -0.93119201716E+02 -0.25526555570E+02 -0.16582258307E+03  0.20738255812E+03  0.78661334764E+02 0.  0.
          5    1    5    5  501    0  0.35922156638E+02 -0.66004656753E+02 -0.13918112024E+03  0.15824187272E+03  0.47000000000E+01 0. -1.
        -13    1    6    6    0    0  0.28161711137E+01  0.10405501793E+02  0.18048026039E+01  0.10929894773E+02  0.00000000000E+00 0.  1.
         14    1    6    6    0    0 -0.95935372829E+02 -0.35932057363E+02 -0.16762738567E+03  0.19645266334E+03  0.00000000000E+00 0. -1.
         -5    1    3    3    0  503  0.11751036059E+02 -0.38777834529E+02 -0.13441315822E+03  0.14046634616E+03  0.47000000000E+01 0.  1.
         11    1    4    4    0    0  0.62736488115E+02  0.12084441070E+03 -0.30542488813E+03  0.33440036009E+03  0.00000000000E+00 0. -1.
        -12    1    4    4    0    0 -0.17290479097E+02  0.94646361510E+01 -0.90861072665E+02  0.92974590780E+02  0.00000000000E+00 0.  1.
</event>
<event>
12    1  0.8313893E-002  0.1956101E+03  0.7818608E-02  0.1153563E+00
         21   -1    0    0  503  502  0.00000000000E+00  0.00000000000E+00  0.19041000717E+03  0.19041000717E+03  0.00000000000E+00 0.  1.
         21   -1    0    0  501  503 -0.00000000000E+00 -0.00000000000E+00 -0.22041014777E+03  0.22041014777E+03  0.00000000000E+00 0. -1.
          6    2    1    2  501    0 -0.74172083067E+02  0.55460491682E+02 -0.76513870174E+02  0.20975588496E+03  0.17194707005E+03 0.  0.
         24    2    3    3    0    0 -0.67616350815E+02  0.10293457097E+03 -0.51955425888E+02  0.15570060755E+03  0.79848707645E+02 0.  0.
         -6    2    1    2    0  502  0.74172083067E+02 -0.55460491682E+02  0.46513729577E+02  0.20106426998E+03  0.17229611017E+03 0.  0.
        -24    2    5    5    0    0  0.35523092494E+02  0.33811702181E+02  0.42470616014E+02  0.10358757617E+03  0.80755875370E+02 0.  0.
          5    1    3    3  501    0 -0.65557322521E+01 -0.47474079291E+02 -0.24558444286E+02  0.54055277408E+02  0.47000000000E+01 0. -1.
        -13    1    4    4    0    0 -0.45911922463E+02  0.42796133911E+02  0.13501185396E+02  0.64200433870E+02  0.00000000000E+00 0.  1.
         14    1    4    4    0    0 -0.21704428352E+02  0.60138437062E+02 -0.65456611284E+02  0.91500173678E+02  0.00000000000E+00 0. -1.
         -5    1    5    5    0  502  0.38648990573E+02 -0.89272193863E+02  0.40431135629E+01  0.97476693813E+02  0.47000000000E+01 0.  1.
         13    1    6    6    0    0  0.82921453701E+01 -0.13356664296E+02 -0.16857421247E+02  0.23050657411E+02  0.00000000000E+00 0. -1.
        -14    1    6    6    0    0  0.27230947123E+02  0.47168366477E+02  0.59328037262E+02  0.80536918756E+02  0.00000000000E+00 0.  1.
</event>
<event>
12    1  0.8313893E-002  0.1770482E+03  0.7818608E-02  0.1171704E+00
         21   -1    0    0  503  502  0.00000000000E+00  0.00000000000E+00  0.66853367904E+02  0.66853367904E+02  0.00000000000E+00 0. -1.
         21   -1    0    0  501  503 -0.00000000000E+00 -0.00000000000E+00 -0.54865021998E+03  0.54865021998E+03  0.00000000000E+00 0. -1.
          6    2    1    2  501    0  0.31003662389E+02 -0.26429106563E+00 -0.36815639657E+03  0.40851586731E+03  0.17431231907E+03 0.  0.
         24    2    3    3    0    0 -0.16454571013E+02 -0.59133147999E+02 -0.19498219579E+03  0.21949412240E+03  0.79950803587E+02 0.  0.
         -6    2    1    2    0  502 -0.31003662389E+02  0.26429106563E+00 -0.11364045551E+03  0.20698772057E+03  0.17020125266E+03 0.  0.
        -24    2    5    5    0    0 -0.74470223352E+02 -0.11687045084E+02 -0.34344605042E+02  0.11565263279E+03  0.80706743138E+02 0.  0.
          5    1    3    3  501    0  0.47458233402E+02  0.58868856933E+02 -0.17317420078E+03  0.18902174491E+03  0.47000000000E+01 0. -1.
        -11    1    4    4    0    0 -0.33121216343E+02  0.21300676360E+01 -0.39776663388E+02  0.51804778838E+02  0.00000000000E+00 0.  1.
         12    1    4    4    0    0  0.16666645330E+02 -0.61263215635E+02 -0.15520553240E+03  0.16768934356E+03  0.00000000000E+00 0. -1.
         -5    1    5    5    0  502  0.43466560963E+02  0.11951336149E+02 -0.79295850465E+02  0.91335087774E+02  0.47000000000E+01 0.  1.
         13    1    6    6    0    0 -0.55524402440E+02  0.44234890918E+01 -0.58645529835E+02  0.80881547288E+02  0.00000000000E+00 0. -1.
        -14    1    6    6    0    0 -0.18945820912E+02 -0.16110534176E+02  0.24300924794E+02  0.34771085507E+02  0.00000000000E+00 0.  1.
</event>
<event>
12    1  0.8313893E-002  0.1864488E+03  0.7818608E-02  0.1161881E+00
         21   -1    0    0  503  502  0.00000000000E+00  0.00000000000E+00  0.71102731769E+03  0.71102731769E+03  0.00000000000E+00 0.  1.
         21   -1    0    0  501  503 -0.00000000000E+00 -0.00000000000E+00 -0.50434316564E+02  0.50434316564E+02  0.00000000000E+00 0.  1.
          6    2    1    2  501    0  0.64545835939E+02 -0.31614555304E+02  0.25885624403E+03  0.31856710861E+03  0.17120982031E+03 0.  0.
         24    2    3    3    0    0  0.82927275191E+02  0.28459051133E+02  0.13742076780E+03  0.18176294059E+03  0.80414231254E+02 0.  0.
         -6    2    1    2    0  502 -0.64545835939E+02  0.31614555304E+02  0.40173675710E+03  0.44289452565E+03  0.17203922169E+03 0.  0.
        -24    2    5    5    0    0 -0.10123976304E+03  0.12275567780E+02  0.21089328881E+03  0.24753905449E+03  0.79996406464E+02 0.  0.
          5    1    3    3  501    0 -0.18381439252E+02 -0.60073606437E+02  0.12143547623E+03  0.13680416801E+03  0.47000000000E+01 0. -1.
        -13    1    4    4    0    0  0.40535206273E+02 -0.25485649900E+02  0.75158401823E+02  0.89114570430E+02  0.00000000000E+00 0.  1.
         14    1    4    4    0    0  0.42392068918E+02  0.53944701033E+02  0.62262365979E+02  0.92648370164E+02  0.00000000000E+00 0. -1.
         -5    1    5    5    0  502  0.36693927097E+02  0.19338987523E+02  0.19084346829E+03  0.19535547116E+03  0.47000000000E+01 0.  1.
         13    1    6    6    0    0 -0.63308841092E+02 -0.30342760906E+02  0.92584463710E+02  0.11619197657E+03  0.00000000000E+00 0. -1.
        -14    1    6    6    0    0 -0.37930921944E+02  0.42618328686E+02  0.11830882510E+03  0.13134707791E+03  0.00000000000E+00 0.  1.
</event>
<event>
12    1  0.8313893E-002  0.2235656E+03  0.7818608E-02  0.1131590E+00
         21   -1    0    0  501  502  0.00000000000E+00  0.00000000000E+00  0.33818841302E+02  0.33818841302E+02  0.00000000000E+00 0.  1.
         21   -1    0    0  502  503 -0.00000000000E+00 -0.00000000000E+00 -0.26974165803E+04  0.26974165803E+04  0.00000000000E+00 0.  1.
         -6    2    1    2    0  503  0.11346400943E+03 -0.86320926694E+02 -0.22515798624E+04  0.22624707521E+04  0.16981355548E+03 0.  0.
        -24    2    3    3    0    0 -0.46839094030E+01 -0.31642643374E+02 -0.11711825013E+04  0.11742478001E+04  0.78525466258E+02 0.  0.
          6    2    1    2  501    0 -0.11346400943E+03  0.86320926694E+02 -0.41201787661E+03  0.46876466949E+03  0.17220975842E+03 0.  0.
         24    2    5    5    0    0 -0.78466654610E+02  0.10019725872E+03 -0.40316899464E+03  0.42980622821E+03  0.77405742890E+02 0.  0.
          5    1    5    5  501    0 -0.34997354817E+02 -0.13876332026E+02 -0.88488819725E+01  0.38958441279E+02  0.47000000000E+01 0. -1.
        -11    1    6    6    0    0 -0.52078693943E+02  0.87754349356E+01 -0.12094868333E+03  0.13197644721E+03  0.00000000000E+00 0.  1.
         12    1    6    6    0    0 -0.26387960666E+02  0.91421823785E+02 -0.28222031131E+03  0.29782978100E+03  0.00000000000E+00 0. -1.
         -5    1    3    3    0  503  0.11814791883E+03 -0.54678283320E+02 -0.10803973611E+04  0.10882229520E+04  0.47000000000E+01 0.  1.
         13    1    4    4    0    0  0.17543321375E+02  0.21159249794E+02 -0.39014609180E+03  0.39111309736E+03  0.00000000000E+00 0. -1.
        -14    1    4    4    0    0 -0.22227230778E+02 -0.52801893168E+02 -0.78103640950E+03  0.78313470277E+03  0.00000000000E+00 0.  1.
</event>
<event>
12    1  0.8313893E-002  0.1850102E+03  0.7818608E-02  0.1163724E+00
         21   -1    0    0  503  502  0.00000000000E+00  0.00000000000E+00  0.97039144570E+03  0.97039144570E+03  0.00000000000E+00 0.  1.
         21   -1    0    0  501  503 -0.00000000000E+00 -0.00000000000E+00 -0.58510208916E+02  0.58510208916E+02  0.00000000000E+00 0. -1.
          6    2    1    2  501    0  0.23574910902E+02 -0.61099209641E+02  0.12577695078E+03  0.22131963427E+03  0.16992248034E+03 0.  0.
         24    2    3    3    0    0 -0.20547873126E+02  0.13628071112E+02  0.18199464602E+02  0.83022880543E+02  0.77159826138E+02 0.  0.
         -6    2    1    2    0  502 -0.23574910902E+02  0.61099209641E+02  0.78610428601E+03  0.80758202035E+03  0.17303144589E+03 0.  0.
        -24    2    5    5    0    0 -0.41722273732E+02  0.33367009169E+01  0.21797380594E+03  0.23621509221E+03  0.80827643861E+02 0.  0.
          5    1    3    3  501    0  0.44122784028E+02 -0.74727280753E+02  0.10757748618E+03  0.13829675373E+03  0.47000000000E+01 0. -1.
        -13    1    4    4    0    0 -0.19717193974E+02  0.24688539541E+02  0.44444239904E+02  0.54530561922E+02  0.00000000000E+00 0.  1.
         14    1    4    4    0    0 -0.83067915128E+00 -0.11060468429E+02 -0.26244775302E+02  0.28492318621E+02  0.00000000000E+00 0. -1.
         -5    1    5    5    0  502  0.18147362830E+02  0.57762508724E+02  0.56813048006E+03  0.57136692814E+03  0.47000000000E+01 0.  1.
         11    1    6    6    0    0 -0.25959358959E+02  0.29619771001E+02  0.41943325109E+02  0.57536611587E+02  0.00000000000E+00 0. -1.
        -12    1    6    6    0    0 -0.15762914773E+02 -0.26283070084E+02  0.17603048083E+03  0.17867848062E+03  0.00000000000E+00 0.  1.
</event>
<event>
12    1  0.8313893E-002  0.1974574E+03  0.7818608E-02  0.1152256E+00
         21   -1    0    0  503  502  0.00000000000E+00  0.00000000000E+00  0.12795906118E+04  0.12795906118E+04  0.00000000000E+00 0. -1.
         21   -1    0    0  501  503 -0.00000000000E+00 -0.00000000000E+00 -0.33101329416E+02  0.33101329416E+02  0.00000000000E+00 0. -1.
          6    2    1    2  501    0  0.95871944488E+02 -0.11128974546E+02  0.42713540337E+03  0.46988105132E+03  0.17037683458E+03 0.  0.
         24    2    3    3    0    0  0.34195119627E+02  0.34732170103E+02  0.34252686506E+03  0.35547838496E+03  0.81636995564E+02 0.  0.
         -6    2    1    2    0  502 -0.95871944488E+02  0.11128974546E+02  0.81935387903E+03  0.84281088991E+03  0.17226181602E+03 0.  0.
        -24    2    5    5    0    0 -0.30884089504E+02 -0.52768050499E+02  0.53409368341E+03  0.54330843531E+03  0.78674640691E+02 0.  0.
          5    1    3    3  501    0  0.61676824861E+02 -0.45861144649E+02  0.84608538312E+02  0.11440266635E+03  0.47000000000E+01 0. -1.
        -13    1    4    4    0    0 -0.27115556286E+02  0.89777420536E+01  0.10599327182E+03  0.10977443653E+03  0.00000000000E+00 0.  1.
         14    1    4    4    0    0  0.61310675913E+02  0.25754428049E+02  0.23653359324E+03  0.24570394843E+03  0.00000000000E+00 0. -1.
         -5    1    5    5    0  502 -0.64987854985E+02  0.63897025045E+02  0.28526019562E+03  0.29950245460E+03  0.47000000000E+01 0.  1.
         11    1    6    6    0    0 -0.50419312434E+02 -0.37324996974E+02  0.23662347068E+03  0.24479773149E+03  0.00000000000E+00 0. -1.
        -12    1    6    6    0    0  0.19535222930E+02 -0.15443053525E+02  0.29747021272E+03  0.29851070382E+03  0.00000000000E+00 0.  1.
</event>
<event>
12    1  0.8313893E-002  0.2301590E+03  0.7818608E-02  0.1126607E+00
         21   -1    0    0  501  502  0.00000000000E+00  0.00000000000E+00  0.22196327867E+03  0.22196327867E+03  0.00000000000E+00 0.  1.
         21   -1    0    0  502  503 -0.00000000000E+00 -0.00000000000E+00 -0.23854952211E+03  0.23854952211E+03  0.00000000000E+00 0.  1.
         -6    2    1    2    0  503 -0.13075726187E+03 -0.78403949744E+02 -0.17195148468E+02  0.23080038971E+03  0.17241956354E+03 0.  0.
        -24    2    3    3    0    0 -0.13280280745E+03 -0.43051334854E+02  0.37695379224E+02  0.16530953793E+03  0.80101801580E+02 0.  0.
          6    2    1    2  501    0  0.13075726187E+03  0.78403949744E+02  0.60890503521E+00  0.22971241107E+03  0.17182194321E+03 0.  0.
         24    2    5    5    0    0  0.12461761447E+03  0.73247908024E+02 -0.55232404000E+02  0.17310303172E+03  0.77583730715E+02 0.  0.
          5    1    5    5  501    0  0.61396474011E+01  0.51560417200E+01  0.55841309035E+02  0.56609379357E+02  0.47000000000E+01 0. -1.
        -11    1    6    6    0    0  0.81148927005E+02  0.62964650499E+02 -0.83397361367E+00  0.10271509664E+03  0.00000000000E+00 0.  1.
         12    1    6    6    0    0  0.43468687463E+02  0.10283257525E+02 -0.54398430387E+02  0.70387935071E+02  0.00000000000E+00 0. -1.
         -5    1    3    3    0  503  0.20455455810E+01 -0.35352614890E+02 -0.54890527692E+02  0.65490851778E+02  0.47000000000E+01 0.  1.
         11    1    4    4    0    0 -0.14851413538E+02 -0.39742301362E+02  0.15944699035E+02  0.45323817458E+02  0.00000000000E+00 0. -1.
        -12    1    4    4    0    0 -0.11795139391E+03 -0.33090334922E+01  0.21750680189E+02  0.11998572047E+03  0.00000000000E+00 0.  1.
</event>
<event>
12    1  0.8313893E-002  0.2680442E+03  0.7818608E-02  0.1102424E+00
         21   -1    0    0  501  502  0.00000000000E+00  0.00000000000E+00  0.60081251282E+03  0.60081251282E+03  0.00000000000E+00 0.  1.
         21   -1    0    0  502  503 -0.00000000000E+00 -0.00000000000E+00 -0.24927678148E+03  0.24927678148E+03  0.00000000000E+00 0. -1.
         -6    2    1    2    0  503 -0.18000328531E+03 -0.10403104672E+03 -0.13091129134E+03  0.29818094514E+03  0.16896883867E+03 0.  0.
        -24    2    3    3    0    0 -0.49047605877E+02 -0.67807322657E+02 -0.11255012064E+03  0.16099213091E+03  0.79040723122E+02 0.  0.
          6    2    1    2  501    0  0.18000328531E+03  0.10403104672E+03  0.48244702268E+03  0.55190834916E+03  0.16918644974E+03 0.  0.
         24    2    5    5    0    0  0.15212856947E+03  0.91120729218E+02  0.48313852861E+03  0.52082387938E+03  0.79928634220E+02 0.  0.
          5    1    5    5  501    0  0.27874715837E+02  0.12910317501E+02 -0.69150592512E+00  0.31084469778E+02  0.47000000000E+01 0. -1.
        -13    1    6    6    0    0  0.31069630879E+02  0.83085869661E+01  0.19360742955E+03  0.19626051910E+03  0.00000000000E+00 0.  1.
         14    1    6    6    0    0  0.12105893859E+03  0.82812142252E+02  0.28953109906E+03  0.32456336028E+03  0.00000000000E+00 0. -1.
         -5    1    3    3    0  503 -0.13095567943E+03 -0.36223724062E+02 -0.18361170699E+02  0.13718881423E+03  0.47000000000E+01 0.  1.
         11    1    4    4    0    0 -0.54474115380E+02 -0.10159199385E+02 -0.69239057150E+02  0.88683062721E+02  0.00000000000E+00 0. -1.
        -12    1    4    4    0    0  0.54265095026E+01 -0.57648123272E+02 -0.43311063490E+02  0.72309068192E+02  0.00000000000E+00 0.  1.
</event>
<event>
12    1  0.8313893E-002  0.1969702E+03  0.7818608E-02  0.1153057E+00
         21   -1    0    0  501  502  0.00000000000E+00  0.00000000000E+00  0.21896719275E+04  0.21896719275E+04  0.00000000000E+00 0. -1.
         21   -1    0    0  502  503 -0.00000000000E+00 -0.00000000000E+00 -0.33421625433E+02  0.33421625433E+02  0.00000000000E+00 0. -1.
         -6    2    1    2    0  503 -0.75653911214E+01 -0.96261006394E+02  0.31376592941E+03  0.37046771544E+03  0.17167950732E+03 0.  0.
        -24    2    3    3    0    0 -0.25993151704E+02 -0.78583235877E+02  0.32299243848E+03  0.34291223685E+03  0.80085691426E+02 0.  0.
          6    2    1    2  501    0  0.75653911214E+01  0.96261006394E+02  0.18424843726E+04  0.18526258375E+04  0.16778085038E+03 0.  0.
         24    2    5    5    0    0 -0.56953327423E+02  0.50032258030E+02  0.12497100179E+04  0.12545428267E+04  0.79722435158E+02 0.  0.
          5    1    5    5  501    0  0.64518718545E+02  0.46228748364E+02  0.59277435471E+03  0.59808301081E+03  0.47000000000E+01 0. -1.
        -11    1    6    6    0    0 -0.31016608357E+02 -0.14081248117E+02  0.64338474320E+03  0.64428583666E+03  0.00000000000E+00 0.  1.
         12    1    6    6    0    0 -0.25936719067E+02  0.64113506147E+02  0.60632527474E+03  0.61025699001E+03  0.00000000000E+00 0. -1.
         -5    1    3    3    0  503  0.18427760583E+02 -0.17677770517E+02 -0.92265090736E+01  0.27555478588E+02  0.47000000000E+01 0.  1.
         11    1    4    4    0    0 -0.13265658045E+02 -0.31612109851E+02  0.28953175146E+02  0.44873037825E+02  0.00000000000E+00 0. -1.
        -12    1    4    4    0    0 -0.12727493660E+02 -0.46971126026E+02  0.29403926333E+03  0.29803919903E+03  0.00000000000E+00 0.  1.
</event>
<event>
12    1  0.8313893E-002  0.1925293E+03  0.7818608E-02  0.1156331E+00
         21   -1    0    0  501  502  0.00000000000E+00  0.00000000000E+00  0.11575790492E+03  0.11575790492E+03  0.00000000000E+00 0. -1.
         21   -1    0    0  502  503 -0.00000000000E+00 -0.00000000000E+00 -0.39290680605E+03  0.39290680605E+03  0.00000000000E+00 0.  1.
         -6    2    1    2    0  503  0.29926045324E+02 -0.83586241768E+02 -0.24887904769E+03  0.31465584047E+03  0.17083702631E+03 0.  0.
        -24    2    3    3    0    0  0.13478788089E+02  0.68452334138E+01 -0.50361258361E+02  0.95841383322E+02  0.80129766407E+02 0.  0.
          6    2    1    2  501    0 -0.29926045324E+02  0.83586241768E+02 -0.28269853442E+02  0.19400887050E+03  0.17017058858E+03 0.  0.
         24    2    5    5    0    0  0.28142231642E+02  0.20157056780E+02 -0.55574313504E+02  0.10366060080E+03  0.80366185038E+02 0.  0.
          5    1    5    5  501    0 -0.58068276966E+02  0.63429184988E+02  0.27304460061E+02  0.90348269698E+02  0.47000000000E+01 0. -1.
        -13    1    6    6    0    0 -0.66235062954E+01  0.43719801347E+02 -0.19626793085E+02  0.48378744013E+02  0.00000000000E+00 0.  1.
         14    1    6    6    0    0  0.34765737937E+02 -0.23562744567E+02 -0.35947520419E+02  0.55281856790E+02  0.00000000000E+00 0. -1.
         -5    1    3    3    0  503  0.16447257235E+02 -0.90431475182E+02 -0.19851778933E+03  0.21881445714E+03  0.47000000000E+01 0.  1.
         11    1    4    4    0    0  0.24276834969E+02 -0.32218533195E+02 -0.18976421938E+02  0.44581421993E+02  0.00000000000E+00 0. -1.
        -12    1    4    4    0    0 -0.10798046880E+02  0.39063766609E+02 -0.31384836423E+02  0.51259961328E+02  0.00000000000E+00 0.  1.
</event>
<event>
12    1  0.8313893E-002  0.1930215E+03  0.7818608E-02  0.1156370E+00
         21   -1    0    0  503  502  0.00000000000E+00  0.00000000000E+00  0.16755449241E+03  0.16755449241E+03  0.00000000000E+00 0. -1.
         21   -1    0    0  501  503 -0.00000000000E+00 -0.00000000000E+00 -0.27667884825E+03  0.27667884825E+03  0.00000000000E+00 0. -1.
          6    2    1    2  501    0 -0.63017057248E+02 -0.50630519582E+02 -0.15546052915E+03  0.24572806992E+03  0.17227799978E+03 0.  0.
         24    2    3    3    0    0 -0.82303969709E+02 -0.37920355905E+02 -0.40599034478E+02  0.12847285166E+03  0.81517453290E+02 0.  0.
         -6    2    1    2    0  502  0.63017057248E+02  0.50630519582E+02  0.46336173311E+02  0.19850527074E+03  0.17527892781E+03 0.  0.
        -24    2    5    5    0    0 -0.32942788180E+02  0.36962221168E+02  0.40317096360E+02  0.10127650131E+03  0.78613156485E+02 0.  0.
          5    1    3    3  501    0  0.19286912461E+02 -0.12710163677E+02 -0.11486149467E+03  0.11725521827E+03  0.47000000000E+01 0. -1.
        -11    1    4    4    0    0 -0.13915093066E+02 -0.22905863933E+02  0.21905957274E+02  0.34614727814E+02  0.00000000000E+00 0.  1.
         12    1    4    4    0    0 -0.68388876643E+02 -0.15014491972E+02 -0.62504991752E+02  0.93858123844E+02  0.00000000000E+00 0. -1.
         -5    1    5    5    0  502  0.95959845428E+02  0.13668298414E+02  0.60190769513E+01  0.97228769423E+02  0.47000000000E+01 0.  1.
         13    1    6    6    0    0 -0.13768873835E+02  0.60443459312E+02  0.32382775767E+02  0.69940244686E+02  0.00000000000E+00 0. -1.
        -14    1    6    6    0    0 -0.19173914346E+02 -0.23481238144E+02  0.79343205928E+01  0.31336256627E+02  0.00000000000E+00 0.  1.
</event>
<event>
12    1  0.8313893E-002  0.1835858E+03  0.7818608E-02  0.1164543E+00
         21   -1    0    0  503  502  0.00000000000E+00  0.00000000000E+00  0.91694124293E+02  0.91694124293E+02  0.00000000000E+00 0. -1.
         21   -1    0    0  501  503 -0.00000000000E+00 -0.00000000000E+00 -0.41257930781E+03  0.41257930781E+03  0.00000000000E+00 0. -1.
          6    2    1    2  501    0 -0.54160049822E+02  0.66564456612E+02 -0.24528867396E+03  0.30638258166E+03  0.16229483938E+03 0.  0.
         24    2    3    3    0    0  0.28310353842E+02  0.40546483341E+02 -0.15218967147E+03  0.17922985193E+03  0.80722675090E+02 0.  0.
         -6    2    1    2    0  502  0.54160049822E+02 -0.66564456612E+02 -0.75596509556E+02  0.19789085044E+03  0.16149866424E+03 0.  0.
        -24    2    5    5    0    0 -0.20217621737E+02  0.57792011180E+00 -0.31800330691E+02  0.88436147202E+02  0.80003780408E+02 0.  0.
          5    1    3    3  501    0 -0.82470403663E+02  0.26017973271E+02 -0.93099002490E+02  0.12715272973E+03  0.47000000000E+01 0. -1.
        -13    1    4    4    0    0 -0.16281025082E+02 -0.15793570345E+02 -0.40669673610E+02  0.46567488590E+02  0.00000000000E+00 0.  1.
         14    1    4    4    0    0  0.44591378924E+02  0.56340053685E+02 -0.11151999786E+03  0.13266236334E+03  0.00000000000E+00 0. -1.
         -5    1    5    5    0  502  0.74377671558E+02 -0.67142376723E+02 -0.43796178864E+02  0.10945470324E+03  0.47000000000E+01 0.  1.
         13    1    6    6    0    0 -0.23166376291E+02  0.19388809640E+02  0.17968538312E+02  0.35149328568E+02  0.00000000000E+00 0. -1.
        -14    1    6    6    0    0  0.29487545539E+01 -0.18810889528E+02 -0.49768869004E+02  0.53286818634E+02  0.00000000000E+00 0.  1.
</event>
<event>
12    1  0.8313893E-002  0.1830549E+03  0.7818608E-02  0.1165090E+00
         21   -1    0    0  501  502  0.00000000000E+00  0.00000000000E+00  0.74563547769E+03  0.74563547769E+03  0.00000000000E+00 0. -1.
         21   -1    0    0  502  503 -0.00000000000E+00 -0.00000000000E+00 -0.79574557098E+02  0.79574557098E+02  0.00000000000E+00 0. -1.
         -6    2    1    2    0  503 -0.42944892334E+02 -0.41632151205E+02  0.59509353513E+02  0.19163770224E+03  0.17206436579E+03 0.  0.
        -24    2    3    3    0    0 -0.67395298277E+02 -0.60017632647E+02 -0.49522928658E+01  0.12013076459E+03  0.79136798886E+02 0.  0.
          6    2    1    2  501    0  0.42944892334E+02  0.41632151205E+02  0.60655156708E+03  0.63357233254E+03  0.17300750634E+03 0.  0.
         24    2    5    5    0    0  0.60648409419E+02 -0.21705819243E+02  0.46865013426E+03  0.48071943532E+03  0.85491841689E+02 0.  0.
          5    1    5    5  501    0 -0.17703517085E+02  0.63337970448E+02  0.13790143281E+03  0.15285289722E+03  0.47000000000E+01 0. -1.
        -11    1    6    6    0    0 -0.65066507124E+01 -0.37318527543E+02  0.18104887538E+03  0.18496946851E+03  0.00000000000E+00 0.  1.
         12    1    6    6    0    0  0.67155060132E+02  0.15612708300E+02  0.28760125888E+03  0.29574996681E+03  0.00000000000E+00 0. -1.
         -5    1    3    3    0  503  0.24450405943E+02  0.18385481442E+02  0.64461646379E+02  0.71506937653E+02  0.47000000000E+01 0.  1.
         13    1    4    4    0    0 -0.32211808019E+02  0.15819243734E+02  0.37314212000E+01  0.36080085260E+02  0.00000000000E+00 0. -1.
        -14    1    4    4    0    0 -0.35183490258E+02 -0.75836876380E+02 -0.86837140658E+01  0.84050679330E+02  0.00000000000E+00 0.  1.
</event>
<event>
12    1  0.8313893E-002  0.1840910E+03  0.7818608E-02  0.1164151E+00
         21   -1    0    0  503  502  0.00000000000E+00  0.00000000000E+00  0.23358558135E+03  0.23358558135E+03  0.00000000000E+00 0. -1.
         21   -1    0    0  501  503 -0.00000000000E+00 -0.00000000000E+00 -0.19100216175E+03  0.19100216175E+03  0.00000000000E+00 0. -1.
          6    2    1    2  501    0 -0.25158445715E+02  0.58851995146E+02 -0.83786580279E+02  0.20129670819E+03  0.17147498059E+03 0.  0.
         24    2    3    3    0    0 -0.52946304047E+02  0.27326599473E+02 -0.11151116020E+03  0.15073231385E+03  0.82069710834E+02 0.  0.
         -6    2    1    2    0  502  0.25158445715E+02 -0.58851995146E+02  0.12636999988E+03  0.22329103491E+03  0.17260650242E+03 0.  0.
        -24    2    5    5    0    0  0.14275164722E+02  0.20580358989E+02  0.11434007583E+03  0.14208294565E+03  0.80539300957E+02 0.  0.
          5    1    3    3  501    0  0.27787858332E+02  0.31525395673E+02  0.27724579926E+02  0.50564394342E+02  0.47000000000E+01 0. -1.
        -11    1    4    4    0    0  0.21674368528E+02  0.10406938437E+02 -0.18775515877E+02  0.30505780029E+02  0.00000000000E+00 0.  1.
         12    1    4    4    0    0 -0.74620672575E+02  0.16919661036E+02 -0.92735644328E+02  0.12022653382E+03  0.00000000000E+00 0. -1.
         -5    1    5    5    0  502  0.10883280993E+02 -0.79432354135E+02  0.12029924046E+02  0.81208089259E+02  0.47000000000E+01 0.  1.
         13    1    6    6    0    0 -0.47688008368E+01 -0.19065322136E+02  0.89372828072E+02  0.91508089081E+02  0.00000000000E+00 0. -1.
        -14    1    6    6    0    0  0.19043965558E+02  0.39645681125E+02  0.24967247760E+02  0.50574856567E+02  0.00000000000E+00 0.  1.
</event>
<event>
12    1  0.8313893E-002  0.2585829E+03  0.7818608E-02  0.1108512E+00
         21   -1    0    0  503  502  0.00000000000E+00  0.00000000000E+00  0.43359254274E+03  0.43359254274E+03  0.00000000000E+00 0. -1.
         21   -1    0    0  501  503 -0.00000000000E+00 -0.00000000000E+00 -0.16302704442E+03  0.16302704442E+03  0.00000000000E+00 0. -1.
          6    2    1    2  501    0 -0.17996104530E+03  0.57836246347E+02  0.57601609833E+02  0.26162896144E+03  0.17146649467E+03 0.  0.
         24    2    3    3    0    0 -0.51301943323E+02  0.77530692568E+02  0.33415510172E+02  0.12915974559E+03  0.83203040096E+02 0.  0.
         -6    2    1    2    0  502  0.17996104530E+03 -0.57836246347E+02  0.21296388848E+03  0.33499062572E+03  0.17644855428E+03 0.  0.
        -24    2    5    5    0    0  0.86342953505E+02 -0.87499173798E+02  0.17928028819E+03  0.23106319284E+03  0.78342621333E+02 0.  0.
          5    1    3    3  501    0 -0.12865910197E+03 -0.19694446221E+02  0.24186099661E+02  0.13246921586E+03  0.47000000000E+01 0. -1.
        -13    1    4    4    0    0 -0.12239906097E+01 -0.32652307626E+00 -0.21491785616E+02  0.21529087749E+02  0.00000000000E+00 0.  1.
         14    1    4    4    0    0 -0.50077952713E+02  0.77857215644E+02  0.54907295788E+02  0.10763065784E+03  0.00000000000E+00 0. -1.
         -5    1    5    5    0  502  0.93618091793E+02  0.29662927451E+02  0.33683600289E+02  0.10392743288E+03  0.47000000000E+01 0.  1.
         11    1    6    6    0    0  0.89900840880E+02 -0.41176915563E+02  0.11352167460E+03  0.15054856416E+03  0.00000000000E+00 0. -1.
        -12    1    6    6    0    0 -0.35578873758E+01 -0.46322258235E+02  0.65758613595E+02  0.80514628686E+02  0.00000000000E+00 0.  1.
</event>
<event>
12    1  0.8313893E-002  0.1773491E+03  0.7818608E-02  0.1170478E+00
         21   -1    0    0  501  502  0.00000000000E+00  0.00000000000E+00  0.42265732067E+02  0.42265732067E+02  0.00000000000E+00 0. -1.
         21   -1    0    0  502  503 -0.00000000000E+00 -0.00000000000E+00 -0.74791585338E+03  0.74791585338E+03  0.00000000000E+00 0.  1.
         -6    2    1    2    0  503 -0.30799709010E+02 -0.29052681131E+02 -0.32024787297E+03  0.36607568629E+03  0.17222086865E+03 0.  0.
        -24    2    3    3    0    0 -0.77183388573E+02  0.50694918402E+01 -0.24691221738E+03  0.27271629041E+03  0.86171670208E+02 0.  0.
          6    2    1    2  501    0  0.30799709010E+02  0.29052681131E+02 -0.38540224835E+03  0.42410589916E+03  0.17186692618E+03 0.  0.
         24    2    5    5    0    0  0.65397790447E+02  0.63539326157E+02 -0.32256611474E+03  0.34437619572E+03  0.78942693351E+02 0.  0.
          5    1    5    5  501    0 -0.34598081437E+02 -0.34486645026E+02 -0.62836133606E+02  0.79729703441E+02  0.47000000000E+01 0. -1.
        -11    1    6    6    0    0  0.71287853062E+01  0.16084906873E+01 -0.16639759058E+03  0.16655799282E+03  0.00000000000E+00 0.  1.
         12    1    6    6    0    0  0.58269005141E+02  0.61930835470E+02 -0.15616852417E+03  0.17781820290E+03  0.00000000000E+00 0. -1.
         -5    1    3    3    0  503  0.46383679562E+02 -0.34122172971E+02 -0.73335655587E+02  0.93359395876E+02  0.47000000000E+01 0.  1.
         13    1    4    4    0    0  0.15826162704E+01 -0.22131934186E+02 -0.16362839815E+02  0.27569361833E+02  0.00000000000E+00 0. -1.
        -14    1    4    4    0    0 -0.78766004843E+02  0.27201426027E+02 -0.23054937756E+03  0.24514692858E+03  0.00000000000E+00 0.  1.
</event>
<event>
12    1  0.8313893E-002  0.3639555E+03  0.7818608E-02  0.1057072E+00
         21   -1    0    0  501  502  0.00000000000E+00  0.00000000000E+00  0.36370796458E+03  0.36370796458E+03  0.00000000000E+00 0. -1.
         21   -1    0    0  502  503 -0.00000000000E+00 -0.00000000000E+00 -0.71771638365E+03  0.71771638365E+03  0.00000000000E+00 0. -1.
         -6    2    1    2    0  503 -0.30170395464E+02  0.31903089087E+03 -0.55667325993E+03  0.66484704664E+03  0.17159695514E+03 0.  0.
        -24    2    3    3    0    0 -0.10948595965E+02  0.10524777980E+03 -0.11936969620E+03  0.17768260520E+03  0.78262487263E+02 0.  0.
          6    2    1    2  501    0  0.30170395464E+02 -0.31903089087E+03  0.20266484086E+03  0.41657730159E+03  0.17254752501E+03 0.  0.
         24    2    5    5    0    0  0.39955034536E+02 -0.16049378589E+03  0.39348377454E+02  0.18870867708E+03  0.81902441368E+02 0.  0.
          5    1    5    5  501    0 -0.97846390718E+01 -0.15853710498E+03  0.16331646341E+03  0.22786862451E+03  0.47000000000E+01 0. -1.
        -11    1    6    6    0    0  0.59557154351E+02 -0.71919297449E+02  0.13262675911E+02  0.94315102461E+02  0.00000000000E+00 0.  1.
         12    1    6    6    0    0 -0.19602119815E+02 -0.88574488442E+02  0.26085701543E+02  0.94393574617E+02  0.00000000000E+00 0. -1.
         -5    1    3    3    0  503 -0.19221799499E+02  0.21378311107E+03 -0.43730356373E+03  0.48716444144E+03  0.47000000000E+01 0.  1.
         13    1    4    4    0    0  0.16703435684E+02  0.66187610307E+02 -0.26535802561E+02  0.73239015145E+02  0.00000000000E+00 0. -1.
        -14    1    4    4    0    0 -0.27652031650E+02  0.39060169493E+02 -0.92833893636E+02  0.10444359005E+03  0.00000000000E+00 0.  1.
</event>
<event>
12    1  0.8313893E-002  0.2563874E+03  0.7818608E-02  0.1109450E+00
         21   -1    0    0  503  502  0.00000000000E+00  0.00000000000E+00  0.88736984748E+02  0.88736984748E+02  0.00000000000E+00 0. -1.
         21   -1    0    0  501  503 -0.00000000000E+00 -0.00000000000E+00 -0.74370269896E+03  0.74370269896E+03  0.00000000000E+00 0.  1.
          6    2    1    2  501    0  0.69898189064E+02  0.17617165393E+03 -0.36156510573E+03  0.44280084673E+03  0.17152567067E+03 0.  0.
         24    2    3    3    0    0  0.10021662140E+02  0.13826043841E+03 -0.32643697373E+03  0.36356364336E+03  0.80006514853E+02 0.  0.
         -6    2    1    2    0  502 -0.69898189064E+02 -0.17617165393E+03 -0.29340060848E+03  0.38963883698E+03  0.17266238080E+03 0.  0.
        -24    2    5    5    0    0 -0.77748479492E+02 -0.19637093369E+03 -0.22983121867E+03  0.32231279979E+03  0.80354104880E+02 0.  0.
          5    1    3    3  501    0  0.59876526924E+02  0.37911215522E+02 -0.35128132006E+02  0.79237203365E+02  0.47000000000E+01 0. -1.
        -11    1    4    4    0    0  0.29577456611E+02  0.10288422325E+03 -0.16159030093E+03  0.19383347153E+03  0.00000000000E+00 0.  1.
         12    1    4    4    0    0 -0.19555794471E+02  0.35376215160E+02 -0.16484667280E+03  0.16973017183E+03  0.00000000000E+00 0. -1.
         -5    1    5    5    0  502  0.78502904278E+01  0.20199279765E+02 -0.63569389806E+02  0.67326037186E+02  0.47000000000E+01 0.  1.
         11    1    6    6    0    0  0.80969706630E+01 -0.22844556645E+02 -0.35199534976E+01  0.24491320399E+02  0.00000000000E+00 0. -1.
        -12    1    6    6    0    0 -0.85845450155E+02 -0.17352637705E+03 -0.22631126517E+03  0.29782147939E+03  0.00000000000E+00 0.  1.
</event>
<event>
12    1  0.8313893E-002  0.2395739E+03  0.7818608E-02  0.1120323E+00
         21   -1    0    0  503  502  0.00000000000E+00  0.00000000000E+00  0.80910198322E+03  0.80910198322E+03  0.00000000000E+00 0. -1.
         21   -1    0    0  501  503 -0.00000000000E+00 -0.00000000000E+00 -0.18853430299E+03  0.18853430299E+03  0.00000000000E+00 0. -1.
          6    2    1    2  501    0 -0.90215006145E+02 -0.13844374906E+03 -0.84751246905E+02  0.25274002173E+03  0.17143315241E+03 0.  0.
         24    2    3    3    0    0  0.18314854018E+02 -0.50459690154E+02 -0.15903795338E+02  0.96913237268E+02  0.79105187210E+02 0.  0.
         -6    2    1    2    0  502  0.90215006145E+02  0.13844374906E+03  0.70531892713E+03  0.74489626448E+03  0.17346537660E+03 0.  0.
        -24    2    5    5    0    0  0.43117349909E+02  0.16270396833E+03  0.54813010431E+03  0.57895301068E+03  0.80051796673E+02 0.  0.
          5    1    3    3  501    0 -0.10852986016E+03 -0.87984058904E+02 -0.68847451567E+02  0.15582678446E+03  0.47000000000E+01 0. -1.
        -13    1    4    4    0    0 -0.39127455748E+01 -0.40906585290E+02  0.25927825527E+02  0.48589200802E+02  0.00000000000E+00 0.  1.
         14    1    4    4    0    0  0.22227599593E+02 -0.95531048637E+01 -0.41831620865E+02  0.48324036466E+02  0.00000000000E+00 0. -1.
         -5    1    5    5    0  502  0.47097656235E+02 -0.24260219271E+02  0.15718882282E+03  0.16594325380E+03  0.47000000000E+01 0.  1.
         11    1    6    6    0    0  0.35617653758E+02  0.15801783101E+02  0.10137854295E+03  0.10860903544E+03  0.00000000000E+00 0. -1.
        -12    1    6    6    0    0  0.74996961513E+01  0.14690218523E+03  0.44675156136E+03  0.47034397524E+03  0.00000000000E+00 0.  1.
</event>
<event>
12    1  0.8313893E-002  0.2244079E+03  0.7818608E-02  0.1130803E+00
         21   -1    0    0  503  502  0.00000000000E+00  0.00000000000E+00  0.25786355085E+03  0.25786355085E+03  0.00000000000E+00 0.  1.
         21   -1    0    0  501  503 -0.00000000000E+00 -0.00000000000E+00 -0.19477861650E+03  0.19477861650E+03  0.00000000000E+00 0. -1.
          6    2    1    2  501    0 -0.13744442393E+03  0.40952265485E+02  0.23079852047E+02  0.22469633009E+03  0.17142842082E+03 0.  0.
         24    2    3    3    0    0 -0.13965309442E+03 -0.64976862990E+00 -0.23141585602E+02  0.16229345542E+03  0.79373948556E+02 0.  0.
         -6    2    1    2    0  502  0.13744442393E+03 -0.40952265485E+02  0.40005082312E+02  0.22794583726E+03  0.17260023290E+03 0.  0.
        -24    2    5    5    0    0  0.14594580807E+03  0.46461040280E+01 -0.41192571106E+01  0.16375446585E+03  0.74005348654E+02 0.  0.
          5    1    3    3  501    0  0.22086704857E+01  0.41602034115E+02  0.46221437650E+02  0.62402874663E+02  0.47000000000E+01 0. -1.
        -11    1    4    4    0    0 -0.95011878684E+02  0.36852053900E+01  0.23125698039E+02  0.97855177378E+02  0.00000000000E+00 0.  1.
         12    1    4    4    0    0 -0.44641215735E+02 -0.43349740199E+01 -0.46267283641E+02  0.64438278047E+02  0.00000000000E+00 0. -1.
         -5    1    5    5    0  502 -0.85013841390E+01 -0.45598369513E+02  0.44124339422E+02  0.64191371414E+02  0.47000000000E+01 0.  1.
         13    1    6    6    0    0  0.64558178199E+02 -0.62949608174E+01 -0.37710797180E+02  0.75029921551E+02  0.00000000000E+00 0. -1.
        -14    1    6    6    0    0  0.81387629874E+02  0.10941064845E+02  0.33591540069E+02  0.88724544297E+02  0.00000000000E+00 0.  1.
</event>
<event>
12    1  0.8313893E-002  0.1592471E+03  0.7818608E-02  0.1189675E+00
         21   -1    0    0  501  502  0.00000000000E+00  0.00000000000E+00  0.11796661134E+03  0.11796661134E+03  0.00000000000E+00 0. -1.
         21   -1    0    0  502  503 -0.00000000000E+00 -0.00000000000E+00 -0.28592817563E+03  0.28592817563E+03  0.00000000000E+00 0. -1.
         -6    2    1    2    0  503  0.33163318523E+02  0.32832624321E+02 -0.18509111766E+03  0.24416872927E+03  0.15225590169E+03 0.  0.
        -24    2    3    3    0    0 -0.12286240321E+02  0.50463111883E+01 -0.42496136367E+02  0.91875721266E+02  0.80366719444E+02 0.  0.
          6    2    1    2  501    0 -0.33163318523E+02 -0.32832624321E+02  0.17129553371E+02  0.15972605770E+03  0.15179329694E+03 0.  0.
         24    2    5    5    0    0 -0.67999494353E+02  0.71511909462E+01  0.25788575616E+01  0.10453477779E+03  0.79030364399E+02 0.  0.
          5    1    5    5  501    0  0.34836175830E+02 -0.39983815267E+02  0.14550695810E+02  0.55191279912E+02  0.47000000000E+01 0. -1.
        -13    1    6    6    0    0  0.95850749979E+01  0.21661322059E+01 -0.21090095407E+02  0.23267099426E+02  0.00000000000E+00 0.  1.
         14    1    6    6    0    0 -0.77584569351E+02  0.49850587403E+01  0.23668952968E+02  0.81267678364E+02  0.00000000000E+00 0. -1.
         -5    1    3    3    0  503  0.45449558844E+02  0.27786313132E+02 -0.14259498129E+03  0.15229300800E+03  0.47000000000E+01 0.  1.
         13    1    4    4    0    0  0.30074895532E+02 -0.15175722116E+02 -0.24278998701E+02  0.41524350217E+02  0.00000000000E+00 0. -1.
        -14    1    4    4    0    0 -0.42361135853E+02  0.20222033305E+02 -0.18217137666E+02  0.50351371049E+02  0.00000000000E+00 0.  1.
</event>
<event>
12    1  0.8313893E-002  0.3071288E+03  0.7818608E-02  0.1081751E+00
         21   -1    0    0  503  502  0.00000000000E+00  0.00000000000E+00  0.74042796630E+03  0.74042796630E+03  0.00000000000E+00 0.  1.
         21   -1    0    0  501  503 -0.00000000000E+00 -0.00000000000E+00 -0.14039829271E+03  0.14039829271E+03  0.00000000000E+00 0. -1.
          6    2    1    2  501    0  0.21146350912E+03  0.14188277920E+03  0.16570581594E+03  0.34897922045E+03  0.17169898120E+03 0.  0.
         24    2    3    3    0    0  0.17294049148E+03  0.91248090627E+02  0.50337455603E+02  0.21714658738E+03  0.79900896968E+02 0.  0.
         -6    2    1    2    0  502 -0.21146350912E+03 -0.14188277920E+03  0.43432385765E+03  0.53184703856E+03  0.17139580036E+03 0.  0.
        -24    2    5    5    0    0 -0.71322561687E+02 -0.23457370401E+01  0.19129832134E+03  0.21848850177E+03  0.77780250517E+02 0.  0.
          5    1    3    3  501    0  0.38523017636E+02  0.50634688578E+02  0.11536836034E+03  0.13183263307E+03  0.47000000000E+01 0. -1.
        -13    1    4    4    0    0  0.79642195848E+02  0.75850161180E+02  0.53981863289E+02  0.12251599028E+03  0.00000000000E+00 0.  1.
         14    1    4    4    0    0  0.93298295634E+02  0.15397929446E+02 -0.36444076857E+01  0.94630597096E+02  0.00000000000E+00 0. -1.
         -5    1    5    5    0  502 -0.14014094743E+03 -0.13953704216E+03  0.24302553632E+03  0.31335853680E+03  0.47000000000E+01 0.  1.
         11    1    6    6    0    0 -0.70121976550E+02  0.69460168673E+01  0.79240083550E+02  0.10603928322E+03  0.00000000000E+00 0. -1.
        -12    1    6    6    0    0 -0.12005851374E+01 -0.92917539074E+01  0.11205823779E+03  0.11244921854E+03  0.00000000000E+00 0.  1.
</event>
<event>
12    1  0.8313893E-002  0.2488582E+03  0.7818608E-02  0.1114109E+00
         21   -1    0    0  503  502  0.00000000000E+00  0.00000000000E+00  0.40360625631E+03  0.40360625631E+03  0.00000000000E+00 0. -1.
         21   -1    0    0  501  503 -0.00000000000E+00 -0.00000000000E+00 -0.25024529050E+03  0.25024529050E+03  0.00000000000E+00 0. -1.
          6    2    1    2  501    0 -0.12130889790E+03 -0.13530477028E+03 -0.12693278422E+03  0.27936053990E+03  0.17002102803E+03 0.  0.
         24    2    3    3    0    0 -0.81325231886E+02 -0.15507197940E+03 -0.13384524530E+03  0.23398093851E+03  0.78558371687E+02 0.  0.
         -6    2    1    2    0  502  0.12130889790E+03  0.13530477028E+03  0.28029375003E+03  0.37449100691E+03  0.16927994087E+03 0.  0.
        -24    2    5    5    0    0  0.91186828621E+02  0.16469582750E+03  0.24866161141E+03  0.32163407268E+03  0.78588335075E+02 0.  0.
          5    1    3    3  501    0 -0.39983666019E+02  0.19767209112E+02  0.69124610735E+01  0.45379601392E+02  0.47000000000E+01 0. -1.
        -13    1    4    4    0    0  0.15531086735E+02 -0.16140830652E+02 -0.18769957721E+02  0.29224174619E+02  0.00000000000E+00 0.  1.
         14    1    4    4    0    0 -0.96856318622E+02 -0.13893114874E+03 -0.11507528758E+03  0.20475676389E+03  0.00000000000E+00 0. -1.
         -5    1    5    5    0  502  0.30122069284E+02 -0.29391057220E+02  0.31632138620E+02  0.52856934230E+02  0.47000000000E+01 0.  1.
         11    1    6    6    0    0  0.34399027748E+02  0.37830002634E+02  0.21814835294E+02  0.55590370103E+02  0.00000000000E+00 0. -1.
        -12    1    6    6    0    0  0.56787800874E+02  0.12686582487E+03  0.22684677611E+03  0.26604370258E+03  0.00000000000E+00 0.  1.
</event>
<event>
12    1  0.8313893E-002  0.1759011E+03  0.7818608E-02  0.1171947E+00
         21   -1    0    0  501  502  0.00000000000E+00  0.00000000000E+00  0.55748087505E+03  0.55748087505E+03  0.00000000000E+00 0. -1.
         21   -1    0    0  502  503 -0.00000000000E+00 -0.00000000000E+00 -0.88519012161E+02  0.88519012161E+02  0.00000000000E+00 0. -1.
         -6    2    1    2    0  503 -0.36599596235E+02 -0.32077861766E+01  0.36969170588E+02  0.17974406452E+03  0.17202147779E+03 0.  0.
        -24    2    3    3    0    0  0.21840278544E+02  0.44922393429E+02 -0.80620180919E+01  0.91530510538E+02  0.76274628975E+02 0.  0.
          6    2    1    2  501    0  0.36599596235E+02  0.32077861766E+01  0.43199269230E+03  0.46625582269E+03  0.17154295570E+03 0.  0.
         24    2    5    5    0    0  0.12536808179E+02 -0.53019036173E+02  0.35228226825E+03  0.36567592895E+03  0.81534647477E+02 0.  0.
          5    1    5    5  501    0  0.24062788055E+02  0.56226822350E+02  0.79710424058E+02  0.10057989374E+03  0.47000000000E+01 0. -1.
        -11    1    6    6    0    0 -0.34334316238E+02 -0.18916559077E+02  0.16695788401E+03  0.17149815308E+03  0.00000000000E+00 0.  1.
         12    1    6    6    0    0  0.46871124418E+02 -0.34102477096E+02  0.18532438424E+03  0.19417777587E+03  0.00000000000E+00 0. -1.
         -5    1    3    3    0  503 -0.58439874778E+02 -0.48130179606E+02  0.45031188680E+02  0.88213553986E+02  0.47000000000E+01 0.  1.
         13    1    4    4    0    0 -0.91097789397E+01  0.42262219839E+02  0.21819756747E+02  0.48427111028E+02  0.00000000000E+00 0. -1.
        -14    1    4    4    0    0  0.30950057483E+02  0.26601735906E+01 -0.29881774839E+02  0.43103399510E+02  0.00000000000E+00 0.  1.
</event>
<event>
12    1  0.8313893E-002  0.2994682E+03  0.7818608E-02  0.1085612E+00
         21   -1    0    0  501  502  0.00000000000E+00  0.00000000000E+00  0.21547183825E+03  0.21547183825E+03  0.00000000000E+00 0.  1.
         21   -1    0    0  502  503 -0.00000000000E+00 -0.00000000000E+00 -0.53990860503E+03  0.53990860503E+03  0.00000000000E+00 0. -1.
         -6    2    1    2    0  503 -0.23342433744E+03 -0.74789438624E+02 -0.34402564009E+03  0.45610837071E+03  0.17204889815E+03 0.  0.
        -24    2    3    3    0    0 -0.90331599595E+02  0.27173861410E+02 -0.15043322871E+03  0.19462766794E+03  0.79696651109E+02 0.  0.
          6    2    1    2  501    0  0.23342433744E+03  0.74789438624E+02  0.19588873318E+02  0.29927207257E+03  0.17058624804E+03 0.  0.
         24    2    5    5    0    0  0.16864492476E+03 -0.41125346796E+01 -0.24584005076E+02  0.18793821929E+03  0.79109906957E+02 0.  0.
          5    1    5    5  501    0  0.64779412683E+02  0.78901973304E+02  0.44172878394E+02  0.11133385327E+03  0.47000000000E+01 0. -1.
        -11    1    6    6    0    0 -0.55373558098E+01 -0.36333243898E+01 -0.11492152268E+02  0.13263970719E+02  0.00000000000E+00 0.  1.
         12    1    6    6    0    0  0.17418228057E+03 -0.47921028982E+00 -0.13091852808E+02  0.17467424858E+03  0.00000000000E+00 0. -1.
         -5    1    3    3    0  503 -0.14309273784E+03 -0.10196330003E+03 -0.19359241138E+03  0.26148070277E+03  0.47000000000E+01 0.  1.
         13    1    4    4    0    0 -0.67563478333E+02 -0.12676179650E+00 -0.14321705755E+03  0.15835392400E+03  0.00000000000E+00 0. -1.
        -14    1    4    4    0    0 -0.22768121262E+02  0.27300623206E+02 -0.72161711626E+01  0.36273743941E+02  0.00000000000E+00 0.  1.
</event>
<event>
12    1  0.8313893E-002  0.2317931E+03  0.7818608E-02  0.1125393E+00
         21   -1    0    0  503  502  0.00000000000E+00  0.00000000000E+00  0.12768240384E+04  0.12768240384E+04  0.00000000000E+00 0.  1.
         21   -1    0    0  501  503 -0.00000000000E+00 -0.00000000000E+00 -0.96937962007E+02  0.96937962007E+02  0.00000000000E+00 0.  1.
          6    2    1    2  501    0  0.64770431591E+02 -0.14092928606E+03  0.73148450479E+02  0.24301171304E+03  0.17218514567E+03 0.  0.
         24    2    3    3    0    0  0.50704749610E+02 -0.15944400596E+03  0.97663025476E+02  0.20889877341E+03  0.78149013546E+02 0.  0.
         -6    2    1    2    0  502 -0.64770431591E+02  0.14092928606E+03  0.11067376259E+04  0.11307502874E+04  0.17225494852E+03 0.  0.
        -24    2    5    5    0    0  0.27979357828E+02  0.58615006090E+02  0.61998353703E+03  0.62842589301E+03  0.79504423839E+02 0.  0.
          5    1    3    3  501    0  0.14065681981E+02  0.18514719902E+02 -0.24514574997E+02  0.34112939626E+02  0.47000000000E+01 0. -1.
        -13    1    4    4    0    0 -0.20563927422E+02 -0.43978708205E+02  0.19592006838E+02  0.52353114696E+02  0.00000000000E+00 0.  1.
         14    1    4    4    0    0  0.71268677033E+02 -0.11546529776E+03  0.78071018638E+02  0.15654565872E+03  0.00000000000E+00 0. -1.
         -5    1    5    5    0  502 -0.92749789419E+02  0.82314279971E+02  0.48675408889E+03  0.50232439436E+03  0.47000000000E+01 0.  1.
         11    1    6    6    0    0  0.19377563169E+02 -0.17088642998E+02  0.12847399356E+03  0.13104609378E+03  0.00000000000E+00 0. -1.
        -12    1    6    6    0    0  0.86017946587E+01  0.75703649087E+02  0.49150954348E+03  0.49737979923E+03  0.00000000000E+00 0.  1.
</event>
<event>
12    1  0.8313893E-002  0.2197526E+03  0.7818608E-02  0.1134202E+00
         21   -1    0    0  501  502  0.00000000000E+00  0.00000000000E+00  0.33152132865E+03  0.33152132865E+03  0.00000000000E+00 0. -1.
         21   -1    0    0  502  503 -0.00000000000E+00 -0.00000000000E+00 -0.21451834822E+03  0.21451834822E+03  0.00000000000E+00 0. -1.
         -6    2    1    2    0  503  0.91993555952E+02  0.10109094291E+03 -0.96772722239E+02  0.23945973124E+03  0.17115434567E+03 0.  0.
        -24    2    3    3    0    0  0.11683353123E+03  0.82796852914E+02 -0.30716740928E+02  0.16640372007E+03  0.79001816489E+02 0.  0.
          6    2    1    2  501    0 -0.91993555952E+02 -0.10109094291E+03  0.21377570268E+03  0.30657994563E+03  0.17207271408E+03 0.  0.
         24    2    5    5    0    0 -0.36245964660E+02 -0.18671632740E+02  0.18131651116E+03  0.20181150697E+03  0.78675328431E+02 0.  0.
          5    1    5    5  501    0 -0.55747591292E+02 -0.82419310173E+02  0.32459191516E+02  0.10476843866E+03  0.47000000000E+01 0. -1.
        -11    1    6    6    0    0  0.23697115402E+02  0.24688726787E+01  0.35618464733E+02  0.42852346968E+02  0.00000000000E+00 0.  1.
         12    1    6    6    0    0 -0.59943080062E+02 -0.21140505419E+02  0.14569804643E+03  0.15895916000E+03  0.00000000000E+00 0. -1.
         -5    1    3    3    0  503 -0.24839975279E+02  0.18294090000E+02 -0.66055981311E+02  0.73056011168E+02  0.47000000000E+01 0.  1.
         11    1    4    4    0    0  0.80596112379E+02  0.15357744477E+02 -0.36140678026E+02  0.89653456454E+02  0.00000000000E+00 0. -1.
        -12    1    4    4    0    0  0.36237418852E+02  0.67439108437E+02  0.54239370984E+01  0.76750263619E+02  0.00000000000E+00 0.  1.
</event>
<event>
12    1  0.8313893E-002  0.2176153E+03  0.7818608E-02  0.1135722E+00
         21   -1    0    0  501  502  0.00000000000E+00  0.00000000000E+00  0.17256268273E+03  0.17256268273E+03  0.00000000000E+00 0. -1.
         21   -1    0    0  502  503 -0.00000000000E+00 -0.00000000000E+00 -0.28544612200E+03  0.28544612200E+03  0.00000000000E+00 0. -1.
         -6    2    1    2    0  503  0.13093448018E+03 -0.26559706241E+02 -0.10827191542E+02  0.21788449736E+03  0.17177651184E+03 0.  0.
        -24    2    3    3    0    0  0.53016840935E+02  0.11528159862E+02 -0.64581309637E+02  0.11574028920E+03  0.79255189717E+02 0.  0.
          6    2    1    2  501    0 -0.13093448018E+03  0.26559706241E+02 -0.10205624773E+03  0.24012430738E+03  0.17144955292E+03 0.  0.
         24    2    5    5    0    0 -0.28804820751E+02  0.61718200676E+02 -0.22075584432E+02  0.10564165583E+03  0.77678658753E+02 0.  0.
          5    1    5    5  501    0 -0.10212965942E+03 -0.35158494435E+02 -0.79980663297E+02  0.13448265154E+03  0.47000000000E+01 0. -1.
        -13    1    6    6    0    0  0.12283705034E+02 -0.38118342408E+01 -0.25135370555E+02  0.28234842705E+02  0.00000000000E+00 0.  1.
         14    1    6    6    0    0 -0.41088525785E+02  0.65530034917E+02  0.30597861230E+01  0.77406813127E+02  0.00000000000E+00 0. -1.
         -5    1    3    3    0  503  0.77917639240E+02 -0.38087866103E+02  0.53754118094E+02  0.10214420816E+03  0.47000000000E+01 0.  1.
         11    1    4    4    0    0  0.44537024543E+02  0.43791581854E+02 -0.38252805877E+02  0.73242926989E+02  0.00000000000E+00 0. -1.
        -12    1    4    4    0    0  0.84798163924E+01 -0.32263421992E+02 -0.26328503759E+02  0.42497362211E+02  0.00000000000E+00 0.  1.
</event>
<event>
12    1  0.8313893E-002  0.3389747E+03  0.7818608E-02  0.1067358E+00
         21   -1    0    0  501  502  0.00000000000E+00  0.00000000000E+00  0.81975678524E+03  0.81975678524E+03  0.00000000000E+00 0. -1.
         21   -1    0    0  502  503 -0.00000000000E+00 -0.00000000000E+00 -0.44433453143E+03  0.44433453143E+03  0.00000000000E+00 0.  1.
         -6    2    1    2    0  503  0.11657475218E+03  0.26705967707E+03 -0.33553750017E+03  0.47695831079E+03  0.17318565833E+03 0.  0.
        -24    2    3    3    0    0 -0.91806521086E+01  0.12503201673E+03 -0.13297465409E+03  0.19939737222E+03  0.79748127487E+02 0.  0.
          6    2    1    2  501    0 -0.11657475218E+03 -0.26705967707E+03  0.71095975398E+03  0.78713300588E+03  0.17089193433E+03 0.  0.
         24    2    5    5    0    0 -0.10558976268E+03 -0.24156540028E+03  0.49982491695E+03  0.57412916190E+03  0.10147071672E+03 0.  0.
          5    1    5    5  501    0 -0.10984989494E+02 -0.25494276791E+02  0.21113483703E+03  0.21300384398E+03  0.47000000000E+01 0. -1.
        -13    1    6    6    0    0  0.88841900412E+01 -0.17664277088E+02  0.98976027967E+02  0.10093170775E+03  0.00000000000E+00 0.  1.
         14    1    6    6    0    0 -0.11447395272E+03 -0.22390112319E+03  0.40084888898E+03  0.47319745415E+03  0.00000000000E+00 0. -1.
         -5    1    3    3    0  503  0.12575540428E+03  0.14202766035E+03 -0.20256284607E+03  0.27756093857E+03  0.47000000000E+01 0.  1.
         13    1    4    4    0    0 -0.30727400331E+02  0.21767269205E+02 -0.61024342569E+02  0.71707444005E+02  0.00000000000E+00 0. -1.
        -14    1    4    4    0    0  0.21546748222E+02  0.10326474752E+03 -0.71950311525E+02  0.12768992822E+03  0.00000000000E+00 0.  1.
</event>
<event>
12    1  0.8313893E-002  0.2447665E+03  0.7818608E-02  0.1116705E+00
         21   -1    0    0  503  502  0.00000000000E+00  0.00000000000E+00  0.30316633536E+03  0.30316633536E+03  0.00000000000E+00 0.  1.
         21   -1    0    0  501  503 -0.00000000000E+00 -0.00000000000E+00 -0.30955472500E+03  0.30955472500E+03  0.00000000000E+00 0. -1.
          6    2    1    2  501    0 -0.13208492186E+03 -0.11292169389E+03 -0.18761351962E+03  0.30816695158E+03  0.17196017496E+03 0.  0.
         24    2    3    3    0    0 -0.64473304197E+02 -0.97961132218E+02 -0.43390069048E+02  0.14811182689E+03  0.79380254419E+02 0.  0.
         -6    2    1    2    0  502  0.13208492186E+03  0.11292169389E+03  0.18122512998E+03  0.30455410878E+03  0.17237436556E+03 0.  0.
        -24    2    5    5    0    0  0.32514002792E+01  0.22507100027E+02  0.38271934315E+02  0.91879283711E+02  0.80373631644E+02 0.  0.
          5    1    3    3  501    0 -0.67611617665E+02 -0.14960561671E+02 -0.14422345057E+03  0.16005512470E+03  0.47000000000E+01 0. -1.
        -11    1    4    4    0    0 -0.69591568767E+02 -0.62600738008E+02 -0.22622888718E+01  0.93632028674E+02  0.00000000000E+00 0.  1.
         12    1    4    4    0    0  0.51182645700E+01 -0.35360394210E+02 -0.41127780176E+02  0.54479798211E+02  0.00000000000E+00 0. -1.
         -5    1    5    5    0  502  0.12883352158E+03  0.90414593863E+02  0.14295319566E+03  0.21267482507E+03  0.47000000000E+01 0.  1.
         13    1    6    6    0    0  0.17648322178E+02  0.49669057468E+02  0.26054510385E+02  0.58798946052E+02  0.00000000000E+00 0. -1.
        -14    1    6    6    0    0 -0.14396921898E+02 -0.27161957441E+02  0.12217423930E+02  0.33080337659E+02  0.00000000000E+00 0.  1.
</event>
<event>
12    1  0.8313893E-002  0.1764730E+03  0.7818608E-02  0.1171565E+00
         21   -1    0    0  501  502  0.00000000000E+00  0.00000000000E+00  0.13545259719E+03  0.13545259719E+03  0.00000000000E+00 0. -1.
         21   -1    0    0  502  503 -0.00000000000E+00 -0.00000000000E+00 -0.26280388473E+03  0.26280388473E+03  0.00000000000E+00 0. -1.
         -6    2    1    2    0  503  0.28240594969E+02  0.24807460255E+02 -0.13560452465E+03  0.22159063266E+03  0.17117499843E+03 0.  0.
        -24    2    3    3    0    0  0.74532909283E+02  0.23544302245E+02 -0.47574622881E+02  0.12201188223E+03  0.80709763522E+02 0.  0.
          6    2    1    2  501    0 -0.28240594969E+02 -0.24807460255E+02  0.82532371096E+01  0.17666584927E+03  0.17242321504E+03 0.  0.
         24    2    5    5    0    0 -0.16255315595E+02  0.47126414003E+02 -0.21920076896E+02  0.97604809141E+02  0.81000461816E+02 0.  0.
          5    1    5    5  501    0 -0.11985279373E+02 -0.71933874259E+02  0.30173314006E+02  0.79061040125E+02  0.47000000000E+01 0. -1.
        -11    1    6    6    0    0 -0.43421637101E+02  0.50054132541E+02 -0.23315004169E+02  0.70245598953E+02  0.00000000000E+00 0.  1.
         12    1    6    6    0    0  0.27166321506E+02 -0.29277185371E+01  0.13949272734E+01  0.27359210188E+02  0.00000000000E+00 0. -1.
         -5    1    3    3    0  503 -0.46292314315E+02  0.12631580103E+01 -0.88029901766E+02  0.99578750432E+02  0.47000000000E+01 0.  1.
         11    1    4    4    0    0  0.40399851053E+02  0.40470449788E+02 -0.59071315276E+02  0.82215725743E+02  0.00000000000E+00 0. -1.
        -12    1    4    4    0    0  0.34133058230E+02 -0.16926147543E+02  0.11496692395E+02  0.39796156483E+02  0.00000000000E+00 0.  1.
</event>
<event>
12    1  0.8313893E-002  0.2913331E+03  0.7818608E-02  0.1090684E+00
         21   -1    0    0  501  502  0.00000000000E+00  0.00000000000E+00  0.41286398075E+03  0.41286398075E+03  0.00000000000E+00 0.  1.
         21   -1    0    0  502  503 -0.00000000000E+00 -0.00000000000E+00 -0.20128164075E+03  0.20128164075E+03  0.00000000000E+00 0. -1.
         -6    2    1    2    0  503 -0.20872457815E+03 -0.82764935775E+02  0.13076940551E+03  0.31933621966E+03  0.18563135417E+03 0.  0.
        -24    2    3    3    0    0 -0.19528266168E+03 -0.96816044140E+02  0.51483091753E+02  0.23756502477E+03  0.79233628613E+02 0.  0.
          6    2    1    2  501    0  0.20872457815E+03  0.82764935775E+02  0.80812934491E+02  0.29480940184E+03  0.17310652475E+03 0.  0.
         24    2    5    5    0    0  0.92868502263E+02  0.88787072167E+02  0.85626290553E+02  0.17860202322E+03  0.89772591411E+02 0.  0.
          5    1    5    5  501    0  0.11585607589E+03 -0.60221363925E+01 -0.48133560624E+01  0.11620737861E+03  0.47000000000E+01 0. -1.
        -13    1    6    6    0    0  0.80662538200E+02  0.29814187343E+02  0.81106307907E+02  0.11820983046E+03  0.00000000000E+00 0.  1.
         14    1    6    6    0    0  0.12205964063E+02  0.58972884824E+02  0.45199826464E+01  0.60392192760E+02  0.00000000000E+00 0. -1.
         -5    1    3    3    0  503 -0.13441916472E+02  0.14051108366E+02  0.79286313753E+02  0.81771194887E+02  0.47000000000E+01 0.  1.
         11    1    4    4    0    0 -0.59043438507E+02 -0.62420449064E+02 -0.51320119601E+01  0.86074256540E+02  0.00000000000E+00 0. -1.
        -12    1    4    4    0    0 -0.13623922317E+03 -0.34395595076E+02  0.56615103714E+02  0.15149076824E+03  0.00000000000E+00 0.  1.
</event>
<event>
12    1  0.8313893E-002  0.1935422E+03  0.7818608E-02  0.1156358E+00
         21   -1    0    0  501  502  0.00000000000E+00  0.00000000000E+00  0.13135868547E+04  0.13135868547E+04  0.00000000000E+00 0. -1.
         21   -1    0    0  502  503 -0.00000000000E+00 -0.00000000000E+00 -0.54939211658E+02  0.54939211658E+02  0.00000000000E+00 0. -1.
         -6    2    1    2    0  503 -0.72802860253E+02 -0.31728681574E+01  0.14469826252E+03  0.23788828032E+03  0.17419220185E+03 0.  0.
        -24    2    3    3    0    0 -0.11533032411E+02 -0.15235498044E+02  0.18245832681E+01  0.81893161594E+02  0.79611742692E+02 0.  0.
          6    2    1    2  501    0  0.72802860253E+02  0.31728681574E+01  0.11139493805E+04  0.11306377861E+04  0.17929935108E+03 0.  0.
         24    2    5    5    0    0  0.64982706475E+02 -0.48806255234E+02  0.43327871702E+03  0.44792435697E+03  0.79378714125E+02 0.  0.
          5    1    5    5  501    0  0.78201537775E+01  0.51979123391E+02  0.68067066353E+03  0.68271342909E+03  0.47000000000E+01 0. -1.
        -13    1    6    6    0    0  0.89890068572E+01 -0.30605795305E+02  0.44723718150E+02  0.54933850363E+02  0.00000000000E+00 0.  1.
         14    1    6    6    0    0  0.55993699618E+02 -0.18200459929E+02  0.38855499887E+03  0.39299050661E+03  0.00000000000E+00 0. -1.
         -5    1    3    3    0  503 -0.61269827842E+02  0.12062629886E+02  0.14287367925E+03  0.15599511873E+03  0.47000000000E+01 0.  1.
         11    1    4    4    0    0 -0.11400334220E+02 -0.47077795316E+02  0.89617603294E+01  0.49260527609E+02  0.00000000000E+00 0. -1.
        -12    1    4    4    0    0 -0.13269819066E+00  0.31842297272E+02 -0.71371770613E+01  0.32632633985E+02  0.00000000000E+00 0.  1.
</event>
<event>
12    1  0.8313893E-002  0.1960655E+03  0.7818608E-02  0.1153370E+00
         21   -1    0    0  503  502  0.00000000000E+00  0.00000000000E+00  0.10005948794E+03  0.10005948794E+03  0.00000000000E+00 0. -1.
         21   -1    0    0  501  503 -0.00000000000E+00 -0.00000000000E+00 -0.55714999532E+03  0.55714999532E+03  0.00000000000E+00 0. -1.
          6    2    1    2  501    0  0.76327035078E+02  0.52010408912E+02 -0.41340199361E+03  0.45754005707E+03  0.17294738097E+03 0.  0.
         24    2    3    3    0    0  0.26897898140E+02  0.74533804053E+01 -0.36632268013E+03  0.37588762217E+03  0.79499363009E+02 0.  0.
         -6    2    1    2    0  502 -0.76327035078E+02 -0.52010408912E+02 -0.43688513769E+02  0.19966942619E+03  0.17154677089E+03 0.  0.
        -24    2    5    5    0    0 -0.20310813188E+02 -0.76390245477E+02 -0.69336918461E+02  0.13324560359E+03  0.81846098736E+02 0.  0.
          5    1    3    3  501    0  0.49429136937E+02  0.44557028507E+02 -0.47079313484E+02  0.81652434905E+02  0.47000000000E+01 0. -1.
        -11    1    4    4    0    0 -0.33493386669E+01 -0.32960108447E+02 -0.12297529190E+03  0.12735976302E+03  0.00000000000E+00 0.  1.
         12    1    4    4    0    0  0.30247236807E+02  0.40413488853E+02 -0.24334738822E+03  0.24852785914E+03  0.00000000000E+00 0. -1.
         -5    1    5    5    0  502 -0.56016221890E+02  0.24379836564E+02  0.25648404692E+02  0.66423822601E+02  0.47000000000E+01 0.  1.
         11    1    6    6    0    0 -0.42099353043E+02 -0.26411637968E+02 -0.60034187981E+02  0.77936088389E+02  0.00000000000E+00 0. -1.
        -12    1    6    6    0    0  0.21788539855E+02 -0.49978607508E+02 -0.93027304796E+01  0.55309515202E+02  0.00000000000E+00 0.  1.
</event>
<event>
12    1  0.8313893E-002  0.2312188E+03  0.7818608E-02  0.1125923E+00
         21   -1    0    0  501  502  0.00000000000E+00  0.00000000000E+00  0.15448741223E+03  0.15448741223E+03  0.00000000000E+00 0.  1.
         21   -1    0    0  502  503 -0.00000000000E+00 -0.00000000000E+00 -0.60274022425E+03  0.60274022425E+03  0.00000000000E+00 0.  1.
         -6    2    1    2    0  503 -0.15249612164E+03 -0.21389824274E+02 -0.47198804296E+03  0.52558048367E+03  0.17248055084E+03 0.  0.
        -24    2    3    3    0    0 -0.11188406556E+02  0.11100743527E+02 -0.22433405095E+03  0.23856463551E+03  0.79617284247E+02 0.  0.
          6    2    1    2  501    0  0.15249612164E+03  0.21389824274E+02  0.23735230945E+02  0.23164715281E+03  0.17141893280E+03 0.  0.
         24    2    5    5    0    0  0.30507992619E+02  0.28034266985E+02  0.44206188118E+02  0.10768585914E+03  0.89024712595E+02 0.  0.
          5    1    5    5  501    0  0.12198812902E+03 -0.66444427114E+01 -0.20470957173E+02  0.12396129367E+03  0.47000000000E+01 0. -1.
        -13    1    6    6    0    0  0.37350717160E+02 -0.21490866546E+02  0.37724361027E+02  0.57271815339E+02  0.00000000000E+00 0.  1.
         14    1    6    6    0    0 -0.68427245414E+01  0.49525133531E+02  0.64818270914E+01  0.50414043806E+02  0.00000000000E+00 0. -1.
         -5    1    3    3    0  503 -0.14130771508E+03 -0.32490567801E+02 -0.24765399201E+03  0.28701584816E+03  0.47000000000E+01 0.  1.
         11    1    4    4    0    0  0.56527507364E+00 -0.15306326700E+02 -0.33250791121E+01  0.15673523027E+02  0.00000000000E+00 0. -1.
        -12    1    4    4    0    0 -0.11753681629E+02  0.26407070227E+02 -0.22100897184E+03  0.22289111248E+03  0.00000000000E+00 0.  1.
</event>
<event>
12    1  0.8313893E-002  0.1851028E+03  0.7818608E-02  0.1164870E+00
         21   -1    0    0  501  502  0.00000000000E+00  0.00000000000E+00  0.25518995381E+03  0.25518995381E+03  0.00000000000E+00 0.  1.
         21   -1    0    0  502  503 -0.00000000000E+00 -0.00000000000E+00 -0.13041877909E+03  0.13041877909E+03  0.00000000000E+00 0.  1.
         -6    2    1    2    0  503 -0.78157897113E+01  0.42314979538E+02  0.40424060800E+02  0.18946547578E+03  0.18003171320E+03 0.  0.
        -24    2    3    3    0    0  0.62859223768E+02  0.23912864687E+02 -0.21268896852E+01  0.10481165868E+03  0.80360767954E+02 0.  0.
          6    2    1    2  501    0  0.78157897113E+01 -0.42314979538E+02  0.84347113922E+02  0.19614325712E+03  0.17177339033E+03 0.  0.
         24    2    5    5    0    0  0.48437563216E+02  0.37175060869E+01  0.26012806969E+01  0.93802700812E+02  0.80200764563E+02 0.  0.
          5    1    5    5  501    0 -0.40621773505E+02 -0.46032485625E+02  0.81745833225E+02  0.10234055631E+03  0.47000000000E+01 0. -1.
        -13    1    6    6    0    0  0.94576927977E+01  0.38837943393E+02  0.89189924417E+01  0.40955857045E+02  0.00000000000E+00 0.  1.
         14    1    6    6    0    0  0.38979870419E+02 -0.35120437306E+02 -0.63177117448E+01  0.52846843767E+02  0.00000000000E+00 0. -1.
         -5    1    3    3    0  503 -0.70675013479E+02  0.18402114851E+02  0.42550950485E+02  0.84653817093E+02  0.47000000000E+01 0.  1.
         11    1    4    4    0    0  0.21651022515E+02  0.17168615054E+02 -0.39880835130E+02  0.48518131967E+02  0.00000000000E+00 0. -1.
        -12    1    4    4    0    0  0.41208201253E+02  0.67442496327E+01  0.37753945445E+02  0.56293526717E+02  0.00000000000E+00 0.  1.
</event>
<event>
12    1  0.8313893E-002  0.2098037E+03  0.7818608E-02  0.1142046E+00
         21   -1    0    0  503  502  0.00000000000E+00  0.00000000000E+00  0.88772137544E+02  0.88772137544E+02  0.00000000000E+00 0. -1.
         21   -1    0    0  501  503 -0.00000000000E+00 -0.00000000000E+00 -0.51383096376E+03  0.51383096376E+03  0.00000000000E+00 0. -1.
          6    2    1    2  501    0  0.54469982220E+02 -0.10606792495E+03 -0.27383011612E+03  0.34397649451E+03  0.17064440400E+03 0.  0.
         24    2    3    3    0    0  0.41658812564E+02 -0.13958724553E+03 -0.25005364015E+03  0.30067428060E+03  0.81597452682E+02 0.  0.
         -6    2    1    2    0  502 -0.54469982220E+02  0.10606792495E+03 -0.15122871009E+03  0.25862660679E+03  0.17262738866E+03 0.  0.
        -24    2    5    5    0    0 -0.34167289598E+02  0.13355589834E+03 -0.15795599580E+03  0.22348212811E+03  0.77392398297E+02 0.  0.
          5    1    3    3  501    0  0.12811169657E+02  0.33519320577E+02 -0.23776475968E+02  0.43302213908E+02  0.47000000000E+01 0. -1.
        -11    1    4    4    0    0 -0.58025754008E+01  0.29144461091E+01  0.23969382994E+01  0.69216465249E+01  0.00000000000E+00 0.  1.
         12    1    4    4    0    0  0.47461387964E+02 -0.14250169164E+03 -0.25245057845E+03  0.29375263408E+03  0.00000000000E+00 0. -1.
         -5    1    5    5    0  502 -0.20302692623E+02 -0.27487973387E+02  0.67272857107E+01  0.35144478680E+02  0.47000000000E+01 0.  1.
         11    1    6    6    0    0  0.78370795533E+01  0.66806022160E+02 -0.11614841988E+03  0.13421967014E+03  0.00000000000E+00 0. -1.
        -12    1    6    6    0    0 -0.42004369151E+02  0.66749876180E+02 -0.41807575928E+02  0.89262457970E+02  0.00000000000E+00 0.  1.
</event>
<event>
12    1  0.8313893E-002  0.1754196E+03  0.7818608E-02  0.1172688E+00
         21   -1    0    0  503  502  0.00000000000E+00  0.00000000000E+00  0.11225672463E+03  0.11225672463E+03  0.00000000000E+00 0.  1.
         21   -1    0    0  501  503 -0.00000000000E+00 -0.00000000000E+00 -0.52660885176E+03  0.52660885176E+03  0.00000000000E+00 0.  1.
          6    2    1    2  501    0  0.25255612938E+02 -0.19483547943E+02 -0.42984047797E+03  0.46425734882E+03  0.17249520227E+03 0.  0.
         24    2    3    3    0    0 -0.62496552048E+01 -0.72091860906E+02 -0.21462741187E+03  0.24042935608E+03  0.80653919553E+02 0.  0.
         -6    2    1    2    0  502 -0.25255612938E+02  0.19483547943E+02  0.15488350839E+02  0.17460822758E+03  0.17096984968E+03 0.  0.
        -24    2    5    5    0    0  0.20996909971E+01 -0.63628999041E+02  0.23174452880E+02  0.86647018604E+02  0.54014741926E+02 0.  0.
          5    1    3    3  501    0  0.31505268143E+02  0.52608312963E+02 -0.21521306610E+03  0.22382799274E+03  0.47000000000E+01 0. -1.
        -13    1    4    4    0    0  0.21930860566E+02 -0.43186065962E+02 -0.18255269966E+03  0.18886896805E+03  0.00000000000E+00 0.  1.
         14    1    4    4    0    0 -0.28180515771E+02 -0.28905794945E+02 -0.32074712212E+02  0.51560388032E+02  0.00000000000E+00 0. -1.
         -5    1    5    5    0  502 -0.27355303935E+02  0.83112546984E+02 -0.76861020411E+01  0.87961208974E+02  0.47000000000E+01 0.  1.
         13    1    6    6    0    0 -0.10712622645E+02 -0.29959109472E+02  0.36332075784E+02  0.48294184485E+02  0.00000000000E+00 0. -1.
        -14    1    6    6    0    0  0.12812313643E+02 -0.33669889569E+02 -0.13157622904E+02  0.38352834119E+02  0.00000000000E+00 0.  1.
</event>
<event>
12    1  0.8313893E-002  0.2075804E+03  0.7818608E-02  0.1144372E+00
         21   -1    0    0  503  502  0.00000000000E+00  0.00000000000E+00  0.19028684416E+02  0.19028684416E+02  0.00000000000E+00 0.  1.
         21   -1    0    0  501  503 -0.00000000000E+00 -0.00000000000E+00 -0.22267576620E+04  0.22267576620E+04  0.00000000000E+00 0.  1.
          6    2    1    2  501    0 -0.11090021304E+03  0.17434251553E+02 -0.10206830601E+04  0.10407271636E+04  0.16945887277E+03 0.  0.
         24    2    3    3    0    0 -0.10577654338E+03  0.57646573015E+02 -0.71327322903E+03  0.73062044486E+03  0.10264370748E+03 0.  0.
         -6    2    1    2    0  502  0.11090021304E+03 -0.17434251553E+02 -0.11870459175E+04  0.12050591828E+04  0.17460473482E+03 0.  0.
        -24    2    5    5    0    0  0.41734317795E+02 -0.10125349642E+02 -0.10193737393E+04  0.10234734167E+04  0.80812983547E+02 0.  0.
          5    1    3    3  501    0 -0.51236696663E+01 -0.40212321462E+02 -0.30740983105E+03  0.31010671875E+03  0.47000000000E+01 0. -1.
        -13    1    4    4    0    0 -0.65672333447E+02 -0.14690855653E+02 -0.20780404505E+03  0.21842893068E+03  0.00000000000E+00 0.  1.
         14    1    4    4    0    0 -0.40104209929E+02  0.72337428668E+02 -0.50546918398E+03  0.51219151417E+03  0.00000000000E+00 0. -1.
         -5    1    5    5    0  502  0.69165895247E+02 -0.73089019107E+01 -0.16767217821E+03  0.18158576612E+03  0.47000000000E+01 0.  1.
         13    1    6    6    0    0  0.37034557430E+02 -0.38125686650E+02 -0.40893719428E+03  0.41237695776E+03  0.00000000000E+00 0. -1.
        -14    1    6    6    0    0  0.46997603657E+01  0.28000337007E+02 -0.61043654500E+03  0.61109645891E+03  0.00000000000E+00 0.  1.
</event>
<event>
12    1  0.8313893E-002  0.1847368E+03  0.7818608E-02  0.1163512E+00
         21   -1    0    0  501  502  0.00000000000E+00  0.00000000000E+00  0.66331490367E+02  0.66331490367E+02  0.00000000000E+00 0. -1.
         21   -1    0    0  502  503 -0.00000000000E+00 -0.00000000000E+00 -0.86397348716E+03  0.86397348716E+03  0.00000000000E+00 0.  1.
         -6    2    1    2    0  503 -0.53062707202E+01  0.66647149258E+02 -0.69514937779E+03  0.71904112274E+03  0.17122347896E+03 0.  0.
        -24    2    3    3    0    0 -0.64381042150E+02  0.20513855494E+02 -0.31214750983E+03  0.32874555491E+03  0.77921981006E+02 0.  0.
          6    2    1    2  501    0  0.53062707202E+01 -0.66647149258E+02 -0.10249261901E+03  0.21126385478E+03  0.17221405394E+03 0.  0.
         24    2    5    5    0    0 -0.14269854711E+02 -0.48009639211E+02  0.11300362631E+02  0.94210387780E+02  0.78989523099E+02 0.  0.
          5    1    5    5  501    0  0.19576125431E+02 -0.18637510047E+02 -0.11379298164E+03  0.11705346700E+03  0.47000000000E+01 0. -1.
        -11    1    6    6    0    0  0.14226230910E+02 -0.50774466996E+02 -0.15534367352E+02  0.54970434905E+02  0.00000000000E+00 0.  1.
         12    1    6    6    0    0 -0.28496085621E+02  0.27648277845E+01  0.26834729982E+02  0.39239952875E+02  0.00000000000E+00 0. -1.
         -5    1    3    3    0  503  0.59074771430E+02  0.46133293764E+02 -0.38300186796E+03  0.39029556784E+03  0.47000000000E+01 0.  1.
         11    1    4    4    0    0 -0.39381525998E+02 -0.49306533168E+01 -0.27265483705E+03  0.27552835806E+03  0.00000000000E+00 0. -1.
        -12    1    4    4    0    0 -0.24999516152E+02  0.25444508811E+02 -0.39492672779E+02  0.53217196841E+02  0.00000000000E+00 0.  1.
</event>
<event>
12    1  0.8313893E-002  0.2440072E+03  0.7818608E-02  0.1117178E+00
         21   -1    0    0  501  502  0.00000000000E+00  0.00000000000E+00  0.20499249056E+03  0.20499249056E+03  0.00000000000E+00 0.  1.
         21   -1    0    0  502  503 -0.00000000000E+00 -0.00000000000E+00 -0.57139795110E+03  0.57139795110E+03  0.00000000000E+00 0. -1.
         -6    2    1    2    0  503 -0.11921186328E+03  0.12479812809E+03 -0.45553079338E+03  0.51676670120E+03  0.17249196684E+03 0.  0.
        -24    2    3    3    0    0 -0.44654300948E+02  0.13832069354E+03 -0.34705298180E+03  0.38436120477E+03  0.78492946856E+02 0.  0.
          6    2    1    2  501    0  0.11921186328E+03 -0.12479812809E+03  0.89125332850E+02  0.25962374046E+03  0.17226468162E+03 0.  0.
         24    2    5    5    0    0  0.87906748392E+02 -0.84560230591E+02  0.12879266594E+03  0.19485734541E+03  0.80646173182E+02 0.  0.
          5    1    5    5  501    0  0.31305114884E+02 -0.40237897499E+02 -0.39667333094E+02  0.64766395051E+02  0.47000000000E+01 0. -1.
        -13    1    6    6    0    0  0.80121395570E+02 -0.65548705333E+02  0.52936342857E+02  0.11626834132E+03  0.00000000000E+00 0.  1.
         14    1    6    6    0    0  0.77853528225E+01 -0.19011525258E+02  0.75856323087E+02  0.78589004088E+02  0.00000000000E+00 0. -1.
         -5    1    3    3    0  503 -0.74557562328E+02 -0.13522565452E+02 -0.10847781159E+03  0.13240549642E+03  0.47000000000E+01 0.  1.
         13    1    4    4    0    0 -0.64416733977E+02  0.79147070971E+02 -0.19717422670E+03  0.22201677894E+03  0.00000000000E+00 0. -1.
        -14    1    4    4    0    0  0.19762433029E+02  0.59173622571E+02 -0.14987875510E+03  0.16234442583E+03  0.00000000000E+00 0.  1.
</event>
<event>
12    1  0.8313893E-002  0.1976256E+03  0.7818608E-02  0.1151863E+00
         21   -1    0    0  503  502  0.00000000000E+00  0.00000000000E+00  0.55689004303E+03  0.55689004303E+03  0.00000000000E+00 0.  1.
         21   -1    0    0  501  503 -0.00000000000E+00 -0.00000000000E+00 -0.90804872697E+02  0.90804872697E+02  0.00000000000E+00 0. -1.
          6    2    1    2  501    0  0.14903248701E+02 -0.94805112562E+02  0.77651861980E+02  0.21187809289E+03  0.17219871773E+03 0.  0.
         24    2    3    3    0    0  0.53226818284E+02 -0.77314700032E+02  0.10544469393E+03  0.16119138829E+03  0.77803747697E+02 0.  0.
         -6    2    1    2    0  502 -0.14903248701E+02  0.94805112562E+02  0.38843330836E+03  0.43581682284E+03  0.17275923083E+03 0.  0.
        -24    2    5    5    0    0  0.12870697763E+01  0.13001862030E+03  0.26145621612E+03  0.30297334542E+03  0.80789831747E+02 0.  0.
          5    1    3    3  501    0 -0.38323569583E+02 -0.17490412530E+02 -0.27792831945E+02  0.50686704604E+02  0.47000000000E+01 0. -1.
        -11    1    4    4    0    0  0.38825473156E+02 -0.91218854802E+02  0.99140924207E+02  0.14020420710E+03  0.00000000000E+00 0.  1.
         12    1    4    4    0    0  0.14401345128E+02  0.13904154771E+02  0.63037697182E+01  0.20987181184E+02  0.00000000000E+00 0. -1.
         -5    1    5    5    0  502 -0.16190318477E+02 -0.35213507738E+02  0.12697709224E+03  0.13284347742E+03  0.47000000000E+01 0.  1.
         13    1    6    6    0    0  0.31394118123E+02  0.29019289812E+02  0.11378150731E+03  0.12154810257E+03  0.00000000000E+00 0. -1.
        -14    1    6    6    0    0 -0.30107048347E+02  0.10099933049E+03  0.14767470881E+03  0.18142524284E+03  0.00000000000E+00 0.  1.
</event>
<event>
12    1  0.8313893E-002  0.2883782E+03  0.7818608E-02  0.1091418E+00
         21   -1    0    0  501  502  0.00000000000E+00  0.00000000000E+00  0.26786146173E+03  0.26786146173E+03  0.00000000000E+00 0. -1.
         21   -1    0    0  502  503 -0.00000000000E+00 -0.00000000000E+00 -0.42173458144E+03  0.42173458144E+03  0.00000000000E+00 0.  1.
         -6    2    1    2    0  503  0.18730091122E+03 -0.13501849704E+03 -0.25529233956E+03  0.38390362316E+03  0.16998878596E+03 0.  0.
        -24    2    3    3    0    0  0.66308859135E+02 -0.13608032814E+02 -0.52068156301E+02  0.11800564244E+03  0.81438291915E+02 0.  0.
          6    2    1    2  501    0 -0.18730091122E+03  0.13501849704E+03  0.10141921984E+03  0.30569242001E+03  0.17277260087E+03 0.  0.
         24    2    5    5    0    0 -0.27163068891E+02  0.80005789986E+02  0.63280700069E+02  0.13206303548E+03  0.79356408662E+02 0.  0.
          5    1    5    5  501    0 -0.16013784233E+03  0.55012707059E+02  0.38138519770E+02  0.17362938453E+03  0.47000000000E+01 0. -1.
        -13    1    6    6    0    0 -0.12737480330E+01 -0.91691817073E+01  0.33182887145E+02  0.34449968455E+02  0.00000000000E+00 0.  1.
         14    1    6    6    0    0 -0.25889320858E+02  0.89174971694E+02  0.30097812924E+02  0.97613067024E+02  0.00000000000E+00 0. -1.
         -5    1    3    3    0  503  0.12099205208E+03 -0.12141046423E+03 -0.20322418325E+03  0.26589798072E+03  0.47000000000E+01 0.  1.
         11    1    4    4    0    0  0.48229396754E+02 -0.88822298302E+01 -0.74261431216E+02  0.88992858614E+02  0.00000000000E+00 0. -1.
        -12    1    4    4    0    0  0.18079462381E+02 -0.47258029835E+01  0.22193274915E+02  0.29012783825E+02  0.00000000000E+00 0.  1.
</event>
<event>
12    1  0.8313893E-002  0.1780837E+03  0.7818608E-02  0.1169882E+00
         21   -1    0    0  503  502  0.00000000000E+00  0.00000000000E+00  0.85031805263E+02  0.85031805263E+02  0.00000000000E+00 0. -1.
         21   -1    0    0  501  503 -0.00000000000E+00 -0.00000000000E+00 -0.37889806435E+03  0.37889806435E+03  0.00000000000E+00 0. -1.
          6    2    1    2  501    0  0.39979587571E+02  0.15684738926E+02 -0.18042010698E+03  0.25350584525E+03  0.17282771802E+03 0.  0.
         24    2    3    3    0    0  0.50489409034E+01  0.11130300344E+02 -0.11191059083E+02  0.80585477336E+02  0.78863197780E+02 0.  0.
         -6    2    1    2    0  502 -0.39979587571E+02 -0.15684738926E+02 -0.11344615211E+03  0.21042402436E+03  0.17194144975E+03 0.  0.
        -24    2    5    5    0    0 -0.67333779923E+02 -0.58191380614E+02 -0.47880103469E+02  0.12750199375E+03  0.77744320729E+02 0.  0.
          5    1    3    3  501    0  0.34930646668E+02  0.45544385815E+01 -0.16922904789E+03  0.17292036791E+03  0.47000000000E+01 0. -1.
        -13    1    4    4    0    0  0.56887104998E+01 -0.33907880316E+02 -0.95869387089E+00  0.34395128559E+02  0.00000000000E+00 0.  1.
         14    1    4    4    0    0 -0.63976959642E+00  0.45038180660E+02 -0.10232365212E+02  0.46190348777E+02  0.00000000000E+00 0. -1.
         -5    1    5    5    0  502  0.27354192352E+02  0.42506641688E+02 -0.65566048637E+02  0.82922030611E+02  0.47000000000E+01 0.  1.
         11    1    6    6    0    0 -0.25072189521E+01  0.15152304945E+02  0.51184655794E+01  0.16188798037E+02  0.00000000000E+00 0. -1.
        -12    1    6    6    0    0 -0.64826560971E+02 -0.73343685559E+02 -0.52998569049E+02  0.11131319571E+03  0.00000000000E+00 0.  1.
</event>
<event>
12    1  0.8313893E-002  0.2159534E+03  0.7818608E-02  0.1137023E+00
         21   -1    0    0  503  502  0.00000000000E+00  0.00000000000E+00  0.25826316895E+02  0.25826316895E+02  0.00000000000E+00 0. -1.
         21   -1    0    0  501  503 -0.00000000000E+00 -0.00000000000E+00 -0.21057697085E+04  0.21057697085E+04  0.00000000000E+00 0. -1.
          6    2    1    2  501    0  0.10565114652E+03  0.76865005196E+02 -0.14438671055E+04  0.14598602810E+04  0.17137510844E+03 0.  0.
         24    2    3    3    0    0  0.21726629219E+02  0.91731005049E+01 -0.30393152920E+03  0.31482721302E+03  0.78648632693E+02 0.  0.
         -6    2    1    2    0  502 -0.10565114652E+03 -0.76865005196E+02 -0.63607628605E+03  0.67173574438E+03  0.17194613930E+03 0.  0.
        -24    2    5    5    0    0 -0.11168574475E+02 -0.89546426606E+02 -0.37028511222E+03  0.38932679807E+03  0.79504665225E+02 0.  0.
          5    1    3    3  501    0  0.83924517300E+02  0.67691904691E+02 -0.11399355763E+04  0.11450330680E+04  0.47000000000E+01 0. -1.
        -13    1    4    4    0    0  0.46198275505E+02  0.62824275649E+01 -0.26260518798E+03  0.26671189383E+03  0.00000000000E+00 0.  1.
         14    1    4    4    0    0 -0.24471646285E+02  0.28906729400E+01 -0.41326341215E+02  0.48115319184E+02  0.00000000000E+00 0. -1.
         -5    1    5    5    0  502 -0.94482572044E+02  0.12681421410E+02 -0.26579117383E+03  0.28240894631E+03  0.47000000000E+01 0.  1.
         13    1    6    6    0    0  0.28199980636E+02 -0.31982742563E+02 -0.78601942154E+02  0.89422592448E+02  0.00000000000E+00 0. -1.
        -14    1    6    6    0    0 -0.39368555111E+02 -0.57563684043E+02 -0.29168317007E+03  0.29990420563E+03  0.00000000000E+00 0.  1.
</event>
<event>
12    1  0.8313893E-002  0.2433231E+03  0.7818608E-02  0.1117627E+00
         21   -1    0    0  501  502  0.00000000000E+00  0.00000000000E+00  0.25515140541E+03  0.25515140541E+03  0.00000000000E+00 0.  1.
         21   -1    0    0  502  503 -0.00000000000E+00 -0.00000000000E+00 -0.11672556406E+04  0.11672556406E+04  0.00000000000E+00 0.  1.
         -6    2    1    2    0  503 -0.14211413063E+03  0.96234225437E+02 -0.10927402277E+04  0.11195031619E+04  0.17247803297E+03 0.  0.
        -24    2    3    3    0    0 -0.50672990149E+02 -0.19419824541E+02 -0.47300084594E+03  0.48245031257E+03  0.77997578980E+02 0.  0.
          6    2    1    2  501    0  0.14211413063E+03 -0.96234225437E+02  0.18063599259E+03  0.30290388410E+03  0.17223225283E+03 0.  0.
         24    2    5    5    0    0  0.15715766063E+03 -0.10678492576E+03  0.11737262760E+03  0.23685868427E+03  0.78893294640E+02 0.  0.
          5    1    5    5  501    0 -0.15043529998E+02  0.10550700318E+02  0.63263364987E+02  0.66045199837E+02  0.47000000000E+01 0. -1.
        -11    1    6    6    0    0  0.13728414896E+03 -0.59839909843E+02  0.10893221056E+03  0.18518633552E+03  0.00000000000E+00 0.  1.
         12    1    6    6    0    0  0.19873511667E+02 -0.46945015912E+02  0.84404170415E+01  0.51672348745E+02  0.00000000000E+00 0. -1.
         -5    1    3    3    0  503 -0.91441140484E+02  0.11565404998E+03 -0.61973938180E+03  0.63705284930E+03  0.47000000000E+01 0.  1.
         13    1    4    4    0    0 -0.29337979676E+02 -0.45586442295E+02 -0.19460497550E+03  0.20201469566E+03  0.00000000000E+00 0. -1.
        -14    1    4    4    0    0 -0.21335010473E+02  0.26166617755E+02 -0.27839587044E+03  0.28043561692E+03  0.00000000000E+00 0.  1.
</event>
<event>
12    1  0.8313893E-002  0.2155469E+03  0.7818608E-02  0.1139181E+00
         21   -1    0    0  503  502  0.00000000000E+00  0.00000000000E+00  0.90769948797E+02  0.90769948797E+02  0.00000000000E+00 0. -1.
         21   -1    0    0  501  503 -0.00000000000E+00 -0.00000000000E+00 -0.64753432640E+03  0.64753432640E+03  0.00000000000E+00 0. -1.
          6    2    1    2  501    0 -0.25145724289E+01 -0.12766604423E+03 -0.45624988158E+03  0.50047320776E+03  0.16125921778E+03 0.  0.
         24    2    3    3    0    0  0.48125583602E+02 -0.35413424108E+02 -0.19823223830E+03  0.22177953082E+03  0.79498160890E+02 0.  0.
         -6    2    1    2    0  502  0.25145724289E+01  0.12766604423E+03 -0.10051449603E+03  0.23783106744E+03  0.17365342151E+03 0.  0.
        -24    2    5    5    0    0  0.21379259603E+02  0.13911673712E+03 -0.30899829814E+02  0.16465124412E+03  0.79653583832E+02 0.  0.
          5    1    3    3  501    0 -0.50640156031E+02 -0.92252620126E+02 -0.25801764328E+03  0.27869367694E+03  0.47000000000E+01 0. -1.
        -13    1    4    4    0    0  0.39076720456E+01  0.23649184556E+02 -0.67982251206E+02  0.72084258407E+02  0.00000000000E+00 0.  1.
         14    1    4    4    0    0  0.44217911557E+02 -0.59062608664E+02 -0.13024998709E+03  0.14969527241E+03  0.00000000000E+00 0. -1.
         -5    1    5    5    0  502 -0.18864687174E+02 -0.11450692891E+02 -0.69614666211E+02  0.73179823323E+02  0.47000000000E+01 0.  1.
         13    1    6    6    0    0 -0.26841082133E+02  0.41180359594E+02 -0.25446018493E+02  0.55351292338E+02  0.00000000000E+00 0. -1.
        -14    1    6    6    0    0  0.48220341736E+02  0.97936377531E+02 -0.54538113214E+01  0.10929995178E+03  0.00000000000E+00 0.  1.
</event>
<event>
12    1  0.8313893E-002  0.1884924E+03  0.7818608E-02  0.1161157E+00
         21   -1    0    0  501  502  0.00000000000E+00  0.00000000000E+00  0.52340527866E+03  0.52340527866E+03  0.00000000000E+00 0.  1.
         21   -1    0    0  502  503 -0.00000000000E+00 -0.00000000000E+00 -0.10699230969E+03  0.10699230969E+03  0.00000000000E+00 0.  1.
         -6    2    1    2    0  503 -0.75405647753E+02  0.24859960393E+01  0.10739398101E+02  0.18307174060E+03  0.16645640765E+03 0.  0.
        -24    2    3    3    0    0 -0.65971197105E+02 -0.35061270168E+02  0.60994905859E+02  0.11945953958E+03  0.70489088114E+02 0.  0.
          6    2    1    2  501    0  0.75405647753E+02 -0.24859960393E+01  0.40567357087E+03  0.44732584774E+03  0.17273440904E+03 0.  0.
         24    2    5    5    0    0  0.53521975140E+02 -0.89943224856E+01  0.41273812753E+03  0.42296909507E+03  0.74863835096E+02 0.  0.
          5    1    5    5  501    0  0.21883672613E+02  0.65083264463E+01 -0.70645566576E+01  0.24356752677E+02  0.47000000000E+01 0. -1.
        -13    1    6    6    0    0  0.10727384356E+01  0.27469018918E+02  0.15599238138E+03  0.15839608839E+03  0.00000000000E+00 0.  1.
         14    1    6    6    0    0  0.52449236705E+02 -0.36463341404E+02  0.25674574615E+03  0.26457300668E+03  0.00000000000E+00 0. -1.
         -5    1    3    3    0  503 -0.94344506486E+01  0.37547266208E+02 -0.50255507759E+02  0.63612201021E+02  0.47000000000E+01 0.  1.
         13    1    4    4    0    0  0.29948687990E+01  0.44621350464E+01 -0.10981581379E+02  0.12225997623E+02  0.00000000000E+00 0. -1.
        -14    1    4    4    0    0 -0.68966065904E+02 -0.39523405215E+02  0.71976487238E+02  0.10723354196E+03  0.00000000000E+00 0.  1.
</event>
<event>
12    1  0.8313893E-002  0.1947658E+03  0.7818608E-02  0.1155333E+00
         21   -1    0    0  503  502  0.00000000000E+00  0.00000000000E+00  0.40004342319E+02  0.40004342319E+02  0.00000000000E+00 0.  1.
         21   -1    0    0  501  503 -0.00000000000E+00 -0.00000000000E+00 -0.11127863605E+04  0.11127863605E+04  0.00000000000E+00 0.  1.
          6    2    1    2  501    0  0.56869172558E+02 -0.67158199417E+02 -0.77943325186E+03  0.80339897388E+03  0.17375094413E+03 0.  0.
         24    2    3    3    0    0  0.18504089939E+02  0.18570637017E+02 -0.53528384882E+03  0.54176500443E+03  0.79330015264E+02 0.  0.
         -6    2    1    2    0  502 -0.56869172558E+02  0.67158199417E+02 -0.29334876634E+03  0.34939172896E+03  0.16815693567E+03 0.  0.
        -24    2    5    5    0    0 -0.36664595592E+02  0.51683737885E+02 -0.67947303979E+02  0.12250939575E+03  0.79851202848E+02 0.  0.
          5    1    3    3  501    0  0.38365082619E+02 -0.85728836434E+02 -0.24414940305E+03  0.26163396945E+03  0.47000000000E+01 0. -1.
        -13    1    4    4    0    0 -0.15713076057E+02  0.39157891245E+02 -0.22498483320E+03  0.22890700377E+03  0.00000000000E+00 0.  1.
         14    1    4    4    0    0  0.34217165996E+02 -0.20587254229E+02 -0.31029901562E+03  0.31285800066E+03  0.00000000000E+00 0. -1.
         -5    1    5    5    0  502 -0.20204576966E+02  0.15474461532E+02 -0.22540146236E+03  0.22688233321E+03  0.47000000000E+01 0.  1.
         11    1    6    6    0    0 -0.34845152302E+01  0.65644017656E+02 -0.40141840877E+02  0.77023673565E+02  0.00000000000E+00 0. -1.
        -12    1    6    6    0    0 -0.33180080362E+02 -0.13960279770E+02 -0.27805463102E+02  0.45485722182E+02  0.00000000000E+00 0.  1.
</event>
<event>
12    1  0.8313893E-002  0.1919910E+03  0.7818608E-02  0.1156802E+00
         21   -1    0    0  501  502  0.00000000000E+00  0.00000000000E+00  0.21367958129E+03  0.21367958129E+03  0.00000000000E+00 0.  1.
         21   -1    0    0  502  503 -0.00000000000E+00 -0.00000000000E+00 -0.17201587711E+03  0.17201587711E+03  0.00000000000E+00 0. -1.
         -6    2    1    2    0  503  0.48570560606E+02  0.68276410295E+02  0.19167228776E+02  0.19239095436E+03  0.17212242475E+03 0.  0.
        -24    2    3    3    0    0  0.83212022278E+02  0.93715118057E+02  0.15171843952E+02  0.14897192836E+03  0.79092898449E+02 0.  0.
          6    2    1    2  501    0 -0.48570560606E+02 -0.68276410295E+02  0.22496475408E+02  0.19330450404E+03  0.17274192403E+03 0.  0.
         24    2    5    5    0    0 -0.92945581078E+02 -0.19701439329E+02  0.25220275686E+02  0.12728799600E+03  0.80864973050E+02 0.  0.
          5    1    5    5  501    0  0.44375020471E+02 -0.48574970965E+02 -0.27238002780E+01  0.66016508042E+02  0.47000000000E+01 0. -1.
        -13    1    6    6    0    0 -0.24828744588E+02  0.26494959798E+02 -0.10154282388E+02  0.37703566188E+02  0.00000000000E+00 0.  1.
         14    1    6    6    0    0 -0.68116836489E+02 -0.46196399127E+02  0.35374558074E+02  0.89584429811E+02  0.00000000000E+00 0. -1.
         -5    1    3    3    0  503 -0.34641461672E+02 -0.25438707762E+02  0.39953848239E+01  0.43419026005E+02  0.47000000000E+01 0.  1.
         11    1    4    4    0    0  0.39779607414E+02  0.73523556661E+02 -0.24137283781E+02  0.87009993785E+02  0.00000000000E+00 0. -1.
        -12    1    4    4    0    0  0.43432414864E+02  0.20191561395E+02  0.39309127734E+02  0.61961934570E+02  0.00000000000E+00 0.  1.
</event>
<event>
12    1  0.8313893E-002  0.1738724E+03  0.7818608E-02  0.1174027E+00
         21   -1    0    0  501  502  0.00000000000E+00  0.00000000000E+00  0.56316005495E+03  0.56316005495E+03  0.00000000000E+00 0.  1.
         21   -1    0    0  502  503 -0.00000000000E+00 -0.00000000000E+00 -0.14284875582E+03  0.14284875582E+03  0.00000000000E+00 0.  1.
         -6    2    1    2    0  503 -0.20285851163E+02  0.21752098949E+02 -0.68899757088E+02  0.18702616506E+03  0.17130948697E+03 0.  0.
        -24    2    3    3    0    0 -0.70133990339E+02 -0.18585126650E+02 -0.55794843568E+02  0.12140789393E+03  0.79766086812E+02 0.  0.
          6    2    1    2  501    0  0.20285851163E+02 -0.21752098949E+02  0.48921105621E+03  0.51898264571E+03  0.17067764782E+03 0.  0.
         24    2    5    5    0    0 -0.42577406172E+02  0.23971711942E+02  0.27955292879E+03  0.29532872467E+03  0.81741893350E+02 0.  0.
          5    1    5    5  501    0  0.62863257336E+02 -0.45723810891E+02  0.20965812742E+03  0.22365392104E+03  0.47000000000E+01 0. -1.
        -13    1    6    6    0    0 -0.18762200352E+02 -0.11118388529E+02  0.22584760054E+03  0.22689816525E+03  0.00000000000E+00 0.  1.
         14    1    6    6    0    0 -0.23815205820E+02  0.35090100471E+02  0.53705328253E+02  0.68430559416E+02  0.00000000000E+00 0. -1.
         -5    1    3    3    0  503  0.49848139176E+02  0.40337225599E+02 -0.13104913520E+02  0.65618271134E+02  0.47000000000E+01 0.  1.
         11    1    4    4    0    0 -0.32107679631E+02 -0.31878818768E+02 -0.65843238904E+02  0.79890514373E+02  0.00000000000E+00 0. -1.
        -12    1    4    4    0    0 -0.38026310708E+02  0.13293692118E+02  0.10048395336E+02  0.41517379554E+02  0.00000000000E+00 0.  1.
</event>
<event>
12    1  0.8313893E-002  0.1877424E+03  0.7818608E-02  0.1161158E+00
         21   -1    0    0  503  502  0.00000000000E+00  0.00000000000E+00  0.47770069928E+02  0.47770069928E+02  0.00000000000E+00 0.  1.
         21   -1    0    0  501  503 -0.00000000000E+00 -0.00000000000E+00 -0.11502817656E+04  0.11502817656E+04  0.00000000000E+00 0.  1.
          6    2    1    2  501    0 -0.46498739104E+02  0.51406502211E+02 -0.91205246341E+03  0.93061599972E+03  0.17146918586E+03 0.  0.
         24    2    3    3    0    0 -0.71455830019E+02  0.68459742496E+01 -0.80284302425E+03  0.80996241029E+03  0.79557410005E+02 0.  0.
         -6    2    1    2    0  502  0.46498739104E+02 -0.51406502211E+02 -0.19045923229E+03  0.26743583585E+03  0.17447763731E+03 0.  0.
        -24    2    5    5    0    0 -0.32231206002E+02 -0.63375315522E+02 -0.12458323071E+03  0.16397862569E+03  0.79452671775E+02 0.  0.
          5    1    3    3  501    0  0.24957090916E+02  0.44560527962E+02 -0.10920943916E+03  0.12065358943E+03  0.47000000000E+01 0. -1.
        -11    1    4    4    0    0 -0.15532655770E+02 -0.71743274829E+01 -0.26898129626E+02  0.31878578191E+02  0.00000000000E+00 0.  1.
         12    1    4    4    0    0 -0.55923174249E+02  0.14020301732E+02 -0.77594489462E+03  0.77808383210E+03  0.00000000000E+00 0. -1.
         -5    1    5    5    0  502  0.78729945105E+02  0.11968813310E+02 -0.65876001587E+02  0.10345721016E+03  0.47000000000E+01 0.  1.
         13    1    6    6    0    0 -0.37080696211E+02 -0.34842266788E+02 -0.18697154940E+02  0.54208349811E+02  0.00000000000E+00 0. -1.
        -14    1    6    6    0    0  0.48494902090E+01 -0.28533048733E+02 -0.10588607577E+03  0.10977027588E+03  0.00000000000E+00 0.  1.
</event>
<event>
12    1  0.8313893E-002  0.2078250E+03  0.7818608E-02  0.1143406E+00
         21   -1    0    0  503  502  0.00000000000E+00  0.00000000000E+00  0.63173383942E+02  0.63173383942E+02  0.00000000000E+00 0. -1.
         21   -1    0    0  501  503 -0.00000000000E+00 -0.00000000000E+00 -0.11566855052E+04  0.11566855052E+04  0.00000000000E+00 0.  1.
          6    2    1    2  501    0 -0.94839137904E+02  0.66983957562E+02 -0.93791359108E+03  0.96066285995E+03  0.17236563900E+03 0.  0.
         24    2    3    3    0    0 -0.12008839689E+03  0.80114855754E+02 -0.63697614625E+03  0.65834616960E+03  0.82713088154E+02 0.  0.
         -6    2    1    2    0  502  0.94839137904E+02 -0.66983957562E+02 -0.15559853019E+03  0.25919602920E+03  0.17172759332E+03 0.  0.
        -24    2    5    5    0    0  0.24864568201E+02  0.15965975628E+02 -0.24686674858E+02  0.89086841656E+02  0.80336008807E+02 0.  0.
          5    1    3    3  501    0  0.25249258982E+02 -0.13130898192E+02 -0.30093744483E+03  0.30231669036E+03  0.47000000000E+01 0. -1.
        -11    1    4    4    0    0 -0.44903715559E+02 -0.89352260010E+01 -0.25164291517E+03  0.25577399925E+03  0.00000000000E+00 0.  1.
         12    1    4    4    0    0 -0.75184681328E+02  0.89050081755E+02 -0.38533323108E+03  0.40257217035E+03  0.00000000000E+00 0. -1.
         -5    1    5    5    0  502  0.69974569703E+02 -0.82949933190E+02 -0.13091185533E+03  0.17010918755E+03  0.47000000000E+01 0.  1.
         11    1    6    6    0    0 -0.22672954937E+02 -0.16244298433E+02 -0.46948038715E+01  0.28283940683E+02  0.00000000000E+00 0. -1.
        -12    1    6    6    0    0  0.47537523138E+02  0.32210274061E+02 -0.19991870987E+02  0.60802900973E+02  0.00000000000E+00 0.  1.
</event>
<event>
12    1  0.8313893E-002  0.1836276E+03  0.7818608E-02  0.1164387E+00
         21   -1    0    0  503  502  0.00000000000E+00  0.00000000000E+00  0.64000045588E+02  0.64000045588E+02  0.00000000000E+00 0.  1.
         21   -1    0    0  501  503 -0.00000000000E+00 -0.00000000000E+00 -0.52704585002E+03  0.52704585002E+03  0.00000000000E+00 0.  1.
          6    2    1    2  501    0  0.12905238937E+02 -0.62453383133E+02 -0.24275645644E+03  0.30425938630E+03  0.17197705298E+03 0.  0.
         24    2    3    3    0    0 -0.22014775806E+01  0.34566790822E+02 -0.10458722464E+03  0.13468947843E+03  0.77479407016E+02 0.  0.
         -6    2    1    2    0  502 -0.12905238937E+02  0.62453383133E+02 -0.22028934799E+03  0.28678650930E+03  0.17219795244E+03 0.  0.
        -24    2    5    5    0    0 -0.75270012450E+02  0.33388438973E+02 -0.14262252455E+03  0.18291947210E+03  0.79611469854E+02 0.  0.
          5    1    3    3  501    0  0.15106716517E+02 -0.97020173956E+02 -0.13816923180E+03  0.16956990787E+03  0.47000000000E+01 0. -1.
        -13    1    4    4    0    0 -0.18970903840E+02 -0.19853428937E+02 -0.27632525033E+02  0.38956517718E+02  0.00000000000E+00 0.  1.
         14    1    4    4    0    0  0.16769426259E+02  0.54420219759E+02 -0.76954699605E+02  0.95732960714E+02  0.00000000000E+00 0. -1.
         -5    1    5    5    0  502  0.62364773514E+02  0.29064944161E+02 -0.77666823440E+02  0.10386703720E+03  0.47000000000E+01 0.  1.
         11    1    6    6    0    0 -0.67502508558E+02 -0.11845558221E+02 -0.81549008989E+02  0.10652298709E+03  0.00000000000E+00 0. -1.
        -12    1    6    6    0    0 -0.77675038929E+01  0.45233997194E+02 -0.61073515563E+02  0.76396485011E+02  0.00000000000E+00 0.  1.
</event>
<event>
12    1  0.8313893E-002  0.1886994E+03  0.7818608E-02  0.1160491E+00
         21   -1    0    0  501  502  0.00000000000E+00  0.00000000000E+00  0.12949947923E+04  0.12949947923E+04  0.00000000000E+00 0.  1.
         21   -1    0    0  502  503 -0.00000000000E+00 -0.00000000000E+00 -0.34527437427E+02  0.34527437427E+02  0.00000000000E+00 0.  1.
         -6    2    1    2    0  503  0.10419030413E+02 -0.76069097885E+02  0.32389711284E+03  0.37485573424E+03  0.17237290372E+03 0.  0.
        -24    2    3    3    0    0 -0.53902472078E+01 -0.11624094042E+03  0.28086093332E+03  0.31371726076E+03  0.77425091774E+02 0.  0.
          6    2    1    2  501    0 -0.10419030413E+02  0.76069097885E+02  0.93657024198E+03  0.95466649544E+03  0.16831290949E+03 0.  0.
         24    2    5    5    0    0  0.85662664151E+01  0.82451679231E+02  0.37059400087E+03  0.38831644967E+03  0.81105433078E+02 0.  0.
          5    1    5    5  501    0 -0.18985296828E+02 -0.63825813456E+01  0.56597624111E+03  0.56635004577E+03  0.47000000000E+01 0. -1.
        -13    1    6    6    0    0  0.32153549963E+02  0.38463274092E+02  0.28379957749E+03  0.28819346698E+03  0.00000000000E+00 0.  1.
         14    1    6    6    0    0 -0.23587283548E+02  0.43988405139E+02  0.86794423381E+02  0.10012298269E+03  0.00000000000E+00 0. -1.
         -5    1    3    3    0  503  0.15809277621E+02  0.40171842539E+02  0.43036179525E+02  0.61138473484E+02  0.47000000000E+01 0.  1.
         11    1    4    4    0    0 -0.36634381850E+02 -0.62174821386E+02  0.10770959621E+03  0.12965008085E+03  0.00000000000E+00 0. -1.
        -12    1    4    4    0    0  0.31244134642E+02 -0.54066119038E+02  0.17315133710E+03  0.18406717990E+03  0.00000000000E+00 0.  1.
</event>
<event>
12    1  0.8313893E-002  0.1921439E+03  0.7818608E-02  0.1156606E+00
         21   -1    0    0  503  502  0.00000000000E+00  0.00000000000E+00  0.47457094716E+03  0.47457094716E+03  0.00000000000E+00 0.  1.
         21   -1    0    0  501  503 -0.00000000000E+00 -0.00000000000E+00 -0.77820791284E+02  0.77820791284E+02  0.00000000000E+00 0.  1.
          6    2    1    2  501    0  0.82028343376E+02  0.18435765985E+02  0.18638740476E+03  0.26748513566E+03  0.17245146147E+03 0.  0.
         24    2    3    3    0    0  0.34944661824E+02 -0.42830423432E+02  0.50818239681E+02  0.11137137088E+03  0.82252745891E+02 0.  0.
         -6    2    1    2    0  502 -0.82028343376E+02 -0.18435765985E+02  0.21036275112E+03  0.28490660278E+03  0.17277372099E+03 0.  0.
        -24    2    5    5    0    0 -0.86799550569E+02 -0.48337565664E+02  0.96239848106E+02  0.16674142587E+03  0.93112364941E+02 0.  0.
          5    1    3    3  501    0  0.47083681552E+02  0.61266189417E+02  0.13556916507E+03  0.15611376478E+03  0.47000000000E+01 0. -1.
        -13    1    4    4    0    0 -0.26395048957E+01  0.18736981762E+02 -0.56690714697E+01  0.19752970485E+02  0.00000000000E+00 0.  1.
         14    1    4    4    0    0  0.37584166720E+02 -0.61567405194E+02  0.56487311151E+02  0.91618400398E+02  0.00000000000E+00 0. -1.
         -5    1    5    5    0  502  0.47712071931E+01  0.29901799679E+02  0.11412290302E+03  0.11816517691E+03  0.47000000000E+01 0.  1.
         11    1    6    6    0    0 -0.37911015680E+02  0.26632152048E+02  0.38416026654E+02  0.60185610710E+02  0.00000000000E+00 0. -1.
        -12    1    6    6    0    0 -0.48888534889E+02 -0.74969717712E+02  0.57823821452E+02  0.10655581516E+03  0.00000000000E+00 0.  1.
</event>
<event>
12    1  0.8313893E-002  0.1992174E+03  0.7818608E-02  0.1150430E+00
         21   -1    0    0  501  502  0.00000000000E+00  0.00000000000E+00  0.14192976437E+04  0.14192976437E+04  0.00000000000E+00 0. -1.
         21   -1    0    0  502  503 -0.00000000000E+00 -0.00000000000E+00 -0.28489991506E+02  0.28489991506E+02  0.00000000000E+00 0. -1.
         -6    2    1    2    0  503 -0.28966616335E+02  0.95748821842E+02  0.59537735116E+03  0.62782304226E+03  0.17228081835E+03 0.  0.
        -24    2    3    3    0    0  0.39503518181E+01  0.50826847460E+02  0.54280346468E+03  0.55109225239E+03  0.80424471844E+02 0.  0.
          6    2    1    2  501    0  0.28966616335E+02 -0.95748821842E+02  0.79543030100E+03  0.81996459291E+03  0.17212108568E+03 0.  0.
         24    2    5    5    0    0 -0.73072749864E+00  0.13511810976E+02  0.23517023526E+03  0.24835874149E+03  0.78701473462E+02 0.  0.
          5    1    5    5  501    0  0.29697343834E+02 -0.10926063282E+03  0.56026006574E+03  0.57160585142E+03  0.47000000000E+01 0. -1.
        -11    1    6    6    0    0  0.35433274451E+02  0.14771530892E+02  0.16500753322E+03  0.16941428830E+03  0.00000000000E+00 0.  1.
         12    1    6    6    0    0 -0.36164001950E+02 -0.12597199163E+01  0.70162702042E+02  0.78944453188E+02  0.00000000000E+00 0. -1.
         -5    1    3    3    0  503 -0.32916968153E+02  0.44921974381E+02  0.52573886479E+02  0.76730789871E+02  0.47000000000E+01 0.  1.
         13    1    4    4    0    0 -0.35334169271E+02  0.39648686783E+02  0.35034925391E+03  0.35435169197E+03  0.00000000000E+00 0. -1.
        -14    1    4    4    0    0  0.39284521089E+02  0.11178160677E+02  0.19245421076E+03  0.19674056042E+03  0.00000000000E+00 0.  1.
</event>
<event>
12    1  0.8313893E-002  0.1925853E+03  0.7818608E-02  0.1156290E+00
         21   -1    0    0  501  502  0.00000000000E+00  0.00000000000E+00  0.68467684387E+02  0.68467684387E+02  0.00000000000E+00 0.  1.
         21   -1    0    0  502  503 -0.00000000000E+00 -0.00000000000E+00 -0.69545823397E+03  0.69545823397E+03  0.00000000000E+00 0. -1.
         -6    2    1    2    0  503  0.45582433642E+01 -0.86351237901E+02 -0.13246665333E+03  0.23322546170E+03  0.17137499197E+03 0.  0.
        -24    2    3    3    0    0 -0.85719732848E+00 -0.47256423542E+02 -0.15985543525E+03  0.18495573120E+03  0.80130880254E+02 0.  0.
          6    2    1    2  501    0 -0.45582433642E+01  0.86351237901E+02 -0.49452389625E+03  0.53070045665E+03  0.17208072772E+03 0.  0.
         24    2    5    5    0    0  0.91598695541E+01 -0.21592455860E+02 -0.19325417474E+03  0.21034820874E+03  0.79680960727E+02 0.  0.
          5    1    5    5  501    0 -0.13718112918E+02  0.10794369376E+03 -0.30126972151E+03  0.32035224791E+03  0.47000000000E+01 0. -1.
        -13    1    6    6    0    0  0.24634622140E+01  0.14557139281E+02 -0.12066523062E+01  0.14813337231E+02  0.00000000000E+00 0.  1.
         14    1    6    6    0    0  0.66964073401E+01 -0.36149595141E+02 -0.19204752244E+03  0.19553487151E+03  0.00000000000E+00 0. -1.
         -5    1    3    3    0  503  0.54154406926E+01 -0.39094814360E+02  0.27388781925E+02  0.48269730505E+02  0.47000000000E+01 0.  1.
         11    1    4    4    0    0  0.37649827644E+02 -0.10828806947E+02 -0.80473675452E+02  0.89502988901E+02  0.00000000000E+00 0. -1.
        -12    1    4    4    0    0 -0.38507024973E+02 -0.36427616595E+02 -0.79381759801E+02  0.95452742298E+02  0.00000000000E+00 0.  1.
</event>
<event>
12    1  0.8313893E-002  0.1818594E+03  0.7818608E-02  0.1167192E+00
         21   -1    0    0  501  502  0.00000000000E+00  0.00000000000E+00  0.36973247693E+03  0.36973247693E+03  0.00000000000E+00 0. -1.
         21   -1    0    0  502  503 -0.00000000000E+00 -0.00000000000E+00 -0.89937336995E+02  0.89937336995E+02  0.00000000000E+00 0. -1.
         -6    2    1    2    0  503  0.67320338031E+01  0.43332572221E+02  0.10075050591E+03  0.20790266156E+03  0.17649311643E+03 0.  0.
        -24    2    3    3    0    0 -0.10479846824E+02 -0.12926607741E+01  0.12717583448E+03  0.15305698493E+03  0.84505914573E+02 0.  0.
          6    2    1    2  501    0 -0.67320338031E+01 -0.43332572221E+02  0.17904463403E+03  0.25176715237E+03  0.17148377750E+03 0.  0.
         24    2    5    5    0    0 -0.28452502581E+02  0.37726727610E+02  0.91446448463E+02  0.13036731313E+03  0.80002078206E+02 0.  0.
          5    1    5    5  501    0  0.21720468778E+02 -0.81059299830E+02  0.87598185564E+02  0.12139983924E+03  0.47000000000E+01 0. -1.
        -11    1    6    6    0    0 -0.27374223871E+02  0.32535442779E+01 -0.49309255180E+01  0.28004423032E+02  0.00000000000E+00 0.  1.
         12    1    6    6    0    0 -0.10782787107E+01  0.34473183332E+02  0.96377373981E+02  0.10236289010E+03  0.00000000000E+00 0. -1.
         -5    1    3    3    0  503  0.17211880627E+02  0.44625232995E+02 -0.26425328574E+02  0.54845676628E+02  0.47000000000E+01 0.  1.
         13    1    4    4    0    0 -0.15217435528E+02  0.12899822456E+02 -0.45684825629E+01  0.20465746905E+02  0.00000000000E+00 0. -1.
        -14    1    4    4    0    0  0.47375887047E+01 -0.14192483230E+02  0.13174431704E+03  0.13259123802E+03  0.00000000000E+00 0.  1.
</event>
<event>
12    1  0.8313893E-002  0.1851121E+03  0.7818608E-02  0.1164393E+00
         21   -1    0    0  501  502  0.00000000000E+00  0.00000000000E+00  0.51112531771E+02  0.51112531771E+02  0.00000000000E+00 0.  1.
         21   -1    0    0  502  503 -0.00000000000E+00 -0.00000000000E+00 -0.66210919503E+03  0.66210919503E+03  0.00000000000E+00 0.  1.
         -6    2    1    2    0  503 -0.38478721727E+02  0.33127808226E+02 -0.35158643816E+03  0.39453666484E+03  0.17166272951E+03 0.  0.
        -24    2    3    3    0    0 -0.61131795795E+01 -0.47494210129E+02 -0.22170680456E+03  0.23820929236E+03  0.72778354058E+02 0.  0.
          6    2    1    2  501    0  0.38478721727E+02 -0.33127808226E+02 -0.25941022510E+03  0.31868506196E+03  0.17801247183E+03 0.  0.
         24    2    5    5    0    0  0.41355640643E+02  0.41066231553E+02 -0.20418116149E+03  0.22602778125E+03  0.77471845226E+02 0.  0.
          5    1    5    5  501    0 -0.28769189152E+01 -0.74194039778E+02 -0.55229063608E+02  0.92657280708E+02  0.47000000000E+01 0. -1.
        -11    1    6    6    0    0  0.21828435197E+01  0.47120651671E+02 -0.59032958687E+02  0.75564613616E+02  0.00000000000E+00 0.  1.
         12    1    6    6    0    0  0.39172797123E+02 -0.60544201179E+01 -0.14514820280E+03  0.15046316764E+03  0.00000000000E+00 0. -1.
         -5    1    3    3    0  503 -0.32365542148E+02  0.80622018355E+02 -0.12987963360E+03  0.15632737248E+03  0.47000000000E+01 0.  1.
         11    1    4    4    0    0  0.16581062937E+02  0.53703540746E+01 -0.13067729885E+02  0.21783891190E+02  0.00000000000E+00 0. -1.
        -12    1    4    4    0    0 -0.22694242517E+02 -0.52864564203E+02 -0.20863907467E+03  0.21642540117E+03  0.00000000000E+00 0.  1.
</event>
<event>
12    1  0.8313893E-002  0.2982168E+03  0.7818608E-02  0.1086136E+00
         21   -1    0    0  501  502  0.00000000000E+00  0.00000000000E+00  0.17125788655E+03  0.17125788655E+03  0.00000000000E+00 0. -1.
         21   -1    0    0  502  503 -0.00000000000E+00 -0.00000000000E+00 -0.55631681717E+03  0.55631681717E+03  0.00000000000E+00 0.  1.
         -6    2    1    2    0  503  0.93000182122E+02 -0.22563490682E+03 -0.98672742117E+02  0.31411715291E+03  0.17138591151E+03 0.  0.
        -24    2    3    3    0    0  0.14194743476E+02 -0.13399926803E+03  0.25957247375E+01  0.15636804884E+03  0.79290190667E+02 0.  0.
          6    2    1    2  501    0 -0.93000182122E+02  0.22563490682E+03 -0.28638618851E+03  0.41345755080E+03  0.17137663871E+03 0.  0.
         24    2    5    5    0    0 -0.10339994169E+03  0.23689717474E+03 -0.29047006515E+03  0.39691180434E+03  0.79713877917E+02 0.  0.
          5    1    5    5  501    0  0.10399759564E+02 -0.11262267916E+02  0.40838766460E+01  0.16545746464E+02  0.47000000000E+01 0. -1.
        -13    1    6    6    0    0 -0.80026704088E+01  0.75191233719E+02 -0.12780172729E+03  0.14849594560E+03  0.00000000000E+00 0.  1.
         14    1    6    6    0    0 -0.95397271277E+02  0.16170594102E+03 -0.16266833786E+03  0.24841585874E+03  0.00000000000E+00 0. -1.
         -5    1    3    3    0  503  0.78805438646E+02 -0.91635638796E+02 -0.10126846685E+03  0.15774910408E+03  0.47000000000E+01 0.  1.
         11    1    4    4    0    0 -0.12868157331E+02 -0.57672340899E+02 -0.33254075223E+02  0.67805028551E+02  0.00000000000E+00 0. -1.
        -12    1    4    4    0    0  0.27062900807E+02 -0.76326927128E+02  0.35849799960E+02  0.88563020286E+02  0.00000000000E+00 0.  1.
</event>
<event>
12    1  0.8313893E-002  0.2177829E+03  0.7818608E-02  0.1138135E+00
         21   -1    0    0  501  502  0.00000000000E+00  0.00000000000E+00  0.53735503529E+03  0.53735503529E+03  0.00000000000E+00 0. -1.
         21   -1    0    0  502  503 -0.00000000000E+00 -0.00000000000E+00 -0.98104492603E+02  0.98104492603E+02  0.00000000000E+00 0. -1.
         -6    2    1    2    0  503 -0.75191513419E+02  0.79397445370E+02  0.10073147803E+03  0.23995042378E+03  0.18833920778E+03 0.  0.
        -24    2    3    3    0    0 -0.23049599374E+00  0.10973278587E+03  0.45744816975E+02  0.14204735994E+03  0.77740123252E+02 0.  0.
          6    2    1    2  501    0  0.75191513419E+02 -0.79397445370E+02  0.33851906466E+03  0.39550910411E+03  0.17284263442E+03 0.  0.
         24    2    5    5    0    0 -0.52735848762E+01 -0.76827572827E+02  0.26124816560E+03  0.28382151245E+03  0.79835833173E+02 0.  0.
          5    1    5    5  501    0  0.80465098296E+02 -0.25698725425E+01  0.77270899067E+02  0.11168759166E+03  0.47000000000E+01 0. -1.
        -13    1    6    6    0    0 -0.21198886509E+02  0.91818153958E+01  0.64240626893E+02  0.68268269839E+02  0.00000000000E+00 0.  1.
         14    1    6    6    0    0  0.15925301633E+02 -0.86009388223E+02  0.19700753870E+03  0.21555324261E+03  0.00000000000E+00 0. -1.
         -5    1    3    3    0  503 -0.74961017426E+02 -0.30335340497E+02  0.54986661051E+02  0.97903063844E+02  0.47000000000E+01 0.  1.
         11    1    4    4    0    0 -0.31513449037E+02  0.91365570491E+02  0.23395387637E+02  0.99438971757E+02  0.00000000000E+00 0. -1.
        -12    1    4    4    0    0  0.31282953044E+02  0.18367215376E+02  0.22349429338E+02  0.42608388183E+02  0.00000000000E+00 0.  1.
</event>
<event>
12    1  0.8313893E-002  0.1838226E+03  0.7818608E-02  0.1164165E+00
         21   -1    0    0  503  502  0.00000000000E+00  0.00000000000E+00  0.37429413293E+02  0.37429413293E+02  0.00000000000E+00 0. -1.
         21   -1    0    0  501  503 -0.00000000000E+00 -0.00000000000E+00 -0.14124279891E+04  0.14124279891E+04  0.00000000000E+00 0.  1.
          6    2    1    2  501    0  0.19810876730E+02  0.62391444848E+02 -0.11231055398E+04  0.11380495676E+04  0.17177194629E+03 0.  0.
         24    2    3    3    0    0  0.57836806848E+02  0.52833251053E+02 -0.10409297625E+04  0.10468778680E+04  0.79259393228E+02 0.  0.
         -6    2    1    2    0  502 -0.19810876730E+02 -0.62391444848E+02 -0.25189303602E+03  0.31180783482E+03  0.17172321052E+03 0.  0.
        -24    2    5    5    0    0  0.29237522008E+02 -0.80661970327E+02 -0.11366141624E+03  0.16392400126E+03  0.81184816918E+02 0.  0.
          5    1    3    3  501    0 -0.38025930119E+02  0.95581937949E+01 -0.82175777281E+02  0.91171699566E+02  0.47000000000E+01 0. -1.
        -13    1    4    4    0    0 -0.26841786417E+00 -0.17535602109E+02 -0.26930612494E+03  0.26987656126E+03  0.00000000000E+00 0.  1.
         14    1    4    4    0    0  0.58105224713E+02  0.70368853162E+02 -0.77162363760E+03  0.77700130678E+03  0.00000000000E+00 0. -1.
         -5    1    5    5    0  502 -0.49048398737E+02  0.18270525480E+02 -0.13823161978E+03  0.14788383356E+03  0.47000000000E+01 0.  1.
         11    1    6    6    0    0  0.34659219057E+02 -0.75548991518E+02 -0.12514527661E+03  0.15023399030E+03  0.00000000000E+00 0. -1.
        -12    1    6    6    0    0 -0.54216970489E+01 -0.51129788091E+01  0.11483860366E+02  0.13690010961E+02  0.00000000000E+00 0.  1.
</event>
<event>
12    1  0.8313893E-002  0.1815510E+03  0.7818608E-02  0.1167333E+00
         21   -1    0    0  503  502  0.00000000000E+00  0.00000000000E+00  0.40729035277E+03  0.40729035277E+03  0.00000000000E+00 0.  1.
         21   -1    0    0  501  503 -0.00000000000E+00 -0.00000000000E+00 -0.61274830283E+03  0.61274830283E+03  0.00000000000E+00 0. -1.
          6    2    1    2  501    0 -0.43638395221E+02  0.38444565312E+02 -0.57886316529E+03  0.60666575073E+03  0.17198393776E+03 0.  0.
         24    2    3    3    0    0  0.18871472297E+02  0.72168463657E+02 -0.39149741588E+03  0.40623421901E+03  0.78686685297E+02 0.  0.
         -6    2    1    2    0  502  0.43638395221E+02 -0.38444565312E+02  0.37340521522E+03  0.41337290487E+03  0.16752137053E+03 0.  0.
        -24    2    5    5    0    0  0.65833876453E+02  0.10927231978E+02  0.32499660613E+03  0.34060136380E+03  0.77025913441E+02 0.  0.
          5    1    3    3  501    0 -0.62509867518E+02 -0.33723898344E+02 -0.18736574941E+03  0.20043153172E+03  0.47000000000E+01 0. -1.
        -13    1    4    4    0    0  0.43067545783E+02  0.35237869693E+02 -0.29380442732E+03  0.29902769516E+03  0.00000000000E+00 0.  1.
         14    1    4    4    0    0 -0.24196073485E+02  0.36930593963E+02 -0.97692988555E+02  0.10720652385E+03  0.00000000000E+00 0. -1.
         -5    1    5    5    0  502 -0.22195481232E+02 -0.49371797290E+02  0.48408609095E+02  0.72771541067E+02  0.47000000000E+01 0.  1.
         13    1    6    6    0    0 -0.13760096817E+02  0.16601450031E+02  0.84726362438E+02  0.87427140520E+02  0.00000000000E+00 0. -1.
        -14    1    6    6    0    0  0.79593973270E+02 -0.56742180536E+01  0.24027024369E+03  0.25317422328E+03  0.00000000000E+00 0.  1.
</event>
<event>
12    1  0.8313893E-002  0.1888052E+03  0.7818608E-02  0.1160466E+00
         21   -1    0    0  501  502  0.00000000000E+00  0.00000000000E+00  0.15620000870E+03  0.15620000870E+03  0.00000000000E+00 0. -1.
         21   -1    0    0  502  503 -0.00000000000E+00 -0.00000000000E+00 -0.34264591373E+03  0.34264591373E+03  0.00000000000E+00 0.  1.
         -6    2    1    2    0  503 -0.20711070120E+02 -0.69112664947E+02 -0.23970952675E+03  0.30267151271E+03  0.17012900549E+03 0.  0.
        -24    2    3    3    0    0 -0.66327269173E+02 -0.79211587485E+02 -0.13677527450E+03  0.18953276542E+03  0.80878991246E+02 0.  0.
          6    2    1    2  501    0  0.20711070120E+02  0.69112664947E+02  0.53263621721E+02  0.19617440973E+03  0.17447600624E+03 0.  0.
         24    2    5    5    0    0  0.71381464025E+02  0.59973418123E+02  0.14686284232E+01  0.12299090078E+03  0.80202746325E+02 0.  0.
          5    1    5    5  501    0 -0.50670393905E+02  0.91392468233E+01  0.51794993297E+02  0.73183508946E+02  0.47000000000E+01 0. -1.
        -11    1    6    6    0    0  0.64306381172E+02  0.45295045247E+02  0.34706487564E+02  0.85973787066E+02  0.00000000000E+00 0.  1.
         12    1    6    6    0    0  0.70750828534E+01  0.14678372877E+02 -0.33237859141E+02  0.37017113717E+02  0.00000000000E+00 0. -1.
         -5    1    3    3    0  503  0.45616199053E+02  0.10098922538E+02 -0.10293425224E+03  0.11313874729E+03  0.47000000000E+01 0.  1.
         13    1    4    4    0    0  0.17436717607E+02 -0.10598371863E+02 -0.97316479311E+01  0.22606848045E+02  0.00000000000E+00 0. -1.
        -14    1    4    4    0    0 -0.83763986780E+02 -0.68613215621E+02 -0.12704362657E+03  0.16692591738E+03  0.00000000000E+00 0.  1.
</event>
<event>
12    1  0.8313893E-002  0.1806246E+03  0.7818608E-02  0.1167208E+00
         21   -1    0    0  501  502  0.00000000000E+00  0.00000000000E+00  0.19222371174E+03  0.19222371174E+03  0.00000000000E+00 0.  1.
         21   -1    0    0  502  503 -0.00000000000E+00 -0.00000000000E+00 -0.19982291938E+03  0.19982291938E+03  0.00000000000E+00 0.  1.
         -6    2    1    2    0  503 -0.22300157105E+02  0.48138659948E+02  0.72314591545E+02  0.19456268527E+03  0.17265749552E+03 0.  0.
        -24    2    3    3    0    0  0.20215104332E+02 -0.40860872869E+01  0.92456882314E+02  0.12411572964E+03  0.80194093956E+02 0.  0.
          6    2    1    2  501    0  0.22300157105E+02 -0.48138659948E+02 -0.79913799187E+02  0.19748394585E+03  0.17262405968E+03 0.  0.
         24    2    5    5    0    0 -0.10310666674E+02 -0.88170974996E+02 -0.21543692391E+02  0.11941211071E+03  0.76907027132E+02 0.  0.
          5    1    5    5  501    0  0.32610823779E+02  0.40032315048E+02 -0.58370106797E+02  0.78071835146E+02  0.47000000000E+01 0. -1.
        -11    1    6    6    0    0 -0.44696906115E+01 -0.28735128006E+01  0.22582581615E+02  0.23199314696E+02  0.00000000000E+00 0.  1.
         12    1    6    6    0    0 -0.58409760624E+01 -0.85297462195E+02 -0.44126274005E+02  0.96212796009E+02  0.00000000000E+00 0. -1.
         -5    1    3    3    0  503 -0.42515261437E+02  0.52224747235E+02 -0.20142290769E+02  0.70446955621E+02  0.47000000000E+01 0.  1.
         11    1    4    4    0    0 -0.20475180939E+02  0.25334209733E+02  0.35129881010E+02  0.47907867381E+02  0.00000000000E+00 0. -1.
        -12    1    4    4    0    0  0.40690285271E+02 -0.29420297020E+02  0.57327001304E+02  0.76207862263E+02  0.00000000000E+00 0.  1.
</event>
<event>
12    1  0.8313893E-002  0.2084145E+03  0.7818608E-02  0.1142932E+00
         21   -1    0    0  503  502  0.00000000000E+00  0.00000000000E+00  0.44232339073E+03  0.44232339073E+03  0.00000000000E+00 0. -1.
         21   -1    0    0  501  503 -0.00000000000E+00 -0.00000000000E+00 -0.15251333896E+03  0.15251333896E+03  0.00000000000E+00 0.  1.
          6    2    1    2  501    0 -0.48997841336E+02 -0.10681257649E+03 -0.32864052554E+02  0.21098964260E+03  0.17212457228E+03 0.  0.
         24    2    3    3    0    0 -0.37127155158E+02 -0.75531843991E+01 -0.55699126130E+02  0.10834038204E+03  0.84851455406E+02 0.  0.
         -6    2    1    2    0  502  0.48997841336E+02  0.10681257649E+03  0.32267410432E+03  0.38384708709E+03  0.17149429645E+03 0.  0.
        -24    2    5    5    0    0  0.22273827181E-01  0.77858030428E+02  0.30341268630E+03  0.32359707319E+03  0.81203042890E+02 0.  0.
          5    1    3    3  501    0 -0.11870686178E+02 -0.99259392089E+02  0.22835073576E+02  0.10264926056E+03  0.47000000000E+01 0. -1.
        -11    1    4    4    0    0 -0.20728312252E+02 -0.46145481332E+02 -0.25390712573E+02  0.56601737263E+02  0.00000000000E+00 0.  1.
         12    1    4    4    0    0 -0.16398842905E+02  0.38592296933E+02 -0.30308413557E+02  0.51738644778E+02  0.00000000000E+00 0. -1.
         -5    1    5    5    0  502  0.48975567509E+02  0.28954546060E+02  0.19261418024E+02  0.60250013898E+02  0.47000000000E+01 0.  1.
         13    1    6    6    0    0 -0.21554810705E+02 -0.86490896228E+01  0.68818521137E+02  0.72631986530E+02  0.00000000000E+00 0. -1.
        -14    1    6    6    0    0  0.21577084532E+02  0.86507120050E+02  0.23459416516E+03  0.25096508666E+03  0.00000000000E+00 0.  1.
</event>
<event>
12    1  0.8313893E-002  0.2276292E+03  0.7818608E-02  0.1128631E+00
         21   -1    0    0  503  502  0.00000000000E+00  0.00000000000E+00  0.19499037190E+03  0.19499037190E+03  0.00000000000E+00 0.  1.
         21   -1    0    0  501  503 -0.00000000000E+00 -0.00000000000E+00 -0.37896213685E+03  0.37896213685E+03  0.00000000000E+00 0.  1.
          6    2    1    2  501    0  0.66563097486E+02  0.13101281713E+03 -0.25000301658E+03  0.33693952119E+03  0.17155677905E+03 0.  0.
         24    2    3    3    0    0  0.10047403509E+03  0.78351910374E+02 -0.22200345865E+03  0.26817042905E+03  0.79973681784E+02 0.  0.
         -6    2    1    2    0  502 -0.66563097486E+02 -0.13101281713E+03  0.66031251633E+02  0.23701298757E+03  0.17383908043E+03 0.  0.
        -24    2    5    5    0    0 -0.69949808546E+02 -0.16304865178E+03  0.63870249116E+02  0.20438593675E+03  0.78843920851E+02 0.  0.
          5    1    3    3  501    0 -0.33910937601E+02  0.52660906757E+02 -0.27999557933E+02  0.68769092141E+02  0.47000000000E+01 0. -1.
        -11    1    4    4    0    0  0.14413343718E+02  0.60808106828E+02 -0.97338999869E+02  0.11567303588E+03  0.00000000000E+00 0.  1.
         12    1    4    4    0    0  0.86060691368E+02  0.17543803546E+02 -0.12466445878E+03  0.15249739317E+03  0.00000000000E+00 0. -1.
         -5    1    5    5    0  502  0.33867110601E+01  0.32035834648E+02  0.21610025170E+01  0.32627050821E+02  0.47000000000E+01 0.  1.
         13    1    6    6    0    0  0.10306171266E+02 -0.16388749167E+02 -0.97905467927E+01  0.21694770612E+02  0.00000000000E+00 0. -1.
        -14    1    6    6    0    0 -0.80255979812E+02 -0.14665990261E+03  0.73660795908E+02  0.18269116613E+03  0.00000000000E+00 0.  1.
</event>
<event>
12    1  0.8313893E-002  0.1931691E+03  0.7818608E-02  0.1156381E+00
         21   -1    0    0  501  502  0.00000000000E+00  0.00000000000E+00  0.63507053092E+03  0.63507053092E+03  0.00000000000E+00 0.  1.
         21   -1    0    0  502  503 -0.00000000000E+00 -0.00000000000E+00 -0.61847268776E+02  0.61847268776E+02  0.00000000000E+00 0.  1.
         -6    2    1    2    0  503  0.79335504170E+02  0.24280818470E+02  0.19916453007E+03  0.27745418322E+03  0.17444378286E+03 0.  0.
        -24    2    3    3    0    0  0.16304811793E+02  0.67343291263E+02  0.10503208048E+03  0.15616835218E+03  0.92497840658E+02 0.  0.
          6    2    1    2  501    0 -0.79335504170E+02 -0.24280818470E+02  0.37405873208E+03  0.41946361648E+03  0.17072231882E+03 0.  0.
         24    2    5    5    0    0 -0.11113830444E+03 -0.49721458007E+02  0.26214904771E+03  0.30028093444E+03  0.81379175895E+02 0.  0.
          5    1    5    5  501    0  0.31802800273E+02  0.25440639537E+02  0.11190968436E+03  0.11918268205E+03  0.47000000000E+01 0. -1.
        -11    1    6    6    0    0 -0.54770848243E+02 -0.66903248106E+02  0.17321139271E+03  0.19359255406E+03  0.00000000000E+00 0.  1.
         12    1    6    6    0    0 -0.56367456200E+02  0.17181790099E+02  0.88937655003E+02  0.10668838037E+03  0.00000000000E+00 0. -1.
         -5    1    3    3    0  503  0.63030692376E+02 -0.43062472793E+02  0.94132449593E+02  0.12128583104E+03  0.47000000000E+01 0.  1.
         13    1    4    4    0    0 -0.57681447370E+01 -0.15848879644E+02  0.52939562198E+02  0.55561279012E+02  0.00000000000E+00 0. -1.
        -14    1    4    4    0    0  0.22072956530E+02  0.83192170907E+02  0.52092518279E+02  0.10060707316E+03  0.00000000000E+00 0.  1.
</event>
<event>
12    1  0.8313893E-002  0.1863575E+03  0.7818608E-02  0.1162435E+00
         21   -1    0    0  501  502  0.00000000000E+00  0.00000000000E+00  0.17222295768E+04  0.17222295768E+04  0.00000000000E+00 0. -1.
         21   -1    0    0  502  503 -0.00000000000E+00 -0.00000000000E+00 -0.27994187624E+02  0.27994187624E+02  0.00000000000E+00 0. -1.
         -6    2    1    2    0  503 -0.15409263622E+02  0.61193117426E+02  0.37107716971E+03  0.41400641334E+03  0.17239779981E+03 0.  0.
        -24    2    3    3    0    0 -0.11840136233E+02  0.38572306638E+02  0.37904971812E+03  0.38930638744E+03  0.79074413278E+02 0.  0.
          6    2    1    2  501    0  0.15409263622E+02 -0.61193117426E+02  0.13231582195E+04  0.13362173511E+04  0.17534848895E+03 0.  0.
         24    2    5    5    0    0  0.44976922779E+02  0.22311073707E+02  0.94298218688E+03  0.94582895198E+03  0.53444307793E+02 0.  0.
          5    1    5    5  501    0 -0.29567659158E+02 -0.83504191133E+02  0.38017603258E+03  0.39038839910E+03  0.47000000000E+01 0. -1.
        -11    1    6    6    0    0  0.52038339798E+02  0.10704294298E+02  0.53751003910E+03  0.54012925570E+03  0.00000000000E+00 0.  1.
         12    1    6    6    0    0 -0.70614170191E+01  0.11606779409E+02  0.40547214778E+03  0.40569969629E+03  0.00000000000E+00 0. -1.
         -5    1    3    3    0  503 -0.35691273892E+01  0.22620810788E+02 -0.79725484070E+01  0.24700025893E+02  0.47000000000E+01 0.  1.
         11    1    4    4    0    0 -0.17033201909E+00  0.18140689418E+02  0.12566867879E+02  0.22068978087E+02  0.00000000000E+00 0. -1.
        -12    1    4    4    0    0 -0.11669804213E+02  0.20431617221E+02  0.36648285024E+03  0.36723740936E+03  0.00000000000E+00 0.  1.
</event>
<event>
12    1  0.8313893E-002  0.1760716E+03  0.7818608E-02  0.1171842E+00
         21   -1    0    0  503  502  0.00000000000E+00  0.00000000000E+00  0.35896865909E+03  0.35896865909E+03  0.00000000000E+00 0.  1.
         21   -1    0    0  501  503 -0.00000000000E+00 -0.00000000000E+00 -0.90181976594E+02  0.90181976594E+02  0.00000000000E+00 0.  1.
          6    2    1    2  501    0 -0.34600084096E+02 -0.10221235413E+02  0.18245967243E+03  0.25305484180E+03  0.17159132094E+03 0.  0.
         24    2    3    3    0    0 -0.16282731426E+02  0.58341952517E+01  0.20411782624E+03  0.22012358174E+03  0.80567605601E+02 0.  0.
         -6    2    1    2    0  502  0.34600084096E+02  0.10221235413E+02  0.86327010067E+02  0.19609579388E+03  0.17233562673E+03 0.  0.
        -24    2    5    5    0    0 -0.42643109712E+02  0.83842219952E+01  0.75518727689E+02  0.11793701590E+03  0.79481642556E+02 0.  0.
          5    1    3    3  501    0 -0.18317352670E+02 -0.16055430665E+02 -0.21658153811E+02  0.32931260060E+02  0.47000000000E+01 0. -1.
        -13    1    4    4    0    0  0.28102232043E+02  0.45956047073E-01  0.13415971884E+03  0.13707139642E+03  0.00000000000E+00 0.  1.
         14    1    4    4    0    0 -0.44384963469E+02  0.57882392046E+01  0.69958107400E+02  0.83052185319E+02  0.00000000000E+00 0. -1.
         -5    1    5    5    0  502  0.77243193807E+02  0.18370134178E+01  0.10808282378E+02  0.78158777983E+02  0.47000000000E+01 0.  1.
         11    1    6    6    0    0 -0.47204241574E+02 -0.25790492145E+02  0.58556656095E+02  0.79512715214E+02  0.00000000000E+00 0. -1.
        -12    1    6    6    0    0  0.45611318627E+01  0.34174714141E+02  0.16962071594E+02  0.38424300686E+02  0.00000000000E+00 0.  1.
</event>
<event>
12    1  0.8313893E-002  0.2277258E+03  0.7818608E-02  0.1129191E+00
         21   -1    0    0  501  502  0.00000000000E+00  0.00000000000E+00  0.55927996938E+03  0.55927996938E+03  0.00000000000E+00 0.  1.
         21   -1    0    0  502  503 -0.00000000000E+00 -0.00000000000E+00 -0.12959156736E+03  0.12959156736E+03  0.00000000000E+00 0.  1.
         -6    2    1    2    0  503 -0.15557625333E+02  0.14117628080E+03  0.24219287213E+02  0.22382932712E+03  0.17128984745E+03 0.  0.
        -24    2    3    3    0    0 -0.29397142457E+02  0.11417193824E+02 -0.15589663447E+02  0.87316340775E+02  0.79915964992E+02 0.  0.
          6    2    1    2  501    0  0.15557625333E+02 -0.14117628080E+03  0.40546911481E+03  0.46504220962E+03  0.17800638107E+03 0.  0.
         24    2    5    5    0    0 -0.18306803192E+02 -0.50160655172E+02  0.32310911830E+03  0.33762202812E+03  0.82084719507E+02 0.  0.
          5    1    5    5  501    0  0.33864428524E+02 -0.91015625630E+02  0.82359996509E+02  0.12742018150E+03  0.47000000000E+01 0. -1.
        -11    1    6    6    0    0  0.32759360215E+02 -0.20964857476E+02  0.11798726308E+03  0.12423242403E+03  0.00000000000E+00 0.  1.
         12    1    6    6    0    0 -0.51066163407E+02 -0.29195797697E+02  0.20512185522E+03  0.21338960410E+03  0.00000000000E+00 0. -1.
         -5    1    3    3    0  503  0.13839517124E+02  0.12975908698E+03  0.39808950659E+02  0.13651298634E+03  0.47000000000E+01 0.  1.
         13    1    4    4    0    0 -0.14341226342E+02  0.20015663467E+02  0.29841777915E+02  0.38688877810E+02  0.00000000000E+00 0. -1.
        -14    1    4    4    0    0 -0.15055916114E+02 -0.85984696431E+01 -0.45431441362E+02  0.48627462966E+02  0.00000000000E+00 0.  1.
</event>
<event>
12    1  0.8313893E-002  0.2481048E+03  0.7818608E-02  0.1114976E+00
         21   -1    0    0  501  502  0.00000000000E+00  0.00000000000E+00  0.12181278850E+04  0.12181278850E+04  0.00000000000E+00 0.  1.
         21   -1    0    0  502  503 -0.00000000000E+00 -0.00000000000E+00 -0.26714328600E+03  0.26714328600E+03  0.00000000000E+00 0. -1.
         -6    2    1    2    0  503 -0.11474373968E+03 -0.13269072087E+03 -0.19465909279E+03  0.31307004722E+03  0.17131181764E+03 0.  0.
        -24    2    3    3    0    0 -0.10302128214E+03 -0.16147720099E+03 -0.18955993430E+03  0.28122402917E+03  0.80409669066E+02 0.  0.
          6    2    1    2  501    0  0.11474373968E+03  0.13269072087E+03  0.11456436918E+04  0.11722011238E+04  0.17545099852E+03 0.  0.
         24    2    5    5    0    0  0.35090403585E+02 -0.22922222378E+02  0.21010522826E+03  0.22045832829E+03  0.51970211330E+02 0.  0.
          5    1    5    5  501    0  0.79653336092E+02  0.15561294324E+03  0.93553846355E+03  0.95174279553E+03  0.47000000000E+01 0. -1.
        -13    1    6    6    0    0  0.45145522909E+02 -0.76703353977E+01  0.11830942330E+03  0.12686241337E+03  0.00000000000E+00 0.  1.
         14    1    6    6    0    0 -0.10055119323E+02 -0.15251886980E+02  0.91795804964E+02  0.93595914922E+02  0.00000000000E+00 0. -1.
         -5    1    3    3    0  503 -0.11722457535E+02  0.28786480120E+02 -0.50991584908E+01  0.31846018051E+02  0.47000000000E+01 0.  1.
         11    1    4    4    0    0 -0.85984326504E+02 -0.12580514906E+03 -0.18753650982E+03  0.24164060596E+03  0.00000000000E+00 0. -1.
        -12    1    4    4    0    0 -0.17036955639E+02 -0.35672051925E+02 -0.20234244731E+01  0.39583423204E+02  0.00000000000E+00 0.  1.
</event>
<event>
12    1  0.8313893E-002  0.1758782E+03  0.7818608E-02  0.1172914E+00
         21   -1    0    0  503  502  0.00000000000E+00  0.00000000000E+00  0.16412592763E+03  0.16412592763E+03  0.00000000000E+00 0. -1.
         21   -1    0    0  501  503 -0.00000000000E+00 -0.00000000000E+00 -0.18403866131E+03  0.18403866131E+03  0.00000000000E+00 0.  1.
          6    2    1    2  501    0 -0.24814069815E+02  0.30727433552E+02 -0.74567101810E+01  0.17603623568E+03  0.17138623198E+03 0.  0.
         24    2    3    3    0    0 -0.68263808918E+02  0.62731794419E+02 -0.26530996617E+01  0.12165495566E+03  0.78725241563E+02 0.  0.
         -6    2    1    2    0  502  0.24814069815E+02 -0.30727433552E+02 -0.12456023501E+02  0.17212835326E+03  0.16707215280E+03 0.  0.
        -24    2    5    5    0    0  0.30274472171E+02 -0.55752398366E+02  0.41673820091E+02  0.11206010187E+03  0.82437161292E+02 0.  0.
          5    1    3    3  501    0  0.43449739102E+02 -0.32004360867E+02 -0.48036105193E+01  0.54381280020E+02  0.47000000000E+01 0. -1.
        -11    1    4    4    0    0 -0.68378858607E+02  0.12431113442E+02  0.88349560448E+01  0.70058956131E+02  0.00000000000E+00 0.  1.
         12    1    4    4    0    0  0.11504968945E+00  0.50300680977E+02 -0.11488055707E+02  0.51595999526E+02  0.00000000000E+00 0. -1.
         -5    1    5    5    0  502 -0.54604023561E+01  0.25024964814E+02 -0.54129843592E+02  0.60068251390E+02  0.47000000000E+01 0.  1.
         13    1    6    6    0    0  0.18199930870E+01  0.21556403633E+02  0.80168709042E+01  0.23070785238E+02  0.00000000000E+00 0. -1.
        -14    1    6    6    0    0  0.28454479084E+02 -0.77308801999E+02  0.33656949187E+02  0.88989316634E+02  0.00000000000E+00 0.  1.
</event>
<event>
12    1  0.8313893E-002  0.2186822E+03  0.7818608E-02  0.1134896E+00
         21   -1    0    0  503  502  0.00000000000E+00  0.00000000000E+00  0.38845299406E+03  0.38845299406E+03  0.00000000000E+00 0.  1.
         21   -1    0    0  501  503 -0.00000000000E+00 -0.00000000000E+00 -0.13098679088E+03  0.13098679088E+03  0.00000000000E+00 0.  1.
          6    2    1    2  501    0  0.92890479168E+02  0.97766402487E+02  0.64755420052E+02  0.22806837858E+03  0.17214822191E+03 0.  0.
         24    2    3    3    0    0  0.91437813890E+02  0.24232671405E+02  0.86392599568E+02  0.15125967217E+03  0.80422080249E+02 0.  0.
         -6    2    1    2    0  502 -0.92890479168E+02 -0.97766402487E+02  0.19271078313E+03  0.29137140636E+03  0.17196784563E+03 0.  0.
        -24    2    5    5    0    0 -0.56870858613E+02 -0.49042181024E+02  0.25604423211E+02  0.11355664784E+03  0.81240973041E+02 0.  0.
          5    1    3    3  501    0  0.14526652783E+01  0.73533731082E+02 -0.21637179516E+02  0.76808706412E+02  0.47000000000E+01 0. -1.
        -11    1    4    4    0    0  0.57390878185E+02  0.35736646880E+02  0.12032044267E+02  0.68670160319E+02  0.00000000000E+00 0.  1.
         12    1    4    4    0    0  0.34046935705E+02 -0.11503975475E+02  0.74360555301E+02  0.82589511848E+02  0.00000000000E+00 0. -1.
         -5    1    5    5    0  502 -0.36019620555E+02 -0.48724221463E+02  0.16710635992E+03  0.17781475852E+03  0.47000000000E+01 0.  1.
         11    1    6    6    0    0  0.14563621855E+02  0.90344744735E+01  0.10939178682E+02  0.20331906964E+02  0.00000000000E+00 0. -1.
        -12    1    6    6    0    0 -0.71434480468E+02 -0.58076655498E+02  0.14665244528E+02  0.93224740872E+02  0.00000000000E+00 0.  1.
</event>
<event>
12    1  0.8313893E-002  0.1996900E+03  0.7818608E-02  0.1150664E+00
         21   -1    0    0  501  502  0.00000000000E+00  0.00000000000E+00  0.23354879003E+02  0.23354879003E+02  0.00000000000E+00 0.  1.
         21   -1    0    0  502  503 -0.00000000000E+00 -0.00000000000E+00 -0.17253957203E+04  0.17253957203E+04  0.00000000000E+00 0.  1.
         -6    2    1    2    0  503 -0.93916195481E+02 -0.31989722319E+02 -0.98490872447E+03  0.10043350207E+04  0.16970575759E+03 0.  0.
        -24    2    3    3    0    0 -0.32456590106E+02 -0.77275201309E+02 -0.41423651775E+03  0.42855996460E+03  0.71041281273E+02 0.  0.
          6    2    1    2  501    0  0.93916195481E+02  0.31989722319E+02 -0.71713211683E+03  0.74441557861E+03  0.17329883604E+03 0.  0.
         24    2    5    5    0    0  0.80010870765E+02  0.67614005613E+02 -0.32633411079E+03  0.35172279901E+03  0.79003685277E+02 0.  0.
          5    1    5    5  501    0  0.13905324716E+02 -0.35624283295E+02 -0.39079800604E+03  0.39269277959E+03  0.47000000000E+01 0. -1.
        -11    1    6    6    0    0  0.49561656345E+02 -0.39882218854E+01 -0.88838282086E+02  0.10180620834E+03  0.00000000000E+00 0.  1.
         12    1    6    6    0    0  0.30449214420E+02  0.71602227499E+02 -0.23749582870E+03  0.24991659067E+03  0.00000000000E+00 0. -1.
         -5    1    3    3    0  503 -0.61459605375E+02  0.45285478990E+02 -0.57067220672E+03  0.57577505609E+03  0.47000000000E+01 0.  1.
         13    1    4    4    0    0  0.30478051773E+00 -0.15508972184E+02 -0.10306938817E+02  0.18624019361E+02  0.00000000000E+00 0. -1.
        -14    1    4    4    0    0 -0.32761370623E+02 -0.61766229125E+02 -0.40392957893E+03  0.40993594524E+03  0.00000000000E+00 0.  1.
</event>
<event>
12    1  0.8313893E-002  0.2199062E+03  0.7818608E-02  0.1133969E+00
         21   -1    0    0  503  502  0.00000000000E+00  0.00000000000E+00  0.12135499790E+03  0.12135499790E+03  0.00000000000E+00 0. -1.
         21   -1    0    0  501  503 -0.00000000000E+00 -0.00000000000E+00 -0.52682334732E+03  0.52682334732E+03  0.00000000000E+00 0.  1.
          6    2    1    2  501    0  0.42595208007E+02 -0.13017769963E+03 -0.36281584390E+03  0.42425710228E+03  0.17204117829E+03 0.  0.
         24    2    3    3    0    0 -0.19566152729E+02 -0.99529678690E+02 -0.13467765421E+03  0.18577762821E+03  0.78014519987E+02 0.  0.
         -6    2    1    2    0  502 -0.42595208007E+02  0.13017769963E+03 -0.42652505515E+02  0.22392124294E+03  0.17193284034E+03 0.  0.
        -24    2    5    5    0    0  0.20999381281E+01  0.11116523489E+03  0.27612915299E+02  0.13837330745E+03  0.77605282911E+02 0.  0.
          5    1    3    3  501    0  0.62161360736E+02 -0.30648020937E+02 -0.22813818970E+03  0.23847947407E+03  0.47000000000E+01 0. -1.
        -13    1    4    4    0    0 -0.20383469451E+02  0.27169432907E+01 -0.46168803852E+02  0.50541330185E+02  0.00000000000E+00 0.  1.
         14    1    4    4    0    0  0.81731672241E+00 -0.10224662198E+03 -0.88508850353E+02  0.13523629803E+03  0.00000000000E+00 0. -1.
         -5    1    5    5    0  502 -0.44695146135E+02  0.19012464735E+02 -0.70265420814E+02  0.85547935483E+02  0.47000000000E+01 0.  1.
         11    1    6    6    0    0 -0.34921731314E+02  0.48744408573E+02 -0.19857459732E+01  0.59995732116E+02  0.00000000000E+00 0. -1.
        -12    1    6    6    0    0  0.37021669443E+02  0.62420826319E+02  0.29598661272E+02  0.78377575337E+02  0.00000000000E+00 0.  1.
</event>
<event>
12    1  0.8313893E-002  0.2707684E+03  0.7818608E-02  0.1100869E+00
         21   -1    0    0  503  502  0.00000000000E+00  0.00000000000E+00  0.14626911053E+04  0.14626911053E+04  0.00000000000E+00 0. -1.
         21   -1    0    0  501  503 -0.00000000000E+00 -0.00000000000E+00 -0.78037403831E+02  0.78037403831E+02  0.00000000000E+00 0.  1.
          6    2    1    2  501    0  0.91210842871E+02  0.18890523065E+03  0.23144882080E+03  0.35620793773E+03  0.17120436393E+03 0.  0.
         24    2    3    3    0    0  0.10006195647E+03  0.19093814831E+03  0.24728637776E+03  0.33735606311E+03  0.78668857105E+02 0.  0.
         -6    2    1    2    0  502 -0.91210842871E+02 -0.18890523065E+03  0.11532048807E+04  0.11845205714E+04  0.17088851115E+03 0.  0.
        -24    2    5    5    0    0 -0.10679804945E+03 -0.96828407703E+02  0.88968509950E+03  0.90490321249E+03  0.80800271069E+02 0.  0.
          5    1    3    3  501    0 -0.88511135995E+01 -0.20329176532E+01 -0.15837556964E+02  0.18851874621E+02  0.47000000000E+01 0. -1.
        -13    1    4    4    0    0  0.75788147927E+02  0.18818625883E+03  0.20432742295E+03  0.28793681104E+03  0.00000000000E+00 0.  1.
         14    1    4    4    0    0  0.24273808544E+02  0.27518894714E+01  0.42958954810E+02  0.49419252071E+02  0.00000000000E+00 0. -1.
         -5    1    5    5    0  502  0.15587206583E+02 -0.92076822949E+02  0.26351978116E+03  0.27961735890E+03  0.47000000000E+01 0.  1.
         13    1    6    6    0    0 -0.50448108939E+02 -0.11986295424E+02  0.47809292916E+03  0.48089659168E+03  0.00000000000E+00 0. -1.
        -14    1    6    6    0    0 -0.56349940516E+02 -0.84842112279E+02  0.41159217034E+03  0.42400662082E+03  0.00000000000E+00 0.  1.
</event>
<event>
12    1  0.8313893E-002  0.2600201E+03  0.7818608E-02  0.1107338E+00
         21   -1    0    0  501  502  0.00000000000E+00  0.00000000000E+00  0.31643889802E+03  0.31643889802E+03  0.00000000000E+00 0.  1.
         21   -1    0    0  502  503 -0.00000000000E+00 -0.00000000000E+00 -0.25504873909E+03  0.25504873909E+03  0.00000000000E+00 0.  1.
         -6    2    1    2    0  503 -0.19551642942E+02 -0.19373967025E+03 -0.85899586500E+02  0.27384153255E+03  0.17231691564E+03 0.  0.
        -24    2    3    3    0    0 -0.34622382711E+02 -0.12843076074E+03  0.11249775725E+02  0.15572096093E+03  0.80182856831E+02 0.  0.
          6    2    1    2  501    0  0.19551642942E+02  0.19373967025E+03  0.14728974543E+03  0.29764610456E+03  0.17023985398E+03 0.  0.
         24    2    5    5    0    0 -0.25457420979E+02  0.19196395147E+03  0.10324665344E+03  0.23447290641E+03  0.82579861028E+02 0.  0.
          5    1    5    5  501    0  0.45009063920E+02  0.17757187763E+01  0.44043091990E+02  0.63173198148E+02  0.47000000000E+01 0. -1.
        -11    1    6    6    0    0  0.32623001445E+01  0.79871436818E+02  0.82518717784E+00  0.79942291407E+02  0.00000000000E+00 0.  1.
         12    1    6    6    0    0 -0.28719721123E+02  0.11209251465E+03  0.10242146626E+03  0.15453061500E+03  0.00000000000E+00 0. -1.
         -5    1    3    3    0  503  0.15070739770E+02 -0.65308909504E+02 -0.97149362224E+02  0.11812057161E+03  0.47000000000E+01 0.  1.
         11    1    4    4    0    0  0.12117827660E+02 -0.46243450888E+01 -0.16012571995E+02  0.20606522671E+02  0.00000000000E+00 0. -1.
        -12    1    4    4    0    0 -0.46740210372E+02 -0.12380641566E+03  0.27262347720E+02  0.13511443826E+03  0.00000000000E+00 0.  1.
</event>
<event>
12    1  0.8313893E-002  0.1909526E+03  0.7818608E-02  0.1157747E+00
         21   -1    0    0  501  502  0.00000000000E+00  0.00000000000E+00  0.13974392866E+03  0.13974392866E+03  0.00000000000E+00 0. -1.
         21   -1    0    0  502  503 -0.00000000000E+00 -0.00000000000E+00 -0.11623906858E+04  0.11623906858E+04  0.00000000000E+00 0. -1.
         -6    2    1    2    0  503 -0.80559729416E+02 -0.82717441539E+01 -0.10847638128E+04  0.11013326845E+04  0.17222909356E+03 0.  0.
        -24    2    3    3    0    0 -0.17323906997E+02 -0.60051068924E+02 -0.74589568462E+03  0.75271603832E+03  0.79465800012E+02 0.  0.
          6    2    1    2  501    0  0.80559729416E+02  0.82717441539E+01  0.62117055584E+02  0.20080193003E+03  0.17292945022E+03 0.  0.
         24    2    5    5    0    0  0.28162107102E+02  0.30615990901E+02 -0.27646966418E+02  0.94385550494E+02  0.80086417167E+02 0.  0.
          5    1    5    5  501    0  0.52397622314E+02 -0.22344246748E+02  0.89764022002E+02  0.10641637953E+03  0.47000000000E+01 0. -1.
        -13    1    6    6    0    0 -0.83130968196E+01 -0.15515033857E+02 -0.30818588324E+02  0.35490974072E+02  0.00000000000E+00 0.  1.
         14    1    6    6    0    0  0.36475203921E+02  0.46131024759E+02  0.31716219060E+01  0.58894576422E+02  0.00000000000E+00 0. -1.
         -5    1    3    3    0  503 -0.63235822419E+02  0.51779324770E+02 -0.33886812815E+03  0.34861664617E+03  0.47000000000E+01 0.  1.
         13    1    4    4    0    0 -0.23670080931E+02  0.37948839489E+01 -0.74505971648E+02  0.78267577494E+02  0.00000000000E+00 0. -1.
        -14    1    4    4    0    0  0.63461739343E+01 -0.63845952873E+02 -0.67138971297E+03  0.67444846083E+03  0.00000000000E+00 0.  1.
</event>
<event>
12    1  0.8313893E-002  0.2040068E+03  0.7818608E-02  0.1146594E+00
         21   -1    0    0  503  502  0.00000000000E+00  0.00000000000E+00  0.39763940089E+02  0.39763940089E+02  0.00000000000E+00 0.  1.
         21   -1    0    0  501  503 -0.00000000000E+00 -0.00000000000E+00 -0.14666672307E+04  0.14666672307E+04  0.00000000000E+00 0. -1.
          6    2    1    2  501    0 -0.10748385854E+03 -0.19082159040E+02 -0.11176517067E+04  0.11359513225E+04  0.17124006842E+03 0.  0.
         24    2    3    3    0    0 -0.69742245378E+02  0.39661404419E+02 -0.31595585301E+03  0.33120691128E+03  0.58591033783E+02 0.  0.
         -6    2    1    2    0  502  0.10748385854E+03  0.19082159040E+02 -0.30925158393E+03  0.37047984828E+03  0.17234229654E+03 0.  0.
        -24    2    5    5    0    0  0.90700287844E+02  0.33649212316E+02 -0.32034275013E+03  0.34520157196E+03  0.84769310566E+02 0.  0.
          5    1    3    3  501    0 -0.37741613158E+02 -0.58743563459E+02 -0.80169585371E+03  0.80474441127E+03  0.47000000000E+01 0. -1.
        -11    1    4    4    0    0 -0.37418119569E+02  0.43148082868E+01 -0.22767038418E+03  0.23076511235E+03  0.00000000000E+00 0.  1.
         12    1    4    4    0    0 -0.32324125809E+02  0.35346596133E+02 -0.88285468823E+02  0.10044179893E+03  0.00000000000E+00 0. -1.
         -5    1    5    5    0  502  0.16783570691E+02 -0.14567053276E+02  0.11091166198E+02  0.25278276325E+02  0.47000000000E+01 0.  1.
         13    1    6    6    0    0  0.42502008438E+02 -0.17984105674E+02 -0.61473297344E+02  0.76868817244E+02  0.00000000000E+00 0. -1.
        -14    1    6    6    0    0  0.48198279407E+02  0.51633317990E+02 -0.25886945279E+03  0.26833275471E+03  0.00000000000E+00 0.  1.
</event>
<event>
12    1  0.8313893E-002  0.1776880E+03  0.7818608E-02  0.1170178E+00
         21   -1    0    0  501  502  0.00000000000E+00  0.00000000000E+00  0.23836633647E+03  0.23836633647E+03  0.00000000000E+00 0. -1.
         21   -1    0    0  502  503 -0.00000000000E+00 -0.00000000000E+00 -0.14002896448E+03  0.14002896448E+03  0.00000000000E+00 0. -1.
         -6    2    1    2    0  503 -0.32806922474E+02  0.29019663766E+02  0.94260042309E+02  0.20114172087E+03  0.17220511389E+03 0.  0.
        -24    2    3    3    0    0 -0.67230360110E+02 -0.32392771005E+02  0.61608503650E+02  0.12339422457E+03  0.76559218920E+02 0.  0.
          6    2    1    2  501    0  0.32806922474E+02 -0.29019663766E+02  0.40773296841E+01  0.17725358008E+03  0.17170839230E+03 0.  0.
         24    2    5    5    0    0 -0.34028770215E+02  0.12732310685E+02  0.30612933231E+02  0.93968134511E+02  0.81072743168E+02 0.  0.
          5    1    5    5  501    0  0.66835692689E+02 -0.41751974451E+02 -0.26535603546E+02  0.83285445567E+02  0.47000000000E+01 0. -1.
        -13    1    6    6    0    0 -0.39145632858E+02  0.40887354021E+02  0.32531821138E+02  0.65287638013E+02  0.00000000000E+00 0.  1.
         14    1    6    6    0    0  0.51168626431E+01 -0.28155043337E+02 -0.19188879078E+01  0.28680496498E+02  0.00000000000E+00 0. -1.
         -5    1    3    3    0  503  0.34423437636E+02  0.61412434772E+02  0.32651538660E+02  0.77747496295E+02  0.47000000000E+01 0.  1.
         13    1    4    4    0    0 -0.21570038275E+02 -0.10051352170E+02 -0.17376113987E+02  0.29465667631E+02  0.00000000000E+00 0. -1.
        -14    1    4    4    0    0 -0.45660321835E+02 -0.22341418835E+02  0.78984617637E+02  0.93928556940E+02  0.00000000000E+00 0.  1.
</event>
<event>
12    1  0.8313893E-002  0.1829665E+03  0.7818608E-02  0.1165301E+00
         21   -1    0    0  503  502  0.00000000000E+00  0.00000000000E+00  0.20251695309E+02  0.20251695309E+02  0.00000000000E+00 0.  1.
         21   -1    0    0  501  503 -0.00000000000E+00 -0.00000000000E+00 -0.16403846530E+04  0.16403846530E+04  0.00000000000E+00 0.  1.
          6    2    1    2  501    0  0.38764682918E+02  0.38205221203E+02 -0.80468515876E+03  0.82522417172E+03  0.17468368356E+03 0.  0.
         24    2    3    3    0    0 -0.73831076186E+01 -0.37303645766E+02 -0.31033466358E+03  0.32299343825E+03  0.81062232071E+02 0.  0.
         -6    2    1    2    0  502 -0.38764682918E+02 -0.38205221203E+02 -0.81544779894E+03  0.83541217660E+03  0.17319368474E+03 0.  0.
        -24    2    5    5    0    0 -0.55596821362E+02 -0.59535236014E+02 -0.36932404064E+03  0.38843702276E+03  0.88586809343E+02 0.  0.
          5    1    3    3  501    0  0.46147790537E+02  0.75508866968E+02 -0.49435049518E+03  0.50223073348E+03  0.47000000000E+01 0. -1.
        -13    1    4    4    0    0  0.27930079931E+02 -0.43305164925E+02 -0.21666380303E+03  0.22270749924E+03  0.00000000000E+00 0.  1.
         14    1    4    4    0    0 -0.35313187550E+02  0.60015191591E+01 -0.93670860544E+02  0.10028593901E+03  0.00000000000E+00 0. -1.
         -5    1    5    5    0  502  0.16832138444E+02  0.21330014812E+02 -0.44612375831E+03  0.44697515383E+03  0.47000000000E+01 0.  1.
         11    1    6    6    0    0  0.13143822799E+02  0.70557793933E+01 -0.14031494690E+02  0.20479915621E+02  0.00000000000E+00 0. -1.
        -12    1    6    6    0    0 -0.68740644161E+02 -0.66591015408E+02 -0.35529254595E+03  0.36795710714E+03  0.00000000000E+00 0.  1.
</event>
<event>
12    1  0.8313893E-002  0.1829559E+03  0.7818608E-02  0.1165008E+00
         21   -1    0    0  501  502  0.00000000000E+00  0.00000000000E+00  0.60668303512E+02  0.60668303512E+02  0.00000000000E+00 0.  1.
         21   -1    0    0  502  503 -0.00000000000E+00 -0.00000000000E+00 -0.55942373890E+03  0.55942373890E+03  0.00000000000E+00 0.  1.
         -6    2    1    2    0  503  0.17565553430E+02  0.58940924611E+02 -0.28688653750E+03  0.34025979730E+03  0.17230862716E+03 0.  0.
        -24    2    3    3    0    0  0.26757348217E+02 -0.51577149189E+00 -0.55898082224E+02  0.10151863144E+03  0.80406562104E+02 0.  0.
          6    2    1    2  501    0 -0.17565553430E+02 -0.58940924611E+02 -0.21186889789E+03  0.27983224512E+03  0.17214840764E+03 0.  0.
         24    2    5    5    0    0 -0.38749380743E+02  0.24556752652E+02 -0.84129489223E+02  0.12568924925E+03  0.81335526139E+02 0.  0.
          5    1    5    5  501    0  0.21183827313E+02 -0.83497677262E+02 -0.12773940867E+03  0.15414299586E+03  0.47000000000E+01 0. -1.
        -11    1    6    6    0    0 -0.33619341934E+02 -0.15509847493E+02 -0.75924061974E+02  0.84470578949E+02  0.00000000000E+00 0.  1.
         12    1    6    6    0    0 -0.51300388095E+01  0.40066600145E+02 -0.82054272491E+01  0.41218670305E+02  0.00000000000E+00 0. -1.
         -5    1    3    3    0  503 -0.91917947870E+01  0.59456696102E+02 -0.23098845528E+03  0.23874116586E+03  0.47000000000E+01 0.  1.
         13    1    4    4    0    0  0.15050431244E+02 -0.36428645849E+02 -0.49389318780E+02  0.63189132994E+02  0.00000000000E+00 0. -1.
        -14    1    4    4    0    0  0.11706916973E+02  0.35912874357E+02 -0.65087634443E+01  0.38329498446E+02  0.00000000000E+00 0.  1.
</event>
<event>
12    1  0.8313893E-002  0.3111710E+03  0.7818608E-02  0.1079873E+00
         21   -1    0    0  501  502  0.00000000000E+00  0.00000000000E+00  0.59008289752E+03  0.59008289752E+03  0.00000000000E+00 0.  1.
         21   -1    0    0  502  503 -0.00000000000E+00 -0.00000000000E+00 -0.16635537102E+03  0.16635537102E+03  0.00000000000E+00 0. -1.
         -6    2    1    2    0  503 -0.18033883339E+03  0.18622182990E+03  0.25934209663E+03  0.40451507887E+03  0.17080240393E+03 0.  0.
        -24    2    3    3    0    0 -0.21217239342E+02  0.29480412350E+02  0.66644158818E+02  0.10948603131E+03  0.78908055286E+02 0.  0.
          6    2    1    2  501    0  0.18033883339E+03 -0.18622182990E+03  0.16438542986E+03  0.35192318967E+03  0.17212407476E+03 0.  0.
         24    2    5    5    0    0  0.19271097153E+03 -0.11640709589E+03  0.13590737534E+03  0.27537087763E+03  0.81671139688E+02 0.  0.
          5    1    5    5  501    0 -0.12372138136E+02 -0.69814734019E+02  0.28478054529E+02  0.76552312035E+02  0.47000000000E+01 0. -1.
        -11    1    6    6    0    0  0.39485434312E+02 -0.31212086864E+02  0.73897483951E+02  0.89409910097E+02  0.00000000000E+00 0.  1.
         12    1    6    6    0    0  0.15322553722E+03 -0.85195009022E+02  0.62009891385E+02  0.18596096754E+03  0.00000000000E+00 0. -1.
         -5    1    3    3    0  503 -0.15912159405E+03  0.15674141755E+03  0.19269793781E+03  0.29502904757E+03  0.47000000000E+01 0.  1.
         11    1    4    4    0    0 -0.15177097441E+02  0.49520912998E+02  0.15249595790E+02  0.53992733610E+02  0.00000000000E+00 0. -1.
        -12    1    4    4    0    0 -0.60401419012E+01 -0.20040500648E+02  0.51394563027E+02  0.55493297696E+02  0.00000000000E+00 0.  1.
</event>
<event>
12    1  0.8313893E-002  0.3139499E+03  0.7818608E-02  0.1078607E+00
         21   -1    0    0  503  502  0.00000000000E+00  0.00000000000E+00  0.15841466447E+03  0.15841466447E+03  0.00000000000E+00 0. -1.
         21   -1    0    0  501  503 -0.00000000000E+00 -0.00000000000E+00 -0.76703424701E+03  0.76703424701E+03  0.00000000000E+00 0.  1.
          6    2    1    2  501    0  0.26844751366E+01 -0.26182007016E+03 -0.50745882017E+03  0.59672355379E+03  0.17322698961E+03 0.  0.
         24    2    3    3    0    0  0.66494049219E+02 -0.19098392651E+03 -0.37537401690E+03  0.43375758726E+03  0.79647179311E+02 0.  0.
         -6    2    1    2    0  502 -0.26844751366E+01  0.26182007016E+03 -0.10116076237E+03  0.32872535769E+03  0.17108449785E+03 0.  0.
        -24    2    5    5    0    0  0.18520012517E+02  0.16337175718E+03 -0.12994105100E+03  0.22388216221E+03  0.78773243639E+02 0.  0.
          5    1    3    3  501    0 -0.63809574082E+02 -0.70836143646E+02 -0.13208480327E+03  0.16296596653E+03  0.47000000000E+01 0. -1.
        -13    1    4    4    0    0 -0.85309198470E+01  0.18818672577E+01 -0.28841749323E+02  0.30135768147E+02  0.00000000000E+00 0.  1.
         14    1    4    4    0    0  0.75024969066E+02 -0.19286579377E+03 -0.34653226758E+03  0.40362181911E+03  0.00000000000E+00 0. -1.
         -5    1    5    5    0  502 -0.21204487653E+02  0.98448312974E+02  0.28780288636E+02  0.10484319548E+03  0.47000000000E+01 0.  1.
         13    1    6    6    0    0  0.28674700777E+02  0.44200187665E+02 -0.83827543973E+01  0.53349466966E+02  0.00000000000E+00 0. -1.
        -14    1    6    6    0    0 -0.10154688261E+02  0.11917156952E+03 -0.12155829660E+03  0.17053269525E+03  0.00000000000E+00 0.  1.
</event>
<event>
12    1  0.8313893E-002  0.1979455E+03  0.7818608E-02  0.1151683E+00
         21   -1    0    0  503  502  0.00000000000E+00  0.00000000000E+00  0.52497876409E+03  0.52497876409E+03  0.00000000000E+00 0.  1.
         21   -1    0    0  501  503 -0.00000000000E+00 -0.00000000000E+00 -0.78076353647E+02  0.78076353647E+02  0.00000000000E+00 0.  1.
          6    2    1    2  501    0  0.70721133615E+02  0.66743787721E+02  0.15751964739E+03  0.25297203817E+03  0.17241287899E+03 0.  0.
         24    2    3    3    0    0  0.76381799477E+02  0.84140522701E+02  0.17875962933E+03  0.22454816864E+03  0.74518911079E+02 0.  0.
         -6    2    1    2    0  502 -0.70721133615E+02 -0.66743787721E+02  0.28938276306E+03  0.35008307957E+03  0.17134633672E+03 0.  0.
        -24    2    5    5    0    0 -0.24010804728E+02 -0.10430287849E+03  0.18084812795E+03  0.22600891972E+03  0.83176782854E+02 0.  0.
          5    1    3    3  501    0 -0.56606658614E+01 -0.17396734980E+02 -0.21239981945E+02  0.28423869529E+02  0.47000000000E+01 0. -1.
        -13    1    4    4    0    0  0.63378485855E+02  0.76609938704E+02  0.88697197960E+02  0.13324078994E+03  0.00000000000E+00 0.  1.
         14    1    4    4    0    0  0.13003313622E+02  0.75305839974E+01  0.90062431373E+02  0.91307378701E+02  0.00000000000E+00 0. -1.
         -5    1    5    5    0  502 -0.46710328888E+02  0.37559090768E+02  0.10853463511E+03  0.12407415985E+03  0.47000000000E+01 0.  1.
         11    1    6    6    0    0  0.19038468684E+02 -0.42578130954E+02  0.24942745075E+02  0.52891408160E+02  0.00000000000E+00 0. -1.
        -12    1    6    6    0    0 -0.43049273412E+02 -0.61724747536E+02  0.15590538288E+03  0.17311751156E+03  0.00000000000E+00 0.  1.
</event>
<event>
12    1  0.8313893E-002  0.1729003E+03  0.7818608E-02  0.1176746E+00
         21   -1    0    0  501  502  0.00000000000E+00  0.00000000000E+00  0.19381828361E+03  0.19381828361E+03  0.00000000000E+00 0.  1.
         21   -1    0    0  502  503 -0.00000000000E+00 -0.00000000000E+00 -0.36860848437E+03  0.36860848437E+03  0.00000000000E+00 0.  1.
         -6    2    1    2    0  503  0.67928447883E+01 -0.13869221694E+02 -0.30425348031E+03  0.34642846593E+03  0.16493636250E+03 0.  0.
        -24    2    3    3    0    0  0.29809668624E+02 -0.28416890837E+02 -0.30592509251E+03  0.31874646557E+03  0.79454458983E+02 0.  0.
          6    2    1    2  501    0 -0.67928447883E+01  0.13869221694E+02  0.12946327955E+03  0.21599830205E+03  0.17220925552E+03 0.  0.
         24    2    5    5    0    0  0.38443446773E+02 -0.13148776295E+02  0.18004774071E+02  0.92623334036E+02  0.81265744326E+02 0.  0.
          5    1    5    5  501    0 -0.45236291561E+02  0.27017997989E+02  0.11145850548E+03  0.12337496802E+03  0.47000000000E+01 0. -1.
        -11    1    6    6    0    0  0.50188682212E-01  0.71757706523E+01  0.42263095012E+02  0.42867976432E+02  0.00000000000E+00 0.  1.
         12    1    6    6    0    0  0.38393258091E+02 -0.20324546948E+02 -0.24258320941E+02  0.49755357604E+02  0.00000000000E+00 0. -1.
         -5    1    3    3    0  503 -0.23016823835E+02  0.14547669143E+02  0.16716122014E+01  0.27682000367E+02  0.47000000000E+01 0.  1.
         13    1    4    4    0    0 -0.25748363434E+02 -0.21277746429E+02 -0.10796818594E+03  0.11301703361E+03  0.00000000000E+00 0. -1.
        -14    1    4    4    0    0  0.55558032057E+02 -0.71391444079E+01 -0.19795690658E+03  0.20572943195E+03  0.00000000000E+00 0.  1.
</event>
<event>
12    1  0.8313893E-002  0.2164753E+03  0.7818608E-02  0.1136543E+00
         21   -1    0    0  501  502  0.00000000000E+00  0.00000000000E+00  0.81747032258E+03  0.81747032258E+03  0.00000000000E+00 0.  1.
         21   -1    0    0  502  503 -0.00000000000E+00 -0.00000000000E+00 -0.36822550626E+03  0.36822550626E+03  0.00000000000E+00 0.  1.
         -6    2    1    2    0  503  0.13099304049E+03  0.88007188720E+01 -0.32013420135E+03  0.38644265155E+03  0.17209121638E+03 0.  0.
        -24    2    3    3    0    0  0.88025654177E+02 -0.16414930471E+01 -0.83801599304E+02  0.14596307890E+03  0.80816471477E+02 0.  0.
          6    2    1    2  501    0 -0.13099304049E+03 -0.88007188720E+01  0.76937901766E+03  0.79925317729E+03  0.17211896838E+03 0.  0.
         24    2    5    5    0    0 -0.14148250801E+03 -0.52484486947E+02  0.57885460379E+03  0.60344729688E+03  0.79398150723E+02 0.  0.
          5    1    5    5  501    0  0.10489467512E+02  0.43683768075E+02  0.19052441387E+03  0.19580588041E+03  0.47000000000E+01 0. -1.
        -11    1    6    6    0    0 -0.72282014087E+02 -0.19182861813E+02  0.42457283855E+03  0.43110876467E+03  0.00000000000E+00 0.  1.
         12    1    6    6    0    0 -0.69200493919E+02 -0.33301625135E+02  0.15428176524E+03  0.17233853220E+03  0.00000000000E+00 0. -1.
         -5    1    3    3    0  503  0.42967386317E+02  0.10442211919E+02 -0.23633260205E+03  0.24047957266E+03  0.47000000000E+01 0.  1.
         11    1    4    4    0    0 -0.79974579996E+00  0.22768147056E+02 -0.34877520684E+02  0.41658967376E+02  0.00000000000E+00 0. -1.
        -12    1    4    4    0    0  0.88825399977E+02 -0.24409640103E+02 -0.48924078619E+02  0.10430411152E+03  0.00000000000E+00 0.  1.
</event>
<event>
12    1  0.8313893E-002  0.1946594E+03  0.7818608E-02  0.1154473E+00
         21   -1    0    0  503  502  0.00000000000E+00  0.00000000000E+00  0.64323048145E+02  0.64323048145E+02  0.00000000000E+00 0. -1.
         21   -1    0    0  501  503 -0.00000000000E+00 -0.00000000000E+00 -0.58705838389E+03  0.58705838389E+03  0.00000000000E+00 0. -1.
          6    2    1    2  501    0  0.91516775320E+02 -0.14753541906E+02 -0.25970937168E+03  0.32415833880E+03  0.17040153671E+03 0.  0.
         24    2    3    3    0    0  0.63711133101E+02  0.50688414792E+02 -0.20433288795E+03  0.23391174115E+03  0.79588627820E+02 0.  0.
         -6    2    1    2    0  502 -0.91516775320E+02  0.14753541906E+02 -0.26302596407E+03  0.32722309324E+03  0.17117040577E+03 0.  0.
        -24    2    5    5    0    0 -0.79696015030E+02  0.72782131896E+02 -0.16726423020E+03  0.21453126876E+03  0.79985305134E+02 0.  0.
          5    1    3    3  501    0  0.27805642219E+02 -0.65441956699E+02 -0.55376483730E+02  0.90246597642E+02  0.47000000000E+01 0. -1.
        -13    1    4    4    0    0  0.60756927330E+02  0.69663439603E+02 -0.14902583371E+03  0.17536561279E+03  0.00000000000E+00 0.  1.
         14    1    4    4    0    0  0.29542057717E+01 -0.18975024810E+02 -0.55307054239E+02  0.58546128368E+02  0.00000000000E+00 0. -1.
         -5    1    5    5    0  502 -0.11820760290E+02 -0.58028589990E+02 -0.95761733870E+02  0.11269182448E+03  0.47000000000E+01 0.  1.
         13    1    6    6    0    0 -0.47479380282E+02  0.99172702234E+01 -0.22535157626E+02  0.53483428554E+02  0.00000000000E+00 0. -1.
        -14    1    6    6    0    0 -0.32216634748E+02  0.62864861673E+02 -0.14472907258E+03  0.16104784021E+03  0.00000000000E+00 0.  1.
</event>
<event>
12    1  0.8313893E-002  0.1745189E+03  0.7818608E-02  0.1173973E+00
         21   -1    0    0  501  502  0.00000000000E+00  0.00000000000E+00  0.16052543230E+03  0.16052543230E+03  0.00000000000E+00 0. -1.
         21   -1    0    0  502  503 -0.00000000000E+00 -0.00000000000E+00 -0.23404308537E+03  0.23404308537E+03  0.00000000000E+00 0. -1.
         -6    2    1    2    0  503 -0.14457087291E+02 -0.54988681286E+01  0.51895162888E+02  0.18207130682E+03  0.17383212566E+03 0.  0.
        -24    2    3    3    0    0  0.14497855798E+02 -0.65163344642E+02  0.17577401739E+02  0.10725127463E+03  0.82081797918E+02 0.  0.
          6    2    1    2  501    0  0.14457087291E+02  0.54988681286E+01 -0.12541281596E+03  0.21249721085E+03  0.17084333551E+03 0.  0.
         24    2    5    5    0    0  0.66713934597E+02 -0.50617481812E+01 -0.10307802243E+03  0.15450378269E+03  0.93648116878E+02 0.  0.
          5    1    5    5  501    0 -0.52256847307E+02  0.10560616310E+02 -0.22334793534E+02  0.57993428158E+02  0.47000000000E+01 0. -1.
        -11    1    6    6    0    0  0.71406534170E+02 -0.30230857483E+02 -0.41797532840E+02  0.88089906447E+02  0.00000000000E+00 0.  1.
         12    1    6    6    0    0 -0.46925995729E+01  0.25169109302E+02 -0.61280489590E+02  0.66413876247E+02  0.00000000000E+00 0. -1.
         -5    1    3    3    0  503 -0.28954943089E+02  0.59664476513E+02  0.34317761149E+02  0.74820032191E+02  0.47000000000E+01 0.  1.
         11    1    4    4    0    0  0.34680925632E+02 -0.53235427841E+02 -0.16727383218E+02  0.65700705700E+02  0.00000000000E+00 0. -1.
        -12    1    4    4    0    0 -0.20183069834E+02 -0.11927916800E+02  0.34304784957E+02  0.41550568926E+02  0.00000000000E+00 0.  1.
</event>
<event>
12    1  0.8313893E-002  0.1797218E+03  0.7818608E-02  0.1169575E+00
         21   -1    0    0  503  502  0.00000000000E+00  0.00000000000E+00  0.43639762987E+02  0.43639762987E+02  0.00000000000E+00 0. -1.
         21   -1    0    0  501  503 -0.00000000000E+00 -0.00000000000E+00 -0.75073039625E+03  0.75073039625E+03  0.00000000000E+00 0. -1.
          6    2    1    2  501    0 -0.47946850621E+02 -0.24312268599E+02 -0.27307915555E+03  0.32691308018E+03  0.17149329407E+03 0.  0.
         24    2    3    3    0    0  0.21621355067E+02  0.49480484231E+01 -0.65389865486E+02  0.10588631121E+03  0.80275215452E+02 0.  0.
         -6    2    1    2    0  502  0.47946850621E+02  0.24312268599E+02 -0.43401147772E+03  0.46745707906E+03  0.16510654463E+03 0.  0.
        -24    2    5    5    0    0  0.23976507263E+02 -0.48648128530E+02 -0.25700627577E+03  0.27445260132E+03  0.79564384473E+02 0.  0.
          5    1    3    3  501    0 -0.69568205687E+02 -0.29260317022E+02 -0.20768929006E+03  0.22102676897E+03  0.47000000000E+01 0. -1.
        -13    1    4    4    0    0 -0.21773688961E+02 -0.16563604536E+02 -0.46395185819E+02  0.53860558792E+02  0.00000000000E+00 0.  1.
         14    1    4    4    0    0  0.43395044028E+02  0.21511652960E+02 -0.18994679667E+02  0.52025752421E+02  0.00000000000E+00 0. -1.
         -5    1    5    5    0  502  0.23970343357E+02  0.72960397129E+02 -0.17700520195E+03  0.19300447774E+03  0.47000000000E+01 0.  1.
         11    1    6    6    0    0  0.35701338980E+02 -0.91363857940E+01 -0.20403471903E+03  0.20733602128E+03  0.00000000000E+00 0. -1.
        -12    1    6    6    0    0 -0.11724831716E+02 -0.39511742736E+02 -0.52971556733E+02  0.67116580034E+02  0.00000000000E+00 0.  1.
</event>
<event>
12    1  0.8313893E-002  0.1911374E+03  0.7818608E-02  0.1157693E+00
         21   -1    0    0  501  502  0.00000000000E+00  0.00000000000E+00  0.12696091249E+03  0.12696091249E+03  0.00000000000E+00 0. -1.
         21   -1    0    0  502  503 -0.00000000000E+00 -0.00000000000E+00 -0.30576753082E+03  0.30576753082E+03  0.00000000000E+00 0. -1.
         -6    2    1    2    0  503  0.32162029072E+02 -0.76554902528E+02 -0.14458143265E+03  0.23966080743E+03  0.17215824912E+03 0.  0.
        -24    2    3    3    0    0  0.63897292039E+02 -0.30192895315E+02 -0.14899812975E+03  0.18310853213E+03  0.79585281389E+02 0.  0.
          6    2    1    2  501    0 -0.32162029072E+02  0.76554902528E+02 -0.34225185678E+02  0.19306763588E+03  0.17090552792E+03 0.  0.
         24    2    5    5    0    0 -0.68857405512E+02  0.53279632700E+02  0.23484865159E+02  0.12067406706E+03  0.80191209094E+02 0.  0.
          5    1    5    5  501    0  0.36695376440E+02  0.23275269828E+02 -0.57710050837E+02  0.72393568811E+02  0.47000000000E+01 0. -1.
        -13    1    6    6    0    0 -0.49678840511E+02 -0.68445702732E+01 -0.69189060267E+01  0.50623182410E+02  0.00000000000E+00 0.  1.
         14    1    6    6    0    0 -0.19178565002E+02  0.60124202973E+02  0.30403771186E+02  0.70050884655E+02  0.00000000000E+00 0. -1.
         -5    1    3    3    0  503 -0.31735262966E+02 -0.46362007213E+02  0.44166971025E+01  0.56552275301E+02  0.47000000000E+01 0.  1.
         13    1    4    4    0    0  0.63710269340E+02 -0.51945810076E+02 -0.13199007410E+03  0.15549516155E+03  0.00000000000E+00 0. -1.
        -14    1    4    4    0    0  0.18702269835E+00  0.21752914761E+02 -0.17008055648E+02  0.27613370584E+02  0.00000000000E+00 0.  1.
</event>
<event>
12    1  0.8313893E-002  0.1936330E+03  0.7818608E-02  0.1155522E+00
         21   -1    0    0  503  502  0.00000000000E+00  0.00000000000E+00  0.25930298786E+02  0.25930298786E+02  0.00000000000E+00 0. -1.
         21   -1    0    0  501  503 -0.00000000000E+00 -0.00000000000E+00 -0.14813982245E+04  0.14813982245E+04  0.00000000000E+00 0. -1.
          6    2    1    2  501    0  0.24429335478E+02 -0.84213202095E+02 -0.85733231501E+03  0.87863149952E+03  0.17113140492E+03 0.  0.
         24    2    3    3    0    0  0.43936585211E+01  0.22338706642E+02 -0.35981676439E+03  0.36941784032E+03  0.80517791588E+02 0.  0.
         -6    2    1    2    0  502 -0.24429335478E+02  0.84213202095E+02 -0.59813561075E+03  0.62869702381E+03  0.17264148708E+03 0.  0.
        -24    2    5    5    0    0 -0.43240644027E+02  0.11725735989E+03 -0.41807222487E+03  0.44460276907E+03  0.85253711428E+02 0.  0.
          5    1    3    3  501    0  0.20035676956E+02 -0.10655190874E+03 -0.49751555062E+03  0.50921365920E+03  0.47000000000E+01 0. -1.
        -13    1    4    4    0    0  0.11736521498E+02 -0.21881764037E+02 -0.44742079629E+02  0.51170413559E+02  0.00000000000E+00 0.  1.
         14    1    4    4    0    0 -0.73428629773E+01  0.44220470679E+02 -0.31507468476E+03  0.31824742676E+03  0.00000000000E+00 0. -1.
         -5    1    5    5    0  502  0.18811308550E+02 -0.33044157796E+02 -0.18006338587E+03  0.18409425474E+03  0.47000000000E+01 0.  1.
         13    1    6    6    0    0 -0.53361316366E+02  0.52647551339E+02 -0.30407883294E+03  0.31318226544E+03  0.00000000000E+00 0. -1.
        -14    1    6    6    0    0  0.10120672339E+02  0.64609808552E+02 -0.11399339194E+03  0.13142050363E+03  0.00000000000E+00 0.  1.
</event>
<event>
12    1  0.8313893E-002  0.1788530E+03  0.7818608E-02  0.1170061E+00
         21   -1    0    0  503  502  0.00000000000E+00  0.00000000000E+00  0.83658814981E+03  0.83658814981E+03  0.00000000000E+00 0. -1.
         21   -1    0    0  501  503 -0.00000000000E+00 -0.00000000000E+00 -0.37308936160E+02  0.37308936160E+02  0.00000000000E+00 0.  1.
          6    2    1    2  501    0 -0.70221945025E+01  0.50450108336E+02  0.38828201013E+03  0.42749424353E+03  0.17144644709E+03 0.  0.
         24    2    3    3    0    0 -0.14310058130E+02  0.96693663669E+02  0.32802820694E+03  0.35104694035E+03  0.77955162887E+02 0.  0.
         -6    2    1    2    0  502  0.70221945025E+01 -0.50450108336E+02  0.41099720352E+03  0.44640284244E+03  0.16662014219E+03 0.  0.
        -24    2    5    5    0    0  0.47643465706E+02 -0.69064091535E+02  0.20381395757E+03  0.23440389091E+03  0.79782869146E+02 0.  0.
          5    1    3    3  501    0  0.72878636279E+01 -0.46243555333E+02  0.60253803183E+02  0.76447303184E+02  0.47000000000E+01 0. -1.
        -11    1    4    4    0    0 -0.37819403228E+02  0.17555199824E+02  0.92312565527E+02  0.10129216187E+03  0.00000000000E+00 0.  1.
         12    1    4    4    0    0  0.23509345098E+02  0.79138463845E+02  0.23571564142E+03  0.24975477848E+03  0.00000000000E+00 0. -1.
         -5    1    5    5    0  502 -0.40621271204E+02  0.18613983199E+02  0.20718324596E+03  0.21199895153E+03  0.47000000000E+01 0.  1.
         11    1    6    6    0    0 -0.88758206319E+01  0.56217512624E+01  0.71655225731E+02  0.72421375669E+02  0.00000000000E+00 0. -1.
        -12    1    6    6    0    0  0.56519286338E+02 -0.74685842797E+02  0.13215873184E+03  0.16198251524E+03  0.00000000000E+00 0.  1.
</event>
<event>
12    1  0.8313893E-002  0.1910960E+03  0.7818608E-02  0.1157970E+00
         21   -1    0    0  503  502  0.00000000000E+00  0.00000000000E+00  0.39443035097E+02  0.39443035097E+02  0.00000000000E+00 0.  1.
         21   -1    0    0  501  503 -0.00000000000E+00 -0.00000000000E+00 -0.91874971194E+03  0.91874971194E+03  0.00000000000E+00 0. -1.
          6    2    1    2  501    0 -0.44822302600E+02 -0.65404146166E+02 -0.46668930972E+03  0.50347222422E+03  0.17146027998E+03 0.  0.
         24    2    3    3    0    0 -0.22811032700E+02  0.32741511519E+02 -0.22429340631E+03  0.24099378679E+03  0.78601039246E+02 0.  0.
         -6    2    1    2    0  502  0.44822302600E+02  0.65404146166E+02 -0.41261736713E+03  0.45472052282E+03  0.17387041459E+03 0.  0.
        -24    2    5    5    0    0  0.72341750656E+02  0.50340029477E+02 -0.40405013550E+03  0.42186120008E+03  0.83324142246E+02 0.  0.
          5    1    3    3  501    0 -0.22011269900E+02 -0.98145657685E+02 -0.24239590341E+03  0.26247843743E+03  0.47000000000E+01 0. -1.
        -11    1    4    4    0    0 -0.45040669607E+02  0.23007432073E+02 -0.79807289499E+02  0.94483899720E+02  0.00000000000E+00 0.  1.
         12    1    4    4    0    0  0.22229636907E+02  0.97340794453E+01 -0.14448611681E+03  0.14650988707E+03  0.00000000000E+00 0. -1.
         -5    1    5    5    0  502 -0.27519448056E+02  0.15064116689E+02 -0.85672316287E+01  0.32859322737E+02  0.47000000000E+01 0.  1.
         11    1    6    6    0    0  0.45992222994E+02 -0.10717492916E+02 -0.24429829399E+03  0.24882083048E+03  0.00000000000E+00 0. -1.
        -12    1    6    6    0    0  0.26349527662E+02  0.61057522393E+02 -0.15975184151E+03  0.17304036961E+03  0.00000000000E+00 0.  1.
</event>
<event>
12    1  0.8313893E-002  0.1845777E+03  0.7818608E-02  0.1163446E+00
         21   -1    0    0  501  502  0.00000000000E+00  0.00000000000E+00  0.99146807810E+03  0.99146807810E+03  0.00000000000E+00 0. -1.
         21   -1    0    0  502  503 -0.00000000000E+00 -0.00000000000E+00 -0.35521925138E+02  0.35521925138E+02  0.00000000000E+00 0. -1.
         -6    2    1    2    0  503  0.63790286926E+02  0.11561304842E+02  0.38516244658E+03  0.42710541236E+03  0.17281799252E+03 0.  0.
        -24    2    3    3    0    0  0.97335023226E+02  0.34549806259E+02  0.23716249978E+03  0.27354827386E+03  0.88965223395E+02 0.  0.
          6    2    1    2  501    0 -0.63790286926E+02 -0.11561304842E+02  0.57078370638E+03  0.59988459087E+03  0.17281382590E+03 0.  0.
         24    2    5    5    0    0 -0.10047630083E+03 -0.47399700057E+01  0.31604782364E+03  0.34238730121E+03  0.84999310950E+02 0.  0.
          5    1    5    5  501    0  0.36686013902E+02 -0.68213348361E+01  0.25473588275E+03  0.25749728966E+03  0.47000000000E+01 0. -1.
        -11    1    6    6    0    0 -0.27325728682E+02  0.26709671466E+01  0.12690495478E+02  0.30246953383E+02  0.00000000000E+00 0.  1.
         12    1    6    6    0    0 -0.73150572146E+02 -0.74109371523E+01  0.30335732816E+03  0.31214034783E+03  0.00000000000E+00 0. -1.
         -5    1    3    3    0  503 -0.33544736300E+02 -0.22988501418E+02  0.14799994680E+03  0.15355713850E+03  0.47000000000E+01 0.  1.
         13    1    4    4    0    0  0.27822019193E+02  0.53892910345E+02  0.78090914274E+02  0.98877203791E+02  0.00000000000E+00 0. -1.
        -14    1    4    4    0    0  0.69513004034E+02 -0.19343104085E+02  0.15907158550E+03  0.17467107007E+03  0.00000000000E+00 0.  1.
</event>
<event>
12    1  0.8313893E-002  0.1923229E+03  0.7818608E-02  0.1156591E+00
         21   -1    0    0  503  502  0.00000000000E+00  0.00000000000E+00  0.37834597530E+02  0.37834597530E+02  0.00000000000E+00 0. -1.
         21   -1    0    0  501  503 -0.00000000000E+00 -0.00000000000E+00 -0.97654807446E+03  0.97654807446E+03  0.00000000000E+00 0. -1.
          6    2    1    2  501    0  0.76834755542E+02  0.37789303736E+02 -0.49928538374E+03  0.53471075562E+03  0.17116683856E+03 0.  0.
         24    2    3    3    0    0  0.38227451356E+02 -0.44212235671E+02 -0.30401854657E+03  0.31938308879E+03  0.78499814835E+02 0.  0.
         -6    2    1    2    0  502 -0.76834755542E+02 -0.37789303736E+02 -0.43942809319E+03  0.47967191637E+03  0.17221058949E+03 0.  0.
        -24    2    5    5    0    0 -0.24150543111E+02 -0.86406576683E+02 -0.25857999232E+03  0.28507646150E+03  0.79722213005E+02 0.  0.
          5    1    3    3  501    0  0.38607304186E+02  0.82001539407E+02 -0.19526683717E+03  0.21532766683E+03  0.47000000000E+01 0. -1.
        -11    1    4    4    0    0  0.33860093478E+02 -0.57099745816E+02 -0.14152584966E+03  0.15632163326E+03  0.00000000000E+00 0.  1.
         12    1    4    4    0    0  0.43673578783E+01  0.12887510145E+02 -0.16249269691E+03  0.16306145553E+03  0.00000000000E+00 0. -1.
         -5    1    5    5    0  502 -0.52684212431E+02  0.48617272946E+02 -0.18084810086E+03  0.19459545486E+03  0.47000000000E+01 0.  1.
         11    1    6    6    0    0 -0.50593378070E+02 -0.50588875417E+02 -0.19279260442E+03  0.20564025029E+03  0.00000000000E+00 0. -1.
        -12    1    6    6    0    0  0.26442834959E+02 -0.35817701265E+02 -0.65787387904E+02  0.79436211213E+02  0.00000000000E+00 0.  1.
</event>
<event>
12    1  0.8313893E-002  0.2521885E+03  0.7818608E-02  0.1111969E+00
         21   -1    0    0  503  502  0.00000000000E+00  0.00000000000E+00  0.11034267090E+03  0.11034267090E+03  0.00000000000E+00 0. -1.
         21   -1    0    0  501  503 -0.00000000000E+00 -0.00000000000E+00 -0.57627011897E+03  0.57627011897E+03  0.00000000000E+00 0.  1.
          6    2    1    2  501    0 -0.16270047854E+03  0.85356836227E+02 -0.24293509677E+03  0.35016640812E+03  0.17274784202E+03 0.  0.
         24    2    3    3    0    0 -0.95041886704E+02 -0.19276374000E+02 -0.14366539811E+03  0.19078523983E+03  0.79716512089E+02 0.  0.
         -6    2    1    2    0  502  0.16270047854E+03 -0.85356836227E+02 -0.22299235130E+03  0.33644638175E+03  0.17237558948E+03 0.  0.
        -24    2    5    5    0    0  0.33454955440E+02 -0.86575160019E+02 -0.11435181997E+03  0.16753591848E+03  0.79858956141E+02 0.  0.
          5    1    3    3  501    0 -0.67658591835E+02  0.10463321023E+03 -0.99269698658E+02  0.15938116828E+03  0.47000000000E+01 0. -1.
        -11    1    4    4    0    0 -0.18604522196E+02  0.29487753948E+02 -0.40392079862E+02  0.53358935471E+02  0.00000000000E+00 0.  1.
         12    1    4    4    0    0 -0.76437364508E+02 -0.48764127948E+02 -0.10327331825E+03  0.13742630436E+03  0.00000000000E+00 0. -1.
         -5    1    5    5    0  502  0.12924552310E+03  0.12183237916E+01 -0.10864053133E+03  0.16891046327E+03  0.47000000000E+01 0.  1.
         11    1    6    6    0    0  0.36057800098E+02 -0.13243426282E+01 -0.44511449691E+02  0.57299109809E+02  0.00000000000E+00 0. -1.
        -12    1    6    6    0    0 -0.26028446583E+01 -0.85250817390E+02 -0.69840370278E+02  0.11023680867E+03  0.00000000000E+00 0.  1.
</event>
<event>
12    1  0.8313893E-002  0.1874844E+03  0.7818608E-02  0.1161182E+00
         21   -1    0    0  503  502  0.00000000000E+00  0.00000000000E+00  0.17381129117E+03  0.17381129117E+03  0.00000000000E+00 0.  1.
         21   -1    0    0  501  503 -0.00000000000E+00 -0.00000000000E+00 -0.27705898121E+03  0.27705898121E+03  0.00000000000E+00 0. -1.
          6    2    1    2  501    0 -0.64301668627E+02 -0.13975383229E+02 -0.17015852844E+03  0.25180381240E+03  0.17355465772E+03 0.  0.
         24    2    3    3    0    0  0.48167893917E+01 -0.52242167060E+02 -0.97955630910E+02  0.14467278797E+03  0.92641591491E+02 0.  0.
         -6    2    1    2    0  502  0.64301668627E+02  0.13975383229E+02  0.66910838393E+02  0.19906645998E+03  0.17555733898E+03 0.  0.
        -24    2    5    5    0    0 -0.10718341899E+02  0.58628148555E+02  0.35193271056E+02  0.10606126922E+03  0.80363448439E+02 0.  0.
          5    1    3    3  501    0 -0.69118458019E+02  0.38266783831E+02 -0.72202897526E+02  0.10713102443E+03  0.47000000000E+01 0. -1.
        -11    1    4    4    0    0 -0.15099559967E+02 -0.21087792843E+01  0.13809276878E+02  0.20570361912E+02  0.00000000000E+00 0.  1.
         12    1    4    4    0    0  0.19916349359E+02 -0.50133387775E+02 -0.11176490779E+03  0.12410242606E+03  0.00000000000E+00 0. -1.
         -5    1    5    5    0  502  0.75020010526E+02 -0.44652765326E+02  0.31717567337E+02  0.93005190761E+02  0.47000000000E+01 0.  1.
         13    1    6    6    0    0  0.32095333795E+02  0.39995376549E+02  0.76447421570E+01  0.51847687310E+02  0.00000000000E+00 0. -1.
        -14    1    6    6    0    0 -0.42813675694E+02  0.18632772006E+02  0.27548528899E+02  0.54213581910E+02  0.00000000000E+00 0.  1.
</event>
<event>
12    1  0.8313893E-002  0.1842982E+03  0.7818608E-02  0.1165263E+00
         21   -1    0    0  501  502  0.00000000000E+00  0.00000000000E+00  0.24230814079E+03  0.24230814079E+03  0.00000000000E+00 0. -1.
         21   -1    0    0  502  503 -0.00000000000E+00 -0.00000000000E+00 -0.21273149122E+03  0.21273149122E+03  0.00000000000E+00 0. -1.
         -6    2    1    2    0  503  0.57726201137E+02 -0.10151374119E+01 -0.12265639884E+03  0.21599832910E+03  0.16815867862E+03 0.  0.
        -24    2    3    3    0    0  0.43051720089E+02  0.63140382881E+02 -0.63998234310E+02  0.12771389421E+03  0.79843009879E+02 0.  0.
          6    2    1    2  501    0 -0.57726201137E+02  0.10151374119E+01  0.15223304841E+03  0.23904130291E+03  0.17502142345E+03 0.  0.
         24    2    5    5    0    0  0.24482304902E+02 -0.11905756569E+02  0.12679409331E+03  0.15189534258E+03  0.79084275962E+02 0.  0.
          5    1    5    5  501    0 -0.82208506039E+02  0.12920893981E+02  0.25438955097E+02  0.87145960335E+02  0.47000000000E+01 0. -1.
        -13    1    6    6    0    0  0.34539848865E+02  0.10752846584E+02  0.18176621798E+02  0.40484743414E+02  0.00000000000E+00 0.  1.
         14    1    6    6    0    0 -0.10057543963E+02 -0.22658603153E+02  0.10861747151E+03  0.11141059916E+03  0.00000000000E+00 0. -1.
         -5    1    3    3    0  503  0.14674481047E+02 -0.64155520293E+02 -0.58658164528E+02  0.88284434890E+02  0.47000000000E+01 0.  1.
         11    1    4    4    0    0  0.27377464778E+02  0.37386793007E+02 -0.80840592682E+02  0.93179929675E+02  0.00000000000E+00 0. -1.
        -12    1    4    4    0    0  0.15674255311E+02  0.25753589874E+02  0.16842358372E+02  0.34533964535E+02  0.00000000000E+00 0.  1.
</event>
<event>
12    1  0.8313893E-002  0.1836621E+03  0.7818608E-02  0.1164374E+00
         21   -1    0    0  503  502  0.00000000000E+00  0.00000000000E+00  0.44820507731E+02  0.44820507731E+02  0.00000000000E+00 0.  1.
         21   -1    0    0  501  503 -0.00000000000E+00 -0.00000000000E+00 -0.84826755205E+03  0.84826755205E+03  0.00000000000E+00 0.  1.
          6    2    1    2  501    0 -0.39602102805E+02  0.51836870933E+02 -0.55289793995E+03  0.58260441281E+03  0.17168687221E+03 0.  0.
         24    2    3    3    0    0 -0.66847364232E+02  0.45454393504E+02 -0.21284701698E+03  0.24137170556E+03  0.80135982002E+02 0.  0.
         -6    2    1    2    0  502  0.39602102805E+02 -0.51836870933E+02 -0.25054910437E+03  0.31048364697E+03  0.17137635076E+03 0.  0.
        -24    2    5    5    0    0 -0.31169281842E+01  0.13757565472E+02 -0.20320663213E+03  0.21888154343E+03  0.80107483179E+02 0.  0.
          5    1    3    3  501    0  0.27245261427E+02  0.63824774292E+01 -0.34005092296E+03  0.34123270725E+03  0.47000000000E+01 0. -1.
        -13    1    4    4    0    0 -0.35245503030E+02  0.66566068424E+02 -0.15183621417E+03  0.16949195521E+03  0.00000000000E+00 0.  1.
         14    1    4    4    0    0 -0.31601861202E+02 -0.21111674920E+02 -0.61010802817E+02  0.71879750346E+02  0.00000000000E+00 0. -1.
         -5    1    5    5    0  502  0.42719030989E+02 -0.65594436406E+02 -0.47342472235E+02  0.91602103542E+02  0.47000000000E+01 0.  1.
         13    1    6    6    0    0 -0.17792504279E+02  0.16965099485E+02 -0.12491689200E+02  0.27575897232E+02  0.00000000000E+00 0. -1.
        -14    1    6    6    0    0  0.14675576095E+02 -0.32075340129E+01 -0.19071494293E+03  0.19130564620E+03  0.00000000000E+00 0.  1.
</event>
<event>
12    1  0.8313893E-002  0.4296857E+03  0.7818608E-02  0.1033976E+00
         21   -1    0    0  501  502  0.00000000000E+00  0.00000000000E+00  0.63525827228E+03  0.63525827228E+03  0.00000000000E+00 0. -1.
         21   -1    0    0  502  503 -0.00000000000E+00 -0.00000000000E+00 -0.58837362306E+03  0.58837362306E+03  0.00000000000E+00 0.  1.
         -6    2    1    2    0  503  0.74561533287E+01  0.39362227541E+03 -0.41188093159E+03  0.59521062138E+03  0.17215020208E+03 0.  0.
        -24    2    3    3    0    0 -0.42806128411E+02  0.13947194664E+03 -0.20185294878E+03  0.26166522696E+03  0.80245183893E+02 0.  0.
          6    2    1    2  501    0 -0.74561533287E+01 -0.39362227541E+03  0.45876558081E+03  0.62842127396E+03  0.17161978181E+03 0.  0.
         24    2    5    5    0    0 -0.58659414735E+02 -0.27594749362E+03  0.26007505875E+03  0.39184329146E+03  0.79461831748E+02 0.  0.
          5    1    5    5  501    0  0.51203261406E+02 -0.11767478178E+03  0.19869052206E+03  0.23657798250E+03  0.47000000000E+01 0. -1.
        -13    1    6    6    0    0 -0.31041043396E+01 -0.13885654819E+03  0.85798328093E+02  0.16325479944E+03  0.00000000000E+00 0.  1.
         14    1    6    6    0    0 -0.55555310396E+02 -0.13709094544E+03  0.17427673066E+03  0.22858849201E+03  0.00000000000E+00 0. -1.
         -5    1    3    3    0  503  0.50262281739E+02  0.25415032876E+03 -0.21002798281E+03  0.33354539442E+03  0.47000000000E+01 0.  1.
         11    1    4    4    0    0  0.13288186885E+02 -0.84099061642E+00 -0.30020058672E+02  0.32840327322E+02  0.00000000000E+00 0. -1.
        -12    1    4    4    0    0 -0.56094315296E+02  0.14031293726E+03 -0.17183289011E+03  0.22882489963E+03  0.00000000000E+00 0.  1.
</event>
<event>
12    1  0.8313893E-002  0.2122569E+03  0.7818608E-02  0.1140384E+00
         21   -1    0    0  501  502  0.00000000000E+00  0.00000000000E+00  0.13621096866E+04  0.13621096866E+04  0.00000000000E+00 0. -1.
         21   -1    0    0  502  503 -0.00000000000E+00 -0.00000000000E+00 -0.61650086265E+02  0.61650086265E+02  0.00000000000E+00 0. -1.
         -6    2    1    2    0  503 -0.21576515806E+01  0.11094308974E+03  0.16409355923E+03  0.26829034355E+03  0.18094194549E+03 0.  0.
        -24    2    3    3    0    0  0.71123744929E+02  0.76486437907E+02  0.10729488449E+03  0.16926709687E+03  0.78932854815E+02 0.  0.
          6    2    1    2  501    0  0.21576515806E+01 -0.11094308974E+03  0.11363660411E+04  0.11554694293E+04  0.17739447032E+03 0.  0.
         24    2    5    5    0    0 -0.38416942978E+01 -0.34339057502E+02  0.23740212044E+03  0.25321536833E+03  0.81020531270E+02 0.  0.
          5    1    5    5  501    0  0.59993458785E+01 -0.76604032234E+02  0.89896392065E+03  0.90225406096E+03  0.47000000000E+01 0. -1.
        -13    1    6    6    0    0  0.37511560024E+02 -0.67111038617E+01  0.11234501093E+03  0.11863202574E+03  0.00000000000E+00 0.  1.
         14    1    6    6    0    0 -0.41353254322E+02 -0.27627953640E+02  0.12505710951E+03  0.13458334259E+03  0.00000000000E+00 0. -1.
         -5    1    3    3    0  503 -0.73281396509E+02  0.34456651829E+02  0.56798674745E+02  0.99023246677E+02  0.47000000000E+01 0.  1.
         13    1    4    4    0    0  0.48573405157E+02  0.63624730488E+02  0.11682077461E+03  0.14161417796E+03  0.00000000000E+00 0. -1.
        -14    1    4    4    0    0  0.22550339772E+02  0.12861707419E+02 -0.95258901251E+01  0.27652918910E+02  0.00000000000E+00 0.  1.
</event>
<event>
12    1  0.8313893E-002  0.1914419E+03  0.7818608E-02  0.1157346E+00
         21   -1    0    0  503  502  0.00000000000E+00  0.00000000000E+00  0.59644496574E+02  0.59644496574E+02  0.00000000000E+00 0. -1.
         21   -1    0    0  501  503 -0.00000000000E+00 -0.00000000000E+00 -0.62758046567E+03  0.62758046567E+03  0.00000000000E+00 0. -1.
          6    2    1    2  501    0 -0.68739921590E+02  0.43352893764E+02 -0.33767275912E+03  0.38777353157E+03  0.17245512261E+03 0.  0.
         24    2    3    3    0    0 -0.94730573558E+02 -0.13219704282E+02 -0.18411306572E+03  0.22200670052E+03  0.78998176927E+02 0.  0.
         -6    2    1    2    0  502  0.68739921590E+02 -0.43352893764E+02 -0.23026320997E+03  0.29945143068E+03  0.17333598371E+03 0.  0.
        -24    2    5    5    0    0  0.63477460322E+02 -0.47126850503E+02 -0.55994553026E+02  0.12499917061E+03  0.78987813470E+02 0.  0.
          5    1    3    3  501    0  0.25990651968E+02  0.56572598046E+02 -0.15355969341E+03  0.16576683106E+03  0.47000000000E+01 0. -1.
        -11    1    4    4    0    0 -0.55538264074E+02 -0.27297680719E+02 -0.44254132791E+02  0.76079500643E+02  0.00000000000E+00 0.  1.
         12    1    4    4    0    0 -0.39192309484E+02  0.14077976437E+02 -0.13985893293E+03  0.14592719987E+03  0.00000000000E+00 0. -1.
         -5    1    5    5    0  502  0.52624612680E+01  0.37739567386E+01 -0.17426865695E+03  0.17445226007E+03  0.47000000000E+01 0.  1.
         13    1    6    6    0    0  0.77445850226E+02 -0.18151602647E+02 -0.41467199186E+02  0.89704342171E+02  0.00000000000E+00 0. -1.
        -14    1    6    6    0    0 -0.13968389904E+02 -0.28975247856E+02 -0.14527353839E+02  0.35294828437E+02  0.00000000000E+00 0.  1.
</event>
<event>
12    1  0.8313893E-002  0.3021011E+03  0.7818608E-02  0.1084399E+00
         21   -1    0    0  503  502  0.00000000000E+00  0.00000000000E+00  0.25731022726E+03  0.25731022726E+03  0.00000000000E+00 0. -1.
         21   -1    0    0  501  503 -0.00000000000E+00 -0.00000000000E+00 -0.36776670329E+03  0.36776670329E+03  0.00000000000E+00 0.  1.
          6    2    1    2  501    0 -0.24151461037E+03  0.52132170114E+02 -0.11820533930E+03  0.32287646126E+03  0.17096677108E+03 0.  0.
         24    2    3    3    0    0 -0.11213509162E+03  0.45516535220E+00 -0.12067310645E+03  0.18345712053E+03  0.80746705859E+02 0.  0.
         -6    2    1    2    0  502  0.24151461037E+03 -0.52132170114E+02  0.77488632646E+01  0.30220046928E+03  0.17383327808E+03 0.  0.
        -24    2    5    5    0    0  0.23479579714E+03 -0.35436437415E+02  0.51310544384E+02  0.25483381431E+03  0.76959037792E+02 0.  0.
          5    1    3    3  501    0 -0.12937951876E+03  0.51677004762E+02  0.24677671464E+01  0.13941934073E+03  0.47000000000E+01 0. -1.
        -11    1    4    4    0    0 -0.48823906595E+01 -0.25951838312E+02 -0.13947943998E+02  0.29864373292E+02  0.00000000000E+00 0.  1.
         12    1    4    4    0    0 -0.10725270096E+03  0.26407003664E+02 -0.10672516245E+03  0.15359274724E+03  0.00000000000E+00 0. -1.
         -5    1    5    5    0  502  0.67188132316E+01 -0.16695732699E+02 -0.43561681120E+02  0.47366654976E+02  0.47000000000E+01 0.  1.
         13    1    6    6    0    0  0.10562471143E+03 -0.43195303950E+02  0.52054897573E+02  0.12542777328E+03  0.00000000000E+00 0. -1.
        -14    1    6    6    0    0  0.12917108571E+03  0.77588665348E+01 -0.74435318868E+00  0.12940604103E+03  0.00000000000E+00 0.  1.
</event>
<event>
12    1  0.8313893E-002  0.2342342E+03  0.7818608E-02  0.1123935E+00
         21   -1    0    0  501  502  0.00000000000E+00  0.00000000000E+00  0.21989917145E+03  0.21989917145E+03  0.00000000000E+00 0. -1.
         21   -1    0    0  502  503 -0.00000000000E+00 -0.00000000000E+00 -0.25487332221E+03  0.25487332221E+03  0.00000000000E+00 0. -1.
         -6    2    1    2    0  503  0.12190265148E+03 -0.98828616810E+02  0.21490938663E+02  0.23382855341E+03  0.17200749986E+03 0.  0.
        -24    2    3    3    0    0  0.13903602150E+03 -0.48822577609E+02  0.46341372361E+02  0.17523000070E+03  0.82724669802E+02 0.  0.
          6    2    1    2  501    0 -0.12190265148E+03  0.98828616810E+02 -0.56465089421E+02  0.24094394024E+03  0.17389170215E+03 0.  0.
         24    2    5    5    0    0 -0.11886375492E+03  0.12994325602E+03 -0.71122707897E+02  0.20609725540E+03  0.80023728274E+02 0.  0.
          5    1    5    5  501    0 -0.30388965683E+01 -0.31114639206E+02  0.14657618476E+02  0.34846684845E+02  0.47000000000E+01 0. -1.
        -13    1    6    6    0    0 -0.41359853137E+02  0.65014703271E+01  0.41132166961E+01  0.42069289506E+02  0.00000000000E+00 0.  1.
         14    1    6    6    0    0 -0.77503901779E+02  0.12344178569E+03 -0.75235924593E+02  0.16402796589E+03  0.00000000000E+00 0. -1.
         -5    1    3    3    0  503 -0.17133370019E+02 -0.50006039201E+02 -0.24850433698E+02  0.58598552711E+02  0.47000000000E+01 0.  1.
         13    1    4    4    0    0  0.57349044617E+02 -0.32479535757E+02  0.61975487204E+02  0.90469852303E+02  0.00000000000E+00 0. -1.
        -14    1    4    4    0    0  0.81686976886E+02 -0.16343041852E+02 -0.15634114843E+02  0.84760148399E+02  0.00000000000E+00 0.  1.
</event>
<event>
12    1  0.8313893E-002  0.1895771E+03  0.7818608E-02  0.1160069E+00
         21   -1    0    0  503  502  0.00000000000E+00  0.00000000000E+00  0.19328058014E+03  0.19328058014E+03  0.00000000000E+00 0. -1.
         21   -1    0    0  501  503 -0.00000000000E+00 -0.00000000000E+00 -0.29968118391E+03  0.29968118391E+03  0.00000000000E+00 0. -1.
          6    2    1    2  501    0  0.11454673295E+02 -0.70015707125E+02 -0.20892713276E+03  0.28211706269E+03  0.17580125561E+03 0.  0.
         24    2    3    3    0    0  0.32539398168E+02 -0.43718111364E+02 -0.32146462723E+02  0.10209033005E+03  0.80118379480E+02 0.  0.
         -6    2    1    2    0  502 -0.11454673295E+02  0.70015707125E+02  0.10252652899E+03  0.21084470137E+03  0.17003055656E+03 0.  0.
        -24    2    5    5    0    0  0.14991231894E+02  0.10857946101E+03  0.64479848184E+02  0.15037827320E+03  0.80260437580E+02 0.  0.
          5    1    3    3  501    0 -0.21084724873E+02 -0.26297595761E+02 -0.17678067004E+03  0.18002673264E+03  0.47000000000E+01 0. -1.
        -11    1    4    4    0    0  0.59615747387E+01 -0.62365927292E+02 -0.11734431388E+02  0.63739674775E+02  0.00000000000E+00 0.  1.
         12    1    4    4    0    0  0.26577823429E+02  0.18647815928E+02 -0.20412031335E+02  0.38350655279E+02  0.00000000000E+00 0. -1.
         -5    1    5    5    0  502 -0.26445905189E+02 -0.38563753887E+02  0.38046680806E+02  0.60466428169E+02  0.47000000000E+01 0.  1.
         11    1    6    6    0    0  0.44175786863E+02  0.89012561883E+02  0.38036124365E+02  0.10640245803E+03  0.00000000000E+00 0. -1.
        -12    1    6    6    0    0 -0.29184554969E+02  0.19566899129E+02  0.26443723819E+02  0.43975815168E+02  0.00000000000E+00 0.  1.
</event>
<event>
12    1  0.8313893E-002  0.1826595E+03  0.7818608E-02  0.1165386E+00
         21   -1    0    0  501  502  0.00000000000E+00  0.00000000000E+00  0.37175896280E+02  0.37175896280E+02  0.00000000000E+00 0. -1.
         21   -1    0    0  502  503 -0.00000000000E+00 -0.00000000000E+00 -0.11397751050E+04  0.11397751050E+04  0.00000000000E+00 0. -1.
         -6    2    1    2    0  503  0.54614961205E+02  0.25416070592E+02 -0.82482048430E+03  0.84480371953E+03  0.17244048996E+03 0.  0.
        -24    2    3    3    0    0 -0.59478418937E+01 -0.10000679493E+02 -0.66942953627E+03  0.67424394691E+03  0.79583952536E+02 0.  0.
          6    2    1    2  501    0 -0.54614961205E+02 -0.25416070592E+02 -0.27777872437E+03  0.33214728170E+03  0.17184884753E+03 0.  0.
         24    2    5    5    0    0 -0.36196961454E+02 -0.42759863146E+02 -0.28792076409E+03  0.30448899498E+03  0.81710193708E+02 0.  0.
          5    1    5    5  501    0 -0.18417999751E+02  0.17343792554E+02  0.10142039715E+02  0.27658286725E+02  0.47000000000E+01 0. -1.
        -11    1    6    6    0    0  0.16745663241E+02  0.13185303372E+02 -0.78896780254E+02  0.81724974132E+02  0.00000000000E+00 0.  1.
         12    1    6    6    0    0 -0.52942624695E+02 -0.55945166518E+02 -0.20902398383E+03  0.22276402085E+03  0.00000000000E+00 0. -1.
         -5    1    3    3    0  503  0.60562803099E+02  0.35416750085E+02 -0.15539094803E+03  0.17055977262E+03  0.47000000000E+01 0.  1.
         13    1    4    4    0    0  0.31324415790E+02  0.57980836956E+01 -0.15591445177E+03  0.15913564361E+03  0.00000000000E+00 0. -1.
        -14    1    4    4    0    0 -0.37272257684E+02 -0.15798763189E+02 -0.51351508451E+03  0.51510830330E+03  0.00000000000E+00 0.  1.
</event>
<event>
12    1  0.8313893E-002  0.2065558E+03  0.7818608E-02  0.1144750E+00
         21   -1    0    0  501  502  0.00000000000E+00  0.00000000000E+00  0.19184932983E+04  0.19184932983E+04  0.00000000000E+00 0. -1.
         21   -1    0    0  502  503 -0.00000000000E+00 -0.00000000000E+00 -0.32707019335E+02  0.32707019335E+02  0.00000000000E+00 0. -1.
         -6    2    1    2    0  503 -0.81841326274E+02 -0.70283946214E+02  0.38180264445E+03  0.43309884699E+03  0.17367646982E+03 0.  0.
        -24    2    3    3    0    0 -0.76464026096E+01 -0.95616532892E+02  0.21057811475E+03  0.24472008964E+03  0.79647919178E+02 0.  0.
          6    2    1    2  501    0  0.81841326274E+02  0.70283946214E+02  0.15039836345E+04  0.15181014706E+04  0.17614615103E+03 0.  0.
         24    2    5    5    0    0 -0.14311750635E+02  0.28895859457E+02  0.98694246043E+03  0.99054857887E+03  0.78046588697E+02 0.  0.
          5    1    5    5  501    0  0.96153076908E+02  0.41388086756E+02  0.51704117405E+03  0.52755289174E+03  0.47000000000E+01 0. -1.
        -11    1    6    6    0    0 -0.26561293240E+02 -0.18211412471E+02  0.26160966128E+03  0.26358446980E+03  0.00000000000E+00 0.  1.
         12    1    6    6    0    0  0.12249542606E+02  0.47107271928E+02  0.72533279914E+03  0.72696410907E+03  0.00000000000E+00 0. -1.
         -5    1    3    3    0  503 -0.74194923664E+02  0.25332586678E+02  0.17122452971E+03  0.18837875735E+03  0.47000000000E+01 0.  1.
         13    1    4    4    0    0 -0.12475522884E+02  0.58456840517E+01  0.37240857630E+01  0.14271632984E+02  0.00000000000E+00 0. -1.
        -14    1    4    4    0    0  0.48291202743E+01 -0.10146221694E+03  0.20685402898E+03  0.23044845666E+03  0.00000000000E+00 0.  1.
</event>
<event>
12    1  0.8313893E-002  0.1910666E+03  0.7818608E-02  0.1157818E+00
         21   -1    0    0  501  502  0.00000000000E+00  0.00000000000E+00  0.80743730078E+02  0.80743730078E+02  0.00000000000E+00 0.  1.
         21   -1    0    0  502  503 -0.00000000000E+00 -0.00000000000E+00 -0.10817082618E+04  0.10817082618E+04  0.00000000000E+00 0.  1.
         -6    2    1    2    0  503  0.80707342129E+02  0.11999919890E+02 -0.94430166137E+03  0.96316045055E+03  0.17121551533E+03 0.  0.
        -24    2    3    3    0    0  0.68505364144E+01 -0.45353529851E+02 -0.57236483391E+03  0.57961991871E+03  0.79081442485E+02 0.  0.
          6    2    1    2  501    0 -0.80707342129E+02 -0.11999919890E+02 -0.56662870361E+02  0.19929154133E+03  0.17276794963E+03 0.  0.
         24    2    5    5    0    0 -0.62449568306E+02  0.15713237508E+02  0.27794672525E+02  0.10842608063E+03  0.82685045360E+02 0.  0.
          5    1    5    5  501    0 -0.18257773823E+02 -0.27713157398E+02 -0.84457542887E+02  0.90865460701E+02  0.47000000000E+01 0. -1.
        -11    1    6    6    0    0 -0.23006389157E+02  0.45783914040E+02  0.28876249764E+02  0.58815801681E+02  0.00000000000E+00 0.  1.
         12    1    6    6    0    0 -0.39443179148E+02 -0.30070676532E+02 -0.10815772390E+01  0.49610278952E+02  0.00000000000E+00 0. -1.
         -5    1    3    3    0  503  0.73856805714E+02  0.57353449740E+02 -0.37193682746E+03  0.38354053184E+03  0.47000000000E+01 0.  1.
         11    1    4    4    0    0  0.42874139629E+01 -0.67013426307E+02 -0.36631625080E+03  0.37242016168E+03  0.00000000000E+00 0. -1.
        -12    1    4    4    0    0  0.25631224514E+01  0.21659896456E+02 -0.20604858311E+03  0.20719975703E+03  0.00000000000E+00 0.  1.
</event>
<event>
12    1  0.8313893E-002  0.2753515E+03  0.7818608E-02  0.1098860E+00
         21   -1    0    0  503  502  0.00000000000E+00  0.00000000000E+00  0.44228230708E+03  0.44228230708E+03  0.00000000000E+00 0. -1.
         21   -1    0    0  501  503 -0.00000000000E+00 -0.00000000000E+00 -0.17784963843E+03  0.17784963843E+03  0.00000000000E+00 0.  1.
          6    2    1    2  501    0 -0.18038369889E+03  0.11709822750E+03  0.20329233071E+03  0.34226633553E+03  0.17195406073E+03 0.  0.
         24    2    3    3    0    0 -0.13079574685E+03  0.10837804310E+03  0.22008617369E+03  0.28898285060E+03  0.78865939882E+02 0.  0.
         -6    2    1    2    0  502  0.18038369889E+03 -0.11709822750E+03  0.61140337935E+02  0.27786560998E+03  0.16498752248E+03 0.  0.
        -24    2    5    5    0    0  0.87470023212E+02 -0.75880236105E+01  0.62294240781E+02  0.13416850709E+03  0.80075169674E+02 0.  0.
          5    1    3    3  501    0 -0.49587952049E+02  0.87201844003E+01 -0.16793842976E+02  0.53283484930E+02  0.47000000000E+01 0. -1.
        -11    1    4    4    0    0 -0.18974812188E+02  0.85329445276E+01 -0.21459540089E+01  0.20915538685E+02  0.00000000000E+00 0.  1.
         12    1    4    4    0    0 -0.11182093466E+03  0.99845098575E+02  0.22223212770E+03  0.26806731192E+03  0.00000000000E+00 0. -1.
         -5    1    5    5    0  502  0.92913675682E+02 -0.10951020389E+03 -0.11539028459E+01  0.14369710288E+03  0.47000000000E+01 0.  1.
         13    1    6    6    0    0  0.95368768741E+02 -0.96261923122E+01  0.29374789206E+02  0.10025339830E+03  0.00000000000E+00 0. -1.
        -14    1    6    6    0    0 -0.78987455287E+01  0.20381687016E+01  0.32919451575E+02  0.33915108795E+02  0.00000000000E+00 0.  1.
</event>
<event>
12    1  0.8313893E-002  0.1710442E+03  0.7818608E-02  0.1176790E+00
         21   -1    0    0  503  502  0.00000000000E+00  0.00000000000E+00  0.17704293222E+03  0.17704293222E+03  0.00000000000E+00 0. -1.
         21   -1    0    0  501  503 -0.00000000000E+00 -0.00000000000E+00 -0.25847581114E+03  0.25847581114E+03  0.00000000000E+00 0. -1.
          6    2    1    2  501    0  0.31040456251E+01  0.83535367764E+01 -0.17157367321E+03  0.24226767626E+03  0.17081184076E+03 0.  0.
         24    2    3    3    0    0  0.35703339269E+02  0.62383364153E+02 -0.10207115750E+03  0.14827498568E+03  0.80003360096E+02 0.  0.
         -6    2    1    2    0  502 -0.31040456251E+01 -0.83535367764E+01  0.90140794288E+02  0.19325106710E+03  0.17070792443E+03 0.  0.
        -24    2    5    5    0    0 -0.51307864416E+02 -0.87374690171E+01  0.10536357596E+03  0.14248120762E+03  0.80564080510E+02 0.  0.
          5    1    3    3  501    0 -0.32599293644E+02 -0.54029827377E+02 -0.69502515714E+02  0.93992690583E+02  0.47000000000E+01 0. -1.
        -13    1    4    4    0    0 -0.20162392165E+02 -0.42346204809E+01 -0.20138000640E+02  0.28809601493E+02  0.00000000000E+00 0.  1.
         14    1    4    4    0    0  0.55865731435E+02  0.66617984634E+02 -0.81933156859E+02  0.11946538418E+03  0.00000000000E+00 0. -1.
         -5    1    5    5    0  502  0.48203818791E+02  0.38393224068E+00 -0.15222781676E+02  0.50769859483E+02  0.47000000000E+01 0.  1.
         13    1    6    6    0    0 -0.59159468257E+02 -0.94121018191E+01  0.30531685934E+02  0.67235512871E+02  0.00000000000E+00 0. -1.
        -14    1    6    6    0    0  0.78516038414E+01  0.67463280208E+00  0.74831890030E+02  0.75245694746E+02  0.00000000000E+00 0.  1.
</event>
<event>
12    1  0.8313893E-002  0.1914196E+03  0.7818608E-02  0.1157722E+00
         21   -1    0    0  501  502  0.00000000000E+00  0.00000000000E+00  0.15110032878E+02  0.15110032878E+02  0.00000000000E+00 0.  1.
         21   -1    0    0  502  503 -0.00000000000E+00 -0.00000000000E+00 -0.27654518084E+04  0.27654518084E+04  0.00000000000E+00 0.  1.
         -6    2    1    2    0  503  0.85884563773E+02 -0.37418918311E+01 -0.18915209029E+04  0.19011819428E+04  0.17103009480E+03 0.  0.
        -24    2    3    3    0    0  0.76722155315E+02  0.52815195796E+01 -0.18797640313E+04  0.18831351782E+04  0.82286708516E+02 0.  0.
          6    2    1    2  501    0 -0.85884563773E+02  0.37418918311E+01 -0.85882087254E+03  0.87937989843E+03  0.16836138099E+03 0.  0.
         24    2    5    5    0    0 -0.48572631558E+01  0.38429412409E+02 -0.56678621367E+03  0.57429797581E+03  0.84090072377E+02 0.  0.
          5    1    5    5  501    0 -0.81027300617E+02 -0.34687520577E+02 -0.29203465887E+03  0.30508192262E+03  0.47000000000E+01 0. -1.
        -13    1    6    6    0    0 -0.27295385517E+02  0.56809747855E+02 -0.41599372380E+03  0.42074120759E+03  0.00000000000E+00 0.  1.
         14    1    6    6    0    0  0.22438122362E+02 -0.18380335446E+02 -0.15079248987E+03  0.15355676822E+03  0.00000000000E+00 0. -1.
         -5    1    3    3    0  503  0.91624084579E+01 -0.90234114107E+01 -0.11756871641E+02  0.18046764614E+02  0.47000000000E+01 0.  1.
         13    1    4    4    0    0  0.15028763194E+02 -0.22232087969E+01 -0.48653252157E+02  0.50970043417E+02  0.00000000000E+00 0. -1.
        -14    1    4    4    0    0  0.61693392121E+02  0.75047283765E+01 -0.18311107791E+04  0.18321651348E+04  0.00000000000E+00 0.  1.
</event>
<event>
12    1  0.8313893E-002  0.2512166E+03  0.7818608E-02  0.1112672E+00
         21   -1    0    0  503  502  0.00000000000E+00  0.00000000000E+00  0.24357632526E+04  0.24357632526E+04  0.00000000000E+00 0. -1.
         21   -1    0    0  501  503 -0.00000000000E+00 -0.00000000000E+00 -0.29863062468E+02  0.29863062468E+02  0.00000000000E+00 0. -1.
          6    2    1    2  501    0  0.15665934563E+03  0.94298632804E+02  0.75120658735E+03  0.79209917817E+03  0.17226545925E+03 0.  0.
         24    2    3    3    0    0  0.14642528202E+03  0.78796629326E+02  0.75047265394E+03  0.77292427718E+03  0.80953455352E+02 0.  0.
         -6    2    1    2    0  502 -0.15665934563E+03 -0.94298632804E+02  0.16546936028E+04  0.16735271369E+04  0.17101981214E+03 0.  0.
        -24    2    5    5    0    0 -0.14250661260E+03 -0.12738642781E+03  0.15194714450E+04  0.15335191943E+04  0.79700756332E+02 0.  0.
          5    1    3    3  501    0  0.10234063609E+02  0.15502003478E+02  0.73393341528E+00  0.19174900992E+02  0.47000000000E+01 0. -1.
        -11    1    4    4    0    0  0.25841636540E+01  0.85892841892E+01  0.18548295620E+03  0.18569970583E+03  0.00000000000E+00 0.  1.
         12    1    4    4    0    0  0.14384111836E+03  0.70207345137E+02  0.56498969774E+03  0.58722457135E+03  0.00000000000E+00 0. -1.
         -5    1    5    5    0  502 -0.14152733027E+02  0.33087795009E+02  0.13522215781E+03  0.14000794261E+03  0.47000000000E+01 0.  1.
         13    1    6    6    0    0 -0.99058272695E+02 -0.12296559276E+03  0.10209647712E+04  0.10331031615E+04  0.00000000000E+00 0. -1.
        -14    1    6    6    0    0 -0.43448339906E+02 -0.44208350500E+01  0.49850667382E+03  0.50041603278E+03  0.00000000000E+00 0.  1.
</event>
<event>
12    1  0.8313893E-002  0.2823216E+03  0.7818608E-02  0.1094726E+00
         21   -1    0    0  503  502  0.00000000000E+00  0.00000000000E+00  0.38343379814E+03  0.38343379814E+03  0.00000000000E+00 0. -1.
         21   -1    0    0  501  503 -0.00000000000E+00 -0.00000000000E+00 -0.26494101420E+03  0.26494101420E+03  0.00000000000E+00 0.  1.
          6    2    1    2  501    0 -0.11159917509E+03 -0.19231044085E+03 -0.93144174409E+02  0.29728996431E+03  0.17397644701E+03 0.  0.
         24    2    3    3    0    0  0.22198062829E+02 -0.63808717120E+02 -0.31601582146E+02  0.10178043887E+03  0.69255262394E+02 0.  0.
         -6    2    1    2    0  502  0.11159917509E+03  0.19231044085E+03  0.21163695835E+03  0.35108484803E+03  0.17038980848E+03 0.  0.
        -24    2    5    5    0    0  0.26675190636E+02  0.88552336369E+02  0.17264338648E+03  0.21136936561E+03  0.79487028814E+02 0.  0.
          5    1    3    3  501    0 -0.13379723792E+03 -0.12850172373E+03 -0.61542592262E+02  0.19550952544E+03  0.47000000000E+01 0. -1.
        -13    1    4    4    0    0  0.38677830282E+02 -0.12617186753E+02 -0.28128560105E+01  0.40780879292E+02  0.00000000000E+00 0.  1.
         14    1    4    4    0    0 -0.16479767453E+02 -0.51191530367E+02 -0.28788726136E+02  0.60999559581E+02  0.00000000000E+00 0. -1.
         -5    1    5    5    0  502  0.84923984452E+02  0.10375810448E+03  0.38993571869E+02  0.13971548242E+03  0.47000000000E+01 0.  1.
         13    1    6    6    0    0  0.54534626824E+02  0.68812356614E+02  0.12483669850E+03  0.15262164734E+03  0.00000000000E+00 0. -1.
        -14    1    6    6    0    0 -0.27859436188E+02  0.19739979756E+02  0.47806687985E+02  0.58747718266E+02  0.00000000000E+00 0.  1.
</event>
<event>
12    1  0.8313893E-002  0.1743224E+03  0.7818608E-02  0.1174992E+00
         21   -1    0    0  501  502  0.00000000000E+00  0.00000000000E+00  0.19574294091E+03  0.19574294091E+03  0.00000000000E+00 0.  1.
         21   -1    0    0  502  503 -0.00000000000E+00 -0.00000000000E+00 -0.22709057083E+03  0.22709057083E+03  0.00000000000E+00 0.  1.
         -6    2    1    2    0  503 -0.21845370869E+01 -0.38944928784E+02 -0.13879087933E+03  0.21805964975E+03  0.16360202623E+03 0.  0.
        -24    2    3    3    0    0 -0.59249268307E+02 -0.11303553578E+02 -0.10333462525E+03  0.14526085082E+03  0.82367614315E+02 0.  0.
          6    2    1    2  501    0  0.21845370869E+01  0.38944928784E+02  0.10744324941E+03  0.20477386199E+03  0.16990233380E+03 0.  0.
         24    2    5    5    0    0  0.65364588907E+00  0.12681633010E+02 -0.14032959824E+02  0.80392739054E+02  0.78133331316E+02 0.  0.
          5    1    5    5  501    0  0.15308911978E+01  0.26263295774E+02  0.12147620923E+03  0.12438112294E+03  0.47000000000E+01 0. -1.
        -11    1    6    6    0    0 -0.80121135735E+01  0.18390143044E+02  0.29481092712E+02  0.35658465371E+02  0.00000000000E+00 0.  1.
         12    1    6    6    0    0  0.86657594625E+01 -0.57085100341E+01 -0.43514052536E+02  0.44734273684E+02  0.00000000000E+00 0. -1.
         -5    1    3    3    0  503  0.57064731220E+02 -0.27641375206E+02 -0.35456254085E+02  0.72798798934E+02  0.47000000000E+01 0.  1.
         13    1    4    4    0    0 -0.53224005336E+01 -0.17745037289E+01 -0.88292022176E+02  0.88470096591E+02  0.00000000000E+00 0. -1.
        -14    1    4    4    0    0 -0.53926867773E+02 -0.95290498496E+01 -0.15042603071E+02  0.56790754230E+02  0.00000000000E+00 0.  1.
</event>
<event>
12    1  0.8313893E-002  0.1741800E+03  0.7818608E-02  0.1173895E+00
         21   -1    0    0  501  502  0.00000000000E+00  0.00000000000E+00  0.59569206931E+02  0.59569206931E+02  0.00000000000E+00 0. -1.
         21   -1    0    0  502  503 -0.00000000000E+00 -0.00000000000E+00 -0.65137089940E+03  0.65137089940E+03  0.00000000000E+00 0. -1.
         -6    2    1    2    0  503  0.13385123656E+02 -0.23715347222E+02 -0.12851486468E+03  0.21645960421E+03  0.17203810793E+03 0.  0.
        -24    2    3    3    0    0 -0.39308891184E+02  0.12900898786E+02 -0.12296480642E+03  0.15188173015E+03  0.78968944656E+02 0.  0.
          6    2    1    2  501    0 -0.13385123656E+02  0.23715347222E+02 -0.46328682779E+03  0.49448050212E+03  0.17068890693E+03 0.  0.
         24    2    5    5    0    0 -0.67788896116E+02 -0.31215641290E+01 -0.35536446193E+03  0.37058814028E+03  0.80290661470E+02 0.  0.
          5    1    5    5  501    0  0.54403772460E+02  0.26836911351E+02 -0.10792236586E+03  0.12389236184E+03  0.47000000000E+01 0. -1.
        -11    1    6    6    0    0 -0.31509734342E+01 -0.29985602714E+01  0.37254351198E+01  0.57270292574E+01  0.00000000000E+00 0.  1.
         12    1    6    6    0    0 -0.64637922682E+02 -0.12300385765E+00 -0.35908989704E+03  0.36486111102E+03  0.00000000000E+00 0. -1.
         -5    1    3    3    0  503  0.52694014840E+02 -0.36616246008E+02 -0.55500582649E+01  0.64577874062E+02  0.47000000000E+01 0.  1.
         11    1    4    4    0    0 -0.35373832688E+02  0.25374569712E+02 -0.19685625262E+02  0.47777616821E+02  0.00000000000E+00 0. -1.
        -12    1    4    4    0    0 -0.39350584959E+01 -0.12473670925E+02 -0.10327918115E+03  0.10410411333E+03  0.00000000000E+00 0.  1.
</event>
<event>
12    1  0.8313893E-002  0.1890081E+03  0.7818608E-02  0.1161042E+00
         21   -1    0    0  503  502  0.00000000000E+00  0.00000000000E+00  0.18822801617E+03  0.18822801617E+03  0.00000000000E+00 0. -1.
         21   -1    0    0  501  503 -0.00000000000E+00 -0.00000000000E+00 -0.27436747809E+03  0.27436747809E+03  0.00000000000E+00 0. -1.
          6    2    1    2  501    0  0.14508978267E+02 -0.53751748744E+02 -0.17739999642E+03  0.25921966333E+03  0.18062202021E+03 0.  0.
         24    2    3    3    0    0 -0.14155627440E+02 -0.38815323680E+02 -0.13508383755E+02  0.92105010724E+02  0.81202496441E+02 0.  0.
         -6    2    1    2    0  502 -0.14508978267E+02  0.53751748744E+02  0.91260534509E+02  0.20337583093E+03  0.17301295472E+03 0.  0.
        -24    2    5    5    0    0 -0.10042647889E+02  0.87353643727E+02  0.84830962470E+01  0.11380334777E+03  0.71747649388E+02 0.  0.
          5    1    3    3  501    0  0.28664605707E+02 -0.14936425064E+02 -0.16389161267E+03  0.16711465261E+03  0.47000000000E+01 0. -1.
        -13    1    4    4    0    0  0.56737992835E+01 -0.50297025315E+02 -0.34317238519E+02  0.61152723680E+02  0.00000000000E+00 0.  1.
         14    1    4    4    0    0 -0.19829426724E+02  0.11481701636E+02  0.20808854764E+02  0.30952287044E+02  0.00000000000E+00 0. -1.
         -5    1    5    5    0  502 -0.44663303775E+01 -0.33601894983E+02  0.82777438262E+02  0.89572483156E+02  0.47000000000E+01 0.  1.
         13    1    6    6    0    0 -0.30023588433E+02  0.91020887364E+01 -0.54651858365E+01  0.31845441400E+02  0.00000000000E+00 0. -1.
        -14    1    6    6    0    0  0.19980940543E+02  0.78251554991E+02  0.13948282083E+02  0.81957906370E+02  0.00000000000E+00 0.  1.
</event>
<event>
12    1  0.8313893E-002  0.4416992E+03  0.7818608E-02  0.1030266E+00
         21   -1    0    0  501  502  0.00000000000E+00  0.00000000000E+00  0.94579117362E+03  0.94579117362E+03  0.00000000000E+00 0.  1.
         21   -1    0    0  502  503 -0.00000000000E+00 -0.00000000000E+00 -0.23495181814E+03  0.23495181814E+03  0.00000000000E+00 0. -1.
         -6    2    1    2    0  503  0.36107979071E+03 -0.18625460776E+03  0.56233363016E+03  0.71474714716E+03  0.17197377299E+03 0.  0.
        -24    2    3    3    0    0  0.85122314314E+02 -0.74806521859E+02  0.13697769384E+03  0.19559113285E+03  0.81554757892E+02 0.  0.
          6    2    1    2  501    0 -0.36107979071E+03  0.18625460776E+03  0.14850572532E+03  0.46599584460E+03  0.17328814893E+03 0.  0.
         24    2    5    5    0    0 -0.87703031925E+02  0.54638932022E+02  0.86749402320E+02  0.15632913380E+03  0.78969010199E+02 0.  0.
          5    1    5    5  501    0 -0.27337675878E+03  0.13161567574E+03  0.61756323002E+02  0.30966671080E+03  0.47000000000E+01 0. -1.
        -11    1    6    6    0    0 -0.31440386395E+02 -0.19037803701E+02  0.31535279098E+02  0.48429430042E+02  0.00000000000E+00 0.  1.
         12    1    6    6    0    0 -0.56262645530E+02  0.73676735723E+02  0.55214123222E+02  0.10789970376E+03  0.00000000000E+00 0. -1.
         -5    1    3    3    0  503  0.27595747639E+03 -0.11144808590E+03  0.42535593632E+03  0.51915601431E+03  0.47000000000E+01 0.  1.
         13    1    4    4    0    0  0.98109778389E+02 -0.47722203633E+02  0.11381476754E+03  0.15766019994E+03  0.00000000000E+00 0. -1.
        -14    1    4    4    0    0 -0.12987464075E+02 -0.27084318225E+02  0.23162926292E+02  0.37930932908E+02  0.00000000000E+00 0.  1.
</event>
<event>
12    1  0.8313893E-002  0.1866236E+03  0.7818608E-02  0.1161556E+00
         21   -1    0    0  501  502  0.00000000000E+00  0.00000000000E+00  0.24146243445E+03  0.24146243445E+03  0.00000000000E+00 0.  1.
         21   -1    0    0  502  503 -0.00000000000E+00 -0.00000000000E+00 -0.22796053915E+03  0.22796053915E+03  0.00000000000E+00 0.  1.
         -6    2    1    2    0  503  0.59912616908E+02 -0.37762008642E+02 -0.13552754491E+03  0.23064273606E+03  0.17266402436E+03 0.  0.
        -24    2    3    3    0    0  0.34359033668E+02  0.55157972093E+02 -0.92629946949E+02  0.12505200566E+03  0.53242388822E+02 0.  0.
          6    2    1    2  501    0 -0.59912616908E+02  0.37762008642E+02  0.14902944021E+03  0.23878023754E+03  0.17259993287E+03 0.  0.
         24    2    5    5    0    0 -0.64803764691E+02  0.44466064897E+02  0.25564367831E+02  0.11494735904E+03  0.79891173500E+02 0.  0.
          5    1    5    5  501    0  0.48911477828E+01 -0.67040562551E+01  0.12346507238E+03  0.12383287849E+03  0.47000000000E+01 0. -1.
        -11    1    6    6    0    0 -0.30865832567E+02  0.53156534380E+02 -0.13019684458E+02  0.62831751135E+02  0.00000000000E+00 0.  1.
         12    1    6    6    0    0 -0.33937932124E+02 -0.86904694827E+01  0.38584052290E+02  0.52115607909E+02  0.00000000000E+00 0. -1.
         -5    1    3    3    0  503  0.25553583240E+02 -0.92919980735E+02 -0.42897597962E+02  0.10559073040E+03  0.47000000000E+01 0.  1.
         11    1    4    4    0    0 -0.37406736463E+01  0.23840248549E+02 -0.52227488787E+01  0.24690629722E+02  0.00000000000E+00 0. -1.
        -12    1    4    4    0    0  0.38099707314E+02  0.31317723544E+02 -0.87407198070E+02  0.10036137594E+03  0.00000000000E+00 0.  1.
</event>
<event>
12    1  0.8313893E-002  0.3660284E+03  0.7818608E-02  0.1056628E+00
         21   -1    0    0  501  502  0.00000000000E+00  0.00000000000E+00  0.22546171809E+04  0.22546171809E+04  0.00000000000E+00 0.  1.
         21   -1    0    0  502  503 -0.00000000000E+00 -0.00000000000E+00 -0.89650467285E+02  0.89650467285E+02  0.00000000000E+00 0. -1.
         -6    2    1    2    0  503 -0.30705835931E+03 -0.10258815474E+03  0.39839105719E+03  0.54101034292E+03  0.17078521946E+03 0.  0.
        -24    2    3    3    0    0 -0.89720794956E+02 -0.32736662343E+02  0.12473830089E+03  0.18460780519E+03  0.96947861868E+02 0.  0.
          6    2    1    2  501    0  0.30705835931E+03  0.10258815474E+03  0.17665756565E+04  0.18032573053E+04  0.16167310720E+03 0.  0.
         24    2    5    5    0    0  0.22560852777E+03  0.10295198413E+03  0.15528038897E+04  0.15744458858E+04  0.78623206511E+02 0.  0.
          5    1    5    5  501    0  0.81449831535E+02 -0.36382939269E+00  0.21377176678E+03  0.22881141952E+03  0.47000000000E+01 0. -1.
        -13    1    6    6    0    0  0.70934302477E+02  0.55861769687E+02  0.38169398155E+03  0.39222762285E+03  0.00000000000E+00 0.  1.
         14    1    6    6    0    0  0.15467422530E+03  0.47090214447E+02  0.11711099081E+04  0.11822182629E+04  0.00000000000E+00 0. -1.
         -5    1    3    3    0  503 -0.21733756435E+03 -0.69851492398E+02  0.27365275630E+03  0.35640253773E+03  0.47000000000E+01 0.  1.
         11    1    4    4    0    0 -0.70104566790E+02 -0.29009639564E+01  0.13076132125E+03  0.14839672844E+03  0.00000000000E+00 0. -1.
        -12    1    4    4    0    0 -0.19616228166E+02 -0.29835698387E+02 -0.60230203568E+01  0.36211076757E+02  0.00000000000E+00 0.  1.
</event>
<event>
12    1  0.8313893E-002  0.2079446E+03  0.7818608E-02  0.1143469E+00
         21   -1    0    0  503  502  0.00000000000E+00  0.00000000000E+00  0.28216403236E+03  0.28216403236E+03  0.00000000000E+00 0. -1.
         21   -1    0    0  501  503 -0.00000000000E+00 -0.00000000000E+00 -0.69565801206E+03  0.69565801206E+03  0.00000000000E+00 0. -1.
          6    2    1    2  501    0 -0.41998609723E+02  0.10645484157E+03 -0.63899006678E+03  0.67197413886E+03  0.17362148872E+03 0.  0.
         24    2    3    3    0    0 -0.87478039801E+02  0.10905652340E+03 -0.46798282702E+03  0.49494105337E+03  0.80081128747E+02 0.  0.
         -6    2    1    2    0  502  0.41998609723E+02 -0.10645484157E+03  0.22549608708E+03  0.30584790555E+03  0.17204051712E+03 0.  0.
        -24    2    5    5    0    0  0.26525925645E+02 -0.10488979523E+03  0.73016948807E+02  0.15250570350E+03  0.78873448704E+02 0.  0.
          5    1    3    3  501    0  0.45479430079E+02 -0.26016818362E+01 -0.17100723976E+03  0.17703308549E+03  0.47000000000E+01 0. -1.
        -11    1    4    4    0    0 -0.45706392318E+02  0.40883066469E+02 -0.92091026838E+02  0.11064021261E+03  0.00000000000E+00 0.  1.
         12    1    4    4    0    0 -0.41771647483E+02  0.68173456935E+02 -0.37589180018E+03  0.38430084076E+03  0.00000000000E+00 0. -1.
         -5    1    5    5    0  502  0.15472684077E+02 -0.15650463352E+01  0.15247913827E+03  0.15334220206E+03  0.47000000000E+01 0.  1.
         11    1    6    6    0    0 -0.18878877739E+02 -0.74718901927E+02  0.56447633847E+02  0.95528329289E+02  0.00000000000E+00 0. -1.
        -12    1    6    6    0    0  0.45404803384E+02 -0.30170893305E+02  0.16569314960E+02  0.56977374207E+02  0.00000000000E+00 0.  1.
</event>
<event>
12    1  0.8313893E-002  0.2560726E+03  0.7818608E-02  0.1109881E+00
         21   -1    0    0  503  502  0.00000000000E+00  0.00000000000E+00  0.10981999822E+04  0.10981999822E+04  0.00000000000E+00 0. -1.
         21   -1    0    0  501  503 -0.00000000000E+00 -0.00000000000E+00 -0.22469123916E+03  0.22469123916E+03  0.00000000000E+00 0. -1.
          6    2    1    2  501    0 -0.16510548156E+03  0.93379098809E+02 -0.13146879265E+03  0.28580249645E+03  0.16858098173E+03 0.  0.
         24    2    3    3    0    0 -0.10130037875E+03  0.11497404397E+03 -0.13230942579E+03  0.21827302536E+03  0.81587572123E+02 0.  0.
         -6    2    1    2    0  502  0.16510548156E+03 -0.93379098809E+02  0.10049775357E+04  0.10370887249E+04  0.17202819523E+03 0.  0.
        -24    2    5    5    0    0  0.14910369048E+03 -0.12780228062E+03  0.92173580810E+03  0.94547929321E+03  0.75953015118E+02 0.  0.
          5    1    3    3  501    0 -0.63805102813E+02 -0.21594945160E+02  0.84063314805E+00  0.67529471089E+02  0.47000000000E+01 0. -1.
        -13    1    4    4    0    0 -0.43980949026E+02  0.81859895891E+02 -0.32379667875E+02  0.98406347987E+02  0.00000000000E+00 0.  1.
         14    1    4    4    0    0 -0.57319429720E+02  0.33114148078E+02 -0.99929757920E+02  0.11986667737E+03  0.00000000000E+00 0. -1.
         -5    1    5    5    0  502  0.16001791079E+02  0.34423181813E+02  0.83241727564E+02  0.91609431674E+02  0.47000000000E+01 0.  1.
         13    1    6    6    0    0  0.58421024862E+02 -0.70124132017E+01  0.29370790567E+03  0.29954385979E+03  0.00000000000E+00 0. -1.
        -14    1    6    6    0    0  0.90682665618E+02 -0.12078986742E+03  0.62802790243E+03  0.64593543342E+03  0.00000000000E+00 0.  1.
</event>
<event>
12    1  0.8313893E-002  0.2255475E+03  0.7818608E-02  0.1130033E+00
         21   -1    0    0  503  502  0.00000000000E+00  0.00000000000E+00  0.33605313255E+03  0.33605313255E+03  0.00000000000E+00 0.  1.
         21   -1    0    0  501  503 -0.00000000000E+00 -0.00000000000E+00 -0.15141751022E+03  0.15141751022E+03  0.00000000000E+00 0.  1.
          6    2    1    2  501    0  0.14032730102E+03 -0.37232898091E+02  0.11033032784E+03  0.24999866386E+03  0.17102195935E+03 0.  0.
         24    2    3    3    0    0  0.14633063776E+03 -0.67008818689E+02  0.12236963753E+03  0.21698835521E+03  0.78783124963E+02 0.  0.
         -6    2    1    2    0  502 -0.14032730102E+03  0.37232898091E+02  0.74305294489E+02  0.23747197890E+03  0.17260829604E+03 0.  0.
        -24    2    5    5    0    0 -0.80628115099E+02 -0.12164471903E+02 -0.22240667923E+02  0.11358773527E+03  0.75885828543E+02 0.  0.
          5    1    3    3  501    0 -0.60033367396E+01  0.29775920598E+02 -0.12039309691E+02  0.33010308652E+02  0.47000000000E+01 0. -1.
        -11    1    4    4    0    0  0.35246212081E+02 -0.16638248730E+02 -0.65402312698E+01  0.39520898420E+02  0.00000000000E+00 0.  1.
         12    1    4    4    0    0  0.11108442568E+03 -0.50370569959E+02  0.12890986880E+03  0.17746745679E+03  0.00000000000E+00 0. -1.
         -5    1    5    5    0  502 -0.59699185923E+02  0.49397369994E+02  0.96545962412E+02  0.12388424363E+03  0.47000000000E+01 0.  1.
         11    1    6    6    0    0 -0.39422141747E+01 -0.10352030875E+02  0.22290651581E+02  0.24891338729E+02  0.00000000000E+00 0. -1.
        -12    1    6    6    0    0 -0.76685900925E+02 -0.18124410277E+01 -0.44531319503E+02  0.88696396544E+02  0.00000000000E+00 0.  1.
</event>
<event>
12    1  0.8313893E-002  0.2063271E+03  0.7818608E-02  0.1144707E+00
         21   -1    0    0  503  502  0.00000000000E+00  0.00000000000E+00  0.17156507367E+04  0.17156507367E+04  0.00000000000E+00 0.  1.
         21   -1    0    0  501  503 -0.00000000000E+00 -0.00000000000E+00 -0.44884972207E+02  0.44884972207E+02  0.00000000000E+00 0. -1.
          6    2    1    2  501    0  0.85455141891E+02  0.74221358240E+02  0.24391352362E+03  0.31884289125E+03  0.17133473379E+03 0.  0.
         24    2    3    3    0    0  0.22874426767E+02  0.90869396679E+01  0.20287362143E+03  0.21951916821E+03  0.80157015068E+02 0.  0.
         -6    2    1    2    0  502 -0.85455141891E+02 -0.74221358240E+02  0.14268522409E+04  0.14416928177E+04  0.17250933857E+03 0.  0.
        -24    2    5    5    0    0 -0.11183794398E+03 -0.71041823072E+02  0.13708476012E+04  0.13795255324E+04  0.79453650117E+02 0.  0.
          5    1    3    3  501    0  0.62580715124E+02  0.65134418572E+02  0.41039902185E+02  0.99323723045E+02  0.47000000000E+01 0. -1.
        -13    1    4    4    0    0  0.73443724203E+01 -0.10602186202E+02 -0.20565072486E+01  0.13060451009E+02  0.00000000000E+00 0.  1.
         14    1    4    4    0    0  0.15530054347E+02  0.19689125870E+02  0.20493012868E+03  0.20645871720E+03  0.00000000000E+00 0. -1.
         -5    1    5    5    0  502  0.26382802087E+02 -0.31795351685E+01  0.56004639695E+02  0.62167285265E+02  0.47000000000E+01 0.  1.
         13    1    6    6    0    0 -0.11384793265E+03 -0.82296328697E+02  0.11793603310E+04  0.11876972795E+04  0.00000000000E+00 0. -1.
        -14    1    6    6    0    0  0.20099886698E+01  0.11254505625E+02  0.19148727022E+03  0.19182825290E+03  0.00000000000E+00 0.  1.
</event>
<event>
12    1  0.8313893E-002  0.1850811E+03  0.7818608E-02  0.1163172E+00
         21   -1    0    0  503  502  0.00000000000E+00  0.00000000000E+00  0.41824932409E+03  0.41824932409E+03  0.00000000000E+00 0.  1.
         21   -1    0    0  501  503 -0.00000000000E+00 -0.00000000000E+00 -0.27914285369E+03  0.27914285369E+03  0.00000000000E+00 0.  1.
          6    2    1    2  501    0 -0.53181718260E+02  0.44726572199E+02 -0.22378979766E+03  0.29040812755E+03  0.17154079862E+03 0.  0.
         24    2    3    3    0    0  0.15176433505E+02 -0.13860219403E+01 -0.46289040610E+02  0.94633213416E+02  0.81120432753E+02 0.  0.
         -6    2    1    2    0  502  0.53181718260E+02 -0.44726572199E+02  0.36289626805E+03  0.40698405023E+03  0.17062694500E+03 0.  0.
        -24    2    5    5    0    0  0.83632439484E+02 -0.78810581662E+02  0.28188929663E+03  0.31385411121E+03  0.76402453171E+02 0.  0.
          5    1    3    3  501    0 -0.68358151765E+02  0.46112594140E+02 -0.17750075705E+03  0.19577491413E+03  0.47000000000E+01 0. -1.
        -13    1    4    4    0    0  0.20732276608E+02  0.34483454748E+02 -0.41867991893E+02  0.58067759470E+02  0.00000000000E+00 0.  1.
         14    1    4    4    0    0 -0.55558431028E+01 -0.35869476689E+02 -0.44210487178E+01  0.36565453946E+02  0.00000000000E+00 0. -1.
         -5    1    5    5    0  502 -0.30450721224E+02  0.34084009463E+02  0.81006971419E+02  0.93129939024E+02  0.47000000000E+01 0.  1.
         11    1    6    6    0    0  0.37590716354E+02  0.91314641765E+01  0.82741784063E+02  0.91338099520E+02  0.00000000000E+00 0. -1.
        -12    1    6    6    0    0  0.46041723130E+02 -0.87942045839E+02  0.19914751257E+03  0.22251601169E+03  0.00000000000E+00 0.  1.
</event>
<event>
12    1  0.8313893E-002  0.1918232E+03  0.7818608E-02  0.1157063E+00
         21   -1    0    0  503  502  0.00000000000E+00  0.00000000000E+00  0.46196728936E+03  0.46196728936E+03  0.00000000000E+00 0.  1.
         21   -1    0    0  501  503 -0.00000000000E+00 -0.00000000000E+00 -0.15260212129E+03  0.15260212129E+03  0.00000000000E+00 0.  1.
          6    2    1    2  501    0 -0.35402524803E+02  0.76664198625E+02 -0.58192601276E+02  0.20045573553E+03  0.17223642167E+03 0.  0.
         24    2    3    3    0    0 -0.16582707983E+02  0.29973110943E+01  0.27189388324E+02  0.86030345116E+02  0.79862302531E+02 0.  0.
         -6    2    1    2    0  502  0.35402524803E+02 -0.76664198625E+02  0.36755776934E+03  0.41411367512E+03  0.17105754589E+03 0.  0.
        -24    2    5    5    0    0  0.22652685743E+02  0.24466959973E+02  0.13694046287E+03  0.16193020683E+03  0.79730328051E+02 0.  0.
          5    1    3    3  501    0 -0.18819816820E+02  0.73666887531E+02 -0.85381989600E+02  0.11442539041E+03  0.47000000000E+01 0. -1.
        -13    1    4    4    0    0  0.13923676888E+02  0.91177833643E+01 -0.22146083834E+02  0.27702920076E+02  0.00000000000E+00 0.  1.
         14    1    4    4    0    0 -0.30506384871E+02 -0.61204722700E+01  0.49335472158E+02  0.58327425040E+02  0.00000000000E+00 0. -1.
         -5    1    5    5    0  502  0.12749839060E+02 -0.10113115860E+03  0.23061730648E+03  0.25218346830E+03  0.47000000000E+01 0.  1.
         13    1    6    6    0    0 -0.24550323864E+02 -0.10936249748E+02  0.51574305358E+02  0.58156933667E+02  0.00000000000E+00 0. -1.
        -14    1    6    6    0    0  0.47203009607E+02  0.35403209721E+02  0.85366157507E+02  0.10377327316E+03  0.00000000000E+00 0.  1.
</event>
<event>
12    1  0.8313893E-002  0.2288236E+03  0.7818608E-02  0.1127692E+00
         21   -1    0    0  501  502  0.00000000000E+00  0.00000000000E+00  0.78753768803E+02  0.78753768803E+02  0.00000000000E+00 0. -1.
         21   -1    0    0  502  503 -0.00000000000E+00 -0.00000000000E+00 -0.66327544714E+03  0.66327544714E+03  0.00000000000E+00 0. -1.
         -6    2    1    2    0  503 -0.82255691476E+02 -0.12646593083E+03 -0.31360723654E+03  0.38821354975E+03  0.17204833902E+03 0.  0.
        -24    2    3    3    0    0 -0.78924945905E+02 -0.19705092903E+02 -0.10513751663E+03  0.15392593911E+03  0.77600641460E+02 0.  0.
          6    2    1    2  501    0  0.82255691476E+02  0.12646593083E+03 -0.27091444179E+03  0.35381566619E+03  0.17038562272E+03 0.  0.
         24    2    5    5    0    0 -0.37096314779E+01  0.10718478554E+03 -0.20107433643E+03  0.24129220361E+03  0.79301318615E+02 0.  0.
          5    1    5    5  501    0  0.85965322954E+02  0.19281145282E+02 -0.69840105365E+02  0.11252346258E+03  0.47000000000E+01 0. -1.
        -11    1    6    6    0    0 -0.31685490448E+02  0.42847134022E+02 -0.43445686891E+02  0.68755908170E+02  0.00000000000E+00 0.  1.
         12    1    6    6    0    0  0.27975858970E+02  0.64337651522E+02 -0.15762864954E+03  0.17253629544E+03  0.00000000000E+00 0. -1.
         -5    1    3    3    0  503 -0.33307455711E+01 -0.10676083792E+03 -0.20846971991E+03  0.23428761064E+03  0.47000000000E+01 0.  1.
         11    1    4    4    0    0 -0.12183941026E+02 -0.15988220043E+02  0.87083513688E+01  0.21906779376E+02  0.00000000000E+00 0. -1.
        -12    1    4    4    0    0 -0.66741004880E+02 -0.37168728596E+01 -0.11384586800E+03  0.13201915973E+03  0.00000000000E+00 0.  1.
</event>
<event>
12    1  0.8313893E-002  0.2326077E+03  0.7818608E-02  0.1125271E+00
         21   -1    0    0  501  502  0.00000000000E+00  0.00000000000E+00  0.50749198429E+02  0.50749198429E+02  0.00000000000E+00 0. -1.
         21   -1    0    0  502  503 -0.00000000000E+00 -0.00000000000E+00 -0.10554039709E+04  0.10554039709E+04  0.00000000000E+00 0.  1.
         -6    2    1    2    0  503 -0.19121351155E+02 -0.15420183405E+03 -0.51752300313E+03  0.56633496734E+03  0.16959187709E+03 0.  0.
        -24    2    3    3    0    0 -0.69969246097E+02 -0.13931928816E+03 -0.42335669265E+03  0.45818515171E+03  0.79982401712E+02 0.  0.
          6    2    1    2  501    0  0.19121351155E+02  0.15420183405E+03 -0.48713176937E+03  0.53981820202E+03  0.17309679028E+03 0.  0.
         24    2    5    5    0    0 -0.11686680058E+02  0.17664460155E+03 -0.40102484160E+03  0.44553508788E+03  0.79628494955E+02 0.  0.
          5    1    5    5  501    0  0.30808031212E+02 -0.22442767501E+02 -0.86106927773E+02  0.94283114134E+02  0.47000000000E+01 0. -1.
        -13    1    6    6    0    0  0.27581041678E+02  0.80135437495E+02 -0.23179643778E+03  0.24680354691E+03  0.00000000000E+00 0.  1.
         14    1    6    6    0    0 -0.39267721736E+02  0.96509164051E+02 -0.16922840383E+03  0.19873154097E+03  0.00000000000E+00 0. -1.
         -5    1    3    3    0  503  0.50847894942E+02 -0.14882545885E+02 -0.94166310484E+02  0.10814981564E+03  0.47000000000E+01 0.  1.
         13    1    4    4    0    0  0.18070848690E+02 -0.23770978253E+02 -0.66654968026E+02  0.73037659752E+02  0.00000000000E+00 0. -1.
        -14    1    4    4    0    0 -0.88040094786E+02 -0.11554830991E+03 -0.35670172462E+03  0.38514749195E+03  0.00000000000E+00 0.  1.
</event>
<event>
12    1  0.8313893E-002  0.1743049E+03  0.7818608E-02  0.1173625E+00
         21   -1    0    0  503  502  0.00000000000E+00  0.00000000000E+00  0.97397026819E+02  0.97397026819E+02  0.00000000000E+00 0. -1.
         21   -1    0    0  501  503 -0.00000000000E+00 -0.00000000000E+00 -0.33932557886E+03  0.33932557886E+03  0.00000000000E+00 0. -1.
          6    2    1    2  501    0  0.24923639043E+02 -0.15430793987E+02 -0.18476695408E+03  0.25400988247E+03  0.17182227995E+03 0.  0.
         24    2    3    3    0    0  0.10577813081E+01  0.54528063296E+02 -0.77303487628E+02  0.12349433742E+03  0.79376278494E+02 0.  0.
         -6    2    1    2    0  502 -0.24923639043E+02  0.15430793987E+02 -0.57161597966E+02  0.18271272321E+03  0.17104734361E+03 0.  0.
        -24    2    5    5    0    0 -0.32648129319E+02  0.19761570063E+02 -0.10309153931E+03  0.13570131095E+03  0.79564818333E+02 0.  0.
          5    1    3    3  501    0  0.23865857735E+02 -0.69958857283E+02 -0.10746346645E+03  0.13051554505E+03  0.47000000000E+01 0. -1.
        -13    1    4    4    0    0 -0.36133264943E+02  0.38570346767E+02 -0.58595215834E+02  0.78909339142E+02  0.00000000000E+00 0.  1.
         14    1    4    4    0    0  0.37191046251E+02  0.15957716529E+02 -0.18708271794E+02  0.44584998280E+02  0.00000000000E+00 0. -1.
         -5    1    5    5    0  502  0.77244902765E+01 -0.43307760756E+01  0.45929941343E+02  0.47011412265E+02  0.47000000000E+01 0.  1.
         13    1    6    6    0    0 -0.24300772751E+02  0.25595308205E+02 -0.33623742895E+01  0.35453531831E+02  0.00000000000E+00 0. -1.
        -14    1    6    6    0    0 -0.83473565679E+01 -0.58337381417E+01 -0.99729165019E+02  0.10024777912E+03  0.00000000000E+00 0.  1.
</event>
<event>
12    1  0.8313893E-002  0.2029992E+03  0.7818608E-02  0.1147480E+00
         21   -1    0    0  501  502  0.00000000000E+00  0.00000000000E+00  0.53736848335E+02  0.53736848335E+02  0.00000000000E+00 0.  1.
         21   -1    0    0  502  503 -0.00000000000E+00 -0.00000000000E+00 -0.11836247118E+04  0.11836247118E+04  0.00000000000E+00 0.  1.
         -6    2    1    2    0  503  0.10731073467E+02  0.10552211786E+03 -0.93296077889E+03  0.95453840593E+03  0.17169065250E+03 0.  0.
        -24    2    3    3    0    0  0.69201191272E+02  0.93217411391E+02 -0.68399618871E+03  0.69846103942E+03  0.80738756205E+02 0.  0.
          6    2    1    2  501    0 -0.10731073467E+02 -0.10552211786E+03 -0.19692708460E+03  0.28282315423E+03  0.17308548935E+03 0.  0.
         24    2    5    5    0    0  0.43206309058E+02 -0.10215038552E+03 -0.91756480001E+02  0.16448653317E+03  0.79593225631E+02 0.  0.
          5    1    5    5  501    0 -0.53937382525E+02 -0.33717323345E+01 -0.10517060460E+03  0.11833662106E+03  0.47000000000E+01 0. -1.
        -13    1    6    6    0    0  0.40562323136E+02 -0.18486653768E+02 -0.65712720333E+01  0.45058185070E+02  0.00000000000E+00 0.  1.
         14    1    6    6    0    0  0.26439859219E+01 -0.83663731753E+02 -0.85185207967E+02  0.11942834810E+03  0.00000000000E+00 0. -1.
         -5    1    3    3    0  503 -0.58470117804E+02  0.12304706464E+02 -0.24896459018E+03  0.25607736651E+03  0.47000000000E+01 0.  1.
         13    1    4    4    0    0  0.30443878809E+02 -0.91753465707E+01 -0.14168925343E+03  0.14521315808E+03  0.00000000000E+00 0. -1.
        -14    1    4    4    0    0  0.38757312463E+02  0.10239275796E+03 -0.54230693528E+03  0.55324788134E+03  0.00000000000E+00 0.  1.
</event>
<event>
12    1  0.8313893E-002  0.2018423E+03  0.7818608E-02  0.1148839E+00
         21   -1    0    0  503  502  0.00000000000E+00  0.00000000000E+00  0.76059065034E+02  0.76059065034E+02  0.00000000000E+00 0. -1.
         21   -1    0    0  501  503 -0.00000000000E+00 -0.00000000000E+00 -0.53557284858E+03  0.53557284858E+03  0.00000000000E+00 0. -1.
          6    2    1    2  501    0  0.68740707785E+02  0.73057707997E+02 -0.19054157372E+03  0.27534874404E+03  0.17160456267E+03 0.  0.
         24    2    3    3    0    0  0.45603368140E+02  0.10152786264E+03 -0.78857034420E+02  0.15769921150E+03  0.79139341359E+02 0.  0.
         -6    2    1    2    0  502 -0.68740707785E+02 -0.73057707997E+02 -0.26897220983E+03  0.33628316957E+03  0.17515024085E+03 0.  0.
        -24    2    5    5    0    0  0.19819638247E+01 -0.84847019131E+02 -0.99896812457E+02  0.15257344165E+03  0.78079044058E+02 0.  0.
          5    1    3    3  501    0  0.23137339644E+02 -0.28470154642E+02 -0.11168453930E+03  0.11764953255E+03  0.47000000000E+01 0. -1.
        -11    1    4    4    0    0  0.22439412974E+02  0.24522305643E+02 -0.69120850586E+02  0.76697866426E+02  0.00000000000E+00 0.  1.
         12    1    4    4    0    0  0.23163955167E+02  0.77005556996E+02 -0.97361838340E+01  0.81001345069E+02  0.00000000000E+00 0. -1.
         -5    1    5    5    0  502 -0.70722671609E+02  0.11789311133E+02 -0.16907539738E+03  0.18370972793E+03  0.47000000000E+01 0.  1.
         11    1    6    6    0    0  0.33516109501E+02 -0.22662280770E+02 -0.59623397902E+02  0.72054549774E+02  0.00000000000E+00 0. -1.
        -12    1    6    6    0    0 -0.31534145676E+02 -0.62184738361E+02 -0.40273414555E+02  0.80518891873E+02  0.00000000000E+00 0.  1.
</event>
<event>
12    1  0.8313893E-002  0.2587059E+03  0.7818608E-02  0.1107953E+00
         21   -1    0    0  501  502  0.00000000000E+00  0.00000000000E+00  0.89203926442E+03  0.89203926442E+03  0.00000000000E+00 0. -1.
         21   -1    0    0  502  503 -0.00000000000E+00 -0.00000000000E+00 -0.78620857992E+02  0.78620857992E+02  0.00000000000E+00 0.  1.
         -6    2    1    2    0  503 -0.13502132696E+03  0.13810904659E+03  0.51141475817E+03  0.57312634336E+03  0.17211590018E+03 0.  0.
        -24    2    3    3    0    0 -0.11874904839E+03  0.11092646526E+03  0.51006959970E+03  0.54107046669E+03  0.78614478314E+02 0.  0.
          6    2    1    2  501    0  0.13502132696E+03 -0.13810904659E+03  0.30200364825E+03  0.39753377904E+03  0.17181977314E+03 0.  0.
         24    2    5    5    0    0 -0.11572234124E+01 -0.39611973715E+02  0.13478030231E+03  0.16040088725E+03  0.77409735239E+02 0.  0.
          5    1    5    5  501    0  0.13617855037E+03 -0.98497072875E+02  0.16722334594E+03  0.23713289180E+03  0.47000000000E+01 0. -1.
        -13    1    6    6    0    0  0.37366246304E+02 -0.26911082533E+02  0.64424664875E+02  0.79189520583E+02  0.00000000000E+00 0.  1.
         14    1    6    6    0    0 -0.38523469716E+02 -0.12700891182E+02  0.70355637440E+02  0.81211366663E+02  0.00000000000E+00 0. -1.
         -5    1    3    3    0  503 -0.16272278572E+02  0.27182581332E+02  0.13451584720E+01  0.32055876670E+02  0.47000000000E+01 0.  1.
         11    1    4    4    0    0 -0.12241749274E+03  0.11605221631E+03  0.44839074015E+03  0.47907036570E+03  0.00000000000E+00 0. -1.
        -12    1    4    4    0    0  0.36684443493E+01 -0.51257510517E+01  0.61678859551E+02  0.62000100994E+02  0.00000000000E+00 0.  1.
</event>
<event>
12    1  0.8313893E-002  0.2091021E+03  0.7818608E-02  0.1142295E+00
         21   -1    0    0  501  502  0.00000000000E+00  0.00000000000E+00  0.92583032948E+03  0.92583032948E+03  0.00000000000E+00 0. -1.
         21   -1    0    0  502  503 -0.00000000000E+00 -0.00000000000E+00 -0.62191098758E+02  0.62191098758E+02  0.00000000000E+00 0. -1.
         -6    2    1    2    0  503 -0.11811035363E+03 -0.12377073717E+02  0.18928466561E+03  0.28199183798E+03  0.17201007082E+03 0.  0.
        -24    2    3    3    0    0 -0.13806901177E+03  0.29827758582E+02  0.15108836537E+03  0.22148858801E+03  0.79225963396E+02 0.  0.
          6    2    1    2  501    0  0.11811035363E+03  0.12377073717E+02  0.67435456512E+03  0.70602959027E+03  0.17210594193E+03 0.  0.
         24    2    5    5    0    0  0.70183923558E+02 -0.14116405338E+02  0.19290385447E+03  0.22145170807E+03  0.81877383395E+02 0.  0.
          5    1    5    5  501    0  0.47926430070E+02  0.26493479055E+02  0.48145071065E+03  0.48457788219E+03  0.47000000000E+01 0. -1.
        -11    1    6    6    0    0  0.98351373290E+01  0.30843329157E+02  0.44174218477E+02  0.54766800690E+02  0.00000000000E+00 0.  1.
         12    1    6    6    0    0  0.60348786229E+02 -0.44959734496E+02  0.14872963600E+03  0.16668490738E+03  0.00000000000E+00 0. -1.
         -5    1    3    3    0  503  0.19958658144E+02 -0.42204832299E+02  0.38196300242E+02  0.60503249966E+02  0.47000000000E+01 0.  1.
         11    1    4    4    0    0 -0.52490221383E+02 -0.27196504153E+02  0.54870798232E+02  0.80657781259E+02  0.00000000000E+00 0. -1.
        -12    1    4    4    0    0 -0.85578790388E+02  0.57024262735E+02  0.96217567135E+02  0.14083080675E+03  0.00000000000E+00 0.  1.
</event>
<event>
12    1  0.8313893E-002  0.1878531E+03  0.7818608E-02  0.1160559E+00
         21   -1    0    0  503  502  0.00000000000E+00  0.00000000000E+00  0.32500839772E+03  0.32500839772E+03  0.00000000000E+00 0. -1.
         21   -1    0    0  501  503 -0.00000000000E+00 -0.00000000000E+00 -0.13749047149E+03  0.13749047149E+03  0.00000000000E+00 0. -1.
          6    2    1    2  501    0  0.70801098593E+02  0.16829579388E+02  0.20060605893E+03  0.27483006997E+03  0.17318413951E+03 0.  0.
         24    2    3    3    0    0  0.38744166935E+02 -0.32866365745E+02  0.19332738357E+03  0.21506048787E+03  0.79336169161E+02 0.  0.
         -6    2    1    2    0  502 -0.70801098593E+02 -0.16829579388E+02 -0.13088132697E+02  0.18766879924E+03  0.17248840160E+03 0.  0.
        -24    2    5    5    0    0 -0.51594864096E+01  0.38622873140E+02  0.23988667143E+02  0.93964077756E+02  0.82069757691E+02 0.  0.
          5    1    3    3  501    0  0.32056931658E+02  0.49695945132E+02  0.72786753637E+01  0.59769582105E+02  0.47000000000E+01 0. -1.
        -11    1    4    4    0    0 -0.42622275225E+01 -0.33685556581E+02  0.27348295737E+02  0.43598309432E+02  0.00000000000E+00 0.  1.
         12    1    4    4    0    0  0.43006394458E+02  0.81919083583E+00  0.16597908783E+03  0.17146217844E+03  0.00000000000E+00 0. -1.
         -5    1    5    5    0  502 -0.65641612183E+02 -0.55452452528E+02 -0.37076799840E+02  0.93704721481E+02  0.47000000000E+01 0.  1.
         13    1    6    6    0    0 -0.15468197572E+02 -0.21407929891E+02  0.19613535312E+02  0.32897649852E+02  0.00000000000E+00 0. -1.
        -14    1    6    6    0    0  0.10308711163E+02  0.60030803031E+02  0.43751318314E+01  0.61066427904E+02  0.00000000000E+00 0.  1.
</event>
<event>
12    1  0.8313893E-002  0.1868162E+03  0.7818608E-02  0.1161460E+00
         21   -1    0    0  501  502  0.00000000000E+00  0.00000000000E+00  0.52533175176E+02  0.52533175176E+02  0.00000000000E+00 0.  1.
         21   -1    0    0  502  503 -0.00000000000E+00 -0.00000000000E+00 -0.90967157971E+03  0.90967157971E+03  0.00000000000E+00 0.  1.
         -6    2    1    2    0  503 -0.18444691298E+02 -0.73212599541E+02 -0.67950634650E+03  0.70471920266E+03  0.17088004066E+03 0.  0.
        -24    2    3    3    0    0  0.35017111463E+02 -0.44178422999E+02 -0.21621711188E+03  0.23742897948E+03  0.80279198270E+02 0.  0.
          6    2    1    2  501    0  0.18444691298E+02  0.73212599541E+02 -0.17763205804E+03  0.25748555223E+03  0.17042702308E+03 0.  0.
         24    2    5    5    0    0  0.40139657852E+02  0.51476233747E+02 -0.19567297241E+03  0.22155915855E+03  0.80867507888E+02 0.  0.
          5    1    5    5  501    0 -0.21694966554E+02  0.21736365794E+02  0.18040914369E+02  0.35926393682E+02  0.47000000000E+01 0. -1.
        -11    1    6    6    0    0  0.34926524809E+01  0.18175570180E+02  0.12072496373E+01  0.18547437139E+02  0.00000000000E+00 0.  1.
         12    1    6    6    0    0  0.36647005371E+02  0.33300663567E+02 -0.19688022205E+03  0.20301172141E+03  0.00000000000E+00 0. -1.
         -5    1    3    3    0  503 -0.53461802761E+02 -0.29034176542E+02 -0.46328923462E+03  0.46729022318E+03  0.47000000000E+01 0.  1.
         11    1    4    4    0    0  0.26254803645E+02 -0.35488705413E+02 -0.36476293330E+02  0.57265023368E+02  0.00000000000E+00 0. -1.
        -12    1    4    4    0    0  0.87623078185E+01 -0.86897175866E+01 -0.17974081855E+03  0.18016395611E+03  0.00000000000E+00 0.  1.
</event>
<event>
12    1  0.8313893E-002  0.2468136E+03  0.7818608E-02  0.1115433E+00
         21   -1    0    0  501  502  0.00000000000E+00  0.00000000000E+00  0.15609959694E+04  0.15609959694E+04  0.00000000000E+00 0. -1.
         21   -1    0    0  502  503 -0.00000000000E+00 -0.00000000000E+00 -0.58513019278E+02  0.58513019278E+02  0.00000000000E+00 0. -1.
         -6    2    1    2    0  503 -0.13540215823E+03  0.11235857165E+03  0.28338536824E+03  0.37579812709E+03  0.17308602578E+03 0.  0.
        -24    2    3    3    0    0 -0.11469260447E+02  0.66494021194E+01  0.69109476973E+02  0.10659552820E+03  0.80067024051E+02 0.  0.
          6    2    1    2  501    0  0.13540215823E+03 -0.11235857165E+03  0.12190975819E+04  0.12437108616E+04  0.17221962719E+03 0.  0.
         24    2    5    5    0    0  0.81996088669E+02  0.12426498320E+02  0.55039086627E+03  0.56135151090E+03  0.72853529108E+02 0.  0.
          5    1    5    5  501    0  0.53406069561E+02 -0.12478506997E+03  0.66870671563E+03  0.68235935070E+03  0.47000000000E+01 0. -1.
        -13    1    6    6    0    0  0.11726671227E+02  0.34669377995E+02  0.19300058154E+03  0.19644008008E+03  0.00000000000E+00 0.  1.
         14    1    6    6    0    0  0.70269417442E+02 -0.22242879675E+02  0.35739028473E+03  0.36491143082E+03  0.00000000000E+00 0. -1.
         -5    1    3    3    0  503 -0.12393289778E+03  0.10570916953E+03  0.21427589126E+03  0.26920259890E+03  0.47000000000E+01 0.  1.
         11    1    4    4    0    0 -0.17831755904E+01  0.42265519288E+02  0.25225196000E+02  0.49253064363E+02  0.00000000000E+00 0. -1.
        -12    1    4    4    0    0 -0.96860848561E+01 -0.35616117169E+02  0.43884280973E+02  0.57342463834E+02  0.00000000000E+00 0.  1.
</event>
<event>
12    1  0.8313893E-002  0.1769138E+03  0.7818608E-02  0.1171283E+00
         21   -1    0    0  503  502  0.00000000000E+00  0.00000000000E+00  0.99724643855E+02  0.99724643855E+02  0.00000000000E+00 0.  1.
         21   -1    0    0  501  503 -0.00000000000E+00 -0.00000000000E+00 -0.32769176146E+03  0.32769176146E+03  0.00000000000E+00 0.  1.
          6    2    1    2  501    0  0.32658657589E+02 -0.19419362753E+02 -0.16338127927E+03  0.24081514276E+03  0.17278539001E+03 0.  0.
         24    2    3    3    0    0  0.77291178403E+02  0.20129389844E+02 -0.12740772746E+03  0.17101290658E+03  0.81446710212E+02 0.  0.
         -6    2    1    2    0  502 -0.32658657589E+02  0.19419362753E+02 -0.64585838336E+02  0.18660126256E+03  0.17089470767E+03 0.  0.
        -24    2    5    5    0    0 -0.47546211113E+02 -0.46001380158E+02 -0.18911584307E+02  0.10530095300E+03  0.79711188136E+02 0.  0.
          5    1    3    3  501    0 -0.44632520813E+02 -0.39548752598E+02 -0.35973551804E+02  0.69802236179E+02  0.47000000000E+01 0. -1.
        -13    1    4    4    0    0  0.54926077615E+02 -0.20813557698E+02 -0.10247505438E+03  0.11811526132E+03  0.00000000000E+00 0.  1.
         14    1    4    4    0    0  0.22365100787E+02  0.40942947542E+02 -0.24932673079E+02  0.52897645255E+02  0.00000000000E+00 0. -1.
         -5    1    5    5    0  502  0.14887553524E+02  0.65420742911E+02 -0.45674254029E+02  0.81300309557E+02  0.47000000000E+01 0.  1.
         11    1    6    6    0    0 -0.44562922818E+02  0.12657447980E+01  0.15015619206E+02  0.47041737001E+02  0.00000000000E+00 0. -1.
        -12    1    6    6    0    0 -0.29832882953E+01 -0.47267124956E+02 -0.33927203513E+02  0.58259215999E+02  0.00000000000E+00 0.  1.
</event>
<event>
12    1  0.8313893E-002  0.2979779E+03  0.7818608E-02  0.1086763E+00
         21   -1    0    0  503  502  0.00000000000E+00  0.00000000000E+00  0.45635501808E+03  0.45635501808E+03  0.00000000000E+00 0.  1.
         21   -1    0    0  501  503 -0.00000000000E+00 -0.00000000000E+00 -0.20557558383E+03  0.20557558383E+03  0.00000000000E+00 0.  1.
          6    2    1    2  501    0  0.23857432794E+03 -0.34730634890E+02  0.41027132810E+02  0.30078904725E+03  0.17511966870E+03 0.  0.
         24    2    3    3    0    0  0.51631006145E+02  0.26330286016E+02 -0.77163005176E+01  0.98121205894E+02  0.78798381932E+02 0.  0.
         -6    2    1    2    0  502 -0.23857432794E+03  0.34730634890E+02  0.20975230144E+03  0.36114155467E+03  0.16823575006E+03 0.  0.
        -24    2    5    5    0    0 -0.23851548026E+03  0.22999724463E+02  0.22717588251E+03  0.33961740777E+03  0.79451119680E+02 0.  0.
          5    1    3    3  501    0  0.18694332179E+03 -0.61060920906E+02  0.48743433328E+02  0.20266784135E+03  0.47000000000E+01 0. -1.
        -11    1    4    4    0    0  0.16086392162E+02 -0.28165945779E+02  0.11501083331E+01  0.32456359371E+02  0.00000000000E+00 0.  1.
         12    1    4    4    0    0  0.35544613983E+02  0.54496231795E+02 -0.88664088506E+01  0.65664846524E+02  0.00000000000E+00 0. -1.
         -5    1    5    5    0  502 -0.58847678802E-01  0.11730910427E+02 -0.17423581067E+02  0.21524146898E+02  0.47000000000E+01 0.  1.
         13    1    6    6    0    0 -0.13687244886E+03 -0.17626578800E+02  0.92809405856E+02  0.16630799546E+03  0.00000000000E+00 0. -1.
        -14    1    6    6    0    0 -0.10164303140E+03  0.40626303263E+02  0.13436647665E+03  0.17330941231E+03  0.00000000000E+00 0.  1.
</event>
<event>
12    1  0.8313893E-002  0.2001694E+03  0.7818608E-02  0.1150186E+00
         21   -1    0    0  503  502  0.00000000000E+00  0.00000000000E+00  0.55731462332E+02  0.55731462332E+02  0.00000000000E+00 0. -1.
         21   -1    0    0  501  503 -0.00000000000E+00 -0.00000000000E+00 -0.19505083323E+04  0.19505083323E+04  0.00000000000E+00 0. -1.
          6    2    1    2  501    0  0.88956050937E+02 -0.50790193403E+02 -0.17500921279E+04  0.17615022661E+04  0.17197370346E+03 0.  0.
         24    2    3    3    0    0  0.20489612004E+01 -0.18609351606E+02 -0.40289774292E+03  0.41111593261E+03  0.79619172227E+02 0.  0.
         -6    2    1    2    0  502 -0.88956050937E+02  0.50790193403E+02 -0.14468474212E+03  0.24473752856E+03  0.16873043750E+03 0.  0.
        -24    2    5    5    0    0 -0.15251286692E+02 -0.72519281496E+01 -0.14363503098E+02  0.84091969992E+02  0.81116934042E+02 0.  0.
          5    1    3    3  501    0  0.86907089737E+02 -0.32180841796E+02 -0.13471943849E+04  0.13503863335E+04  0.47000000000E+01 0. -1.
        -11    1    4    4    0    0  0.31042198546E+02 -0.10785847933E+02 -0.75476666486E+02  0.82320591531E+02  0.00000000000E+00 0.  1.
         12    1    4    4    0    0 -0.28993237346E+02 -0.78235036731E+01 -0.32742107644E+03  0.32879534108E+03  0.00000000000E+00 0. -1.
         -5    1    5    5    0  502 -0.73704764245E+02  0.58042121552E+02 -0.13032123902E+03  0.16064555857E+03  0.47000000000E+01 0.  1.
         11    1    6    6    0    0 -0.48685748243E+02 -0.83780690814E+01 -0.88053409305E+01  0.50179957677E+02  0.00000000000E+00 0. -1.
        -12    1    6    6    0    0  0.33434461551E+02  0.11261409317E+01 -0.55581621679E+01  0.33912012316E+02  0.00000000000E+00 0.  1.
</event>
<event>
12    1  0.8313893E-002  0.2649578E+03  0.7818608E-02  0.1104988E+00
         21   -1    0    0  503  502  0.00000000000E+00  0.00000000000E+00  0.74122504779E+03  0.74122504779E+03  0.00000000000E+00 0.  1.
         21   -1    0    0  501  503 -0.00000000000E+00 -0.00000000000E+00 -0.10724574236E+03  0.10724574236E+03  0.00000000000E+00 0. -1.
          6    2    1    2  501    0 -0.20012679415E+03 -0.25244920838E+02  0.47533910048E+03  0.54419656497E+03  0.17179814062E+03 0.  0.
         24    2    3    3    0    0 -0.16845494359E+03 -0.69946337748E+02  0.42603922220E+03  0.47034610261E+03  0.80289969557E+02 0.  0.
         -6    2    1    2    0  502  0.20012679415E+03  0.25244920838E+02  0.15864020495E+03  0.30427422517E+03  0.16348715458E+03 0.  0.
        -24    2    5    5    0    0  0.80629678538E+02  0.36236687207E+02  0.13819393986E+03  0.18245255500E+03  0.79856917360E+02 0.  0.
          5    1    3    3  501    0 -0.31671850565E+02  0.44701416910E+02  0.49299878282E+02  0.73850462358E+02  0.47000000000E+01 0. -1.
        -11    1    4    4    0    0 -0.77907732741E+02 -0.54052626807E+02  0.13383567941E+03  0.16402222522E+03  0.00000000000E+00 0.  1.
         12    1    4    4    0    0 -0.90547210844E+02 -0.15893710941E+02  0.29220354279E+03  0.30632387739E+03  0.00000000000E+00 0. -1.
         -5    1    5    5    0  502  0.11949711561E+03 -0.10991766368E+02  0.20446265082E+02  0.12182167017E+03  0.47000000000E+01 0.  1.
         13    1    6    6    0    0  0.70249874634E+02  0.10423886545E+02  0.42428756501E+02  0.82727877254E+02  0.00000000000E+00 0. -1.
        -14    1    6    6    0    0  0.10379803905E+02  0.25812800662E+02  0.95765183363E+02  0.99724677747E+02  0.00000000000E+00 0.  1.
</event>
<event>
12    1  0.8313893E-002  0.1742264E+03  0.7818608E-02  0.1174586E+00
         21   -1    0    0  503  502  0.00000000000E+00  0.00000000000E+00  0.10265316834E+03  0.10265316834E+03  0.00000000000E+00 0.  1.
         21   -1    0    0  501  503 -0.00000000000E+00 -0.00000000000E+00 -0.48821426857E+03  0.48821426857E+03  0.00000000000E+00 0.  1.
          6    2    1    2  501    0  0.36907438065E+02  0.81616694780E-01 -0.38028372385E+03  0.41656112102E+03  0.16596774169E+03 0.  0.
         24    2    3    3    0    0 -0.30686170815E+02 -0.36898827439E+02 -0.21876451463E+03  0.23754437835E+03  0.79159675859E+02 0.  0.
         -6    2    1    2    0  502 -0.36907438065E+02 -0.81616694780E-01 -0.52773763828E+01  0.17430631588E+03  0.17027235656E+03 0.  0.
        -24    2    5    5    0    0  0.32210922897E+02  0.40261904071E+02 -0.32700278084E+01  0.94112382582E+02  0.78663098083E+02 0.  0.
          5    1    3    3  501    0  0.67593608880E+02  0.36980444134E+02 -0.16151920922E+03  0.17901674267E+03  0.47000000000E+01 0. -1.
        -13    1    4    4    0    0  0.18630485001E+02 -0.35653210899E+02 -0.12887577374E+03  0.13500819040E+03  0.00000000000E+00 0.  1.
         14    1    4    4    0    0 -0.49316655815E+02 -0.12456165401E+01 -0.89888740887E+02  0.10253618795E+03  0.00000000000E+00 0. -1.
         -5    1    5    5    0  502 -0.69118360961E+02 -0.40343520766E+02 -0.20073485744E+01  0.80193933300E+02  0.47000000000E+01 0.  1.
         13    1    6    6    0    0  0.44703460661E+02 -0.50331719430E+00 -0.19122468144E+02  0.48624289313E+02  0.00000000000E+00 0. -1.
        -14    1    6    6    0    0 -0.12492537765E+02  0.40765221265E+02  0.15852440336E+02  0.45488093269E+02  0.00000000000E+00 0.  1.
</event>
<event>
12    1  0.8313893E-002  0.2126978E+03  0.7818608E-02  0.1139728E+00
         21   -1    0    0  503  502  0.00000000000E+00  0.00000000000E+00  0.84194947845E+02  0.84194947845E+02  0.00000000000E+00 0.  1.
         21   -1    0    0  501  503 -0.00000000000E+00 -0.00000000000E+00 -0.66721089023E+03  0.66721089023E+03  0.00000000000E+00 0. -1.
          6    2    1    2  501    0 -0.87960059696E+02 -0.87288802993E+02 -0.12423865763E+03  0.24632415625E+03  0.17287000513E+03 0.  0.
         24    2    3    3    0    0 -0.37751297857E+02 -0.94658971462E+02 -0.22504753816E+02  0.13253876029E+03  0.81698088520E+02 0.  0.
         -6    2    1    2    0  502  0.87960059696E+02  0.87288802993E+02 -0.45877728476E+03  0.50508168183E+03  0.17109822055E+03 0.  0.
        -24    2    5    5    0    0  0.95678438225E+02  0.11967684631E+02 -0.35475674501E+03  0.37633694629E+03  0.80495714147E+02 0.  0.
          5    1    3    3  501    0 -0.50208761839E+02  0.73701684683E+01 -0.10173390381E+03  0.11378539596E+03  0.47000000000E+01 0. -1.
        -13    1    4    4    0    0 -0.61086869996E+02 -0.63080498725E+02 -0.29543847778E+02  0.92647687217E+02  0.00000000000E+00 0.  1.
         14    1    4    4    0    0  0.23335572138E+02 -0.31578472737E+02  0.70390939615E+01  0.39891073077E+02  0.00000000000E+00 0. -1.
         -5    1    5    5    0  502 -0.77183785287E+01  0.75321118362E+02 -0.10402053975E+03  0.12874473554E+03  0.47000000000E+01 0.  1.
         11    1    6    6    0    0  0.19862923265E+02  0.37503738727E+02 -0.16574334081E+03  0.17109038887E+03  0.00000000000E+00 0. -1.
        -12    1    6    6    0    0  0.75815514960E+02 -0.25536054096E+02 -0.18901340420E+03  0.20524655742E+03  0.00000000000E+00 0.  1.
</event>
<event>
12    1  0.8313893E-002  0.1757177E+03  0.7818608E-02  0.1172056E+00
         21   -1    0    0  503  502  0.00000000000E+00  0.00000000000E+00  0.14037622554E+04  0.14037622554E+04  0.00000000000E+00 0. -1.
         21   -1    0    0  501  503 -0.00000000000E+00 -0.00000000000E+00 -0.31301015973E+02  0.31301015973E+02  0.00000000000E+00 0. -1.
          6    2    1    2  501    0 -0.24634288940E+02  0.28725290754E+02  0.10776731754E+04  0.10918771294E+04  0.17141820837E+03 0.  0.
         24    2    3    3    0    0  0.52357584674E+01  0.80665447624E+02  0.61674493258E+03  0.62704712319E+03  0.79243013729E+02 0.  0.
         -6    2    1    2    0  502  0.24634288940E+02 -0.28725290754E+02  0.29478806402E+03  0.34318614199E+03  0.17159468186E+03 0.  0.
        -24    2    5    5    0    0 -0.51428195485E+02 -0.18766648112E+02  0.13358729615E+03  0.16460155793E+03  0.79063650365E+02 0.  0.
          5    1    3    3  501    0 -0.29870047408E+02 -0.51940156870E+02  0.46092824282E+03  0.46483000619E+03  0.47000000000E+01 0. -1.
        -13    1    4    4    0    0 -0.36718223902E+02  0.43513221732E+02  0.29113027926E+03  0.29664535718E+03  0.00000000000E+00 0.  1.
         14    1    4    4    0    0  0.41953982370E+02  0.37152225892E+02  0.32561465332E+03  0.33040176601E+03  0.00000000000E+00 0. -1.
         -5    1    5    5    0  502  0.76062484426E+02 -0.99586426422E+01  0.16120076787E+03  0.17858458405E+03  0.47000000000E+01 0.  1.
         13    1    6    6    0    0  0.11939085987E+02 -0.32951552724E+01  0.77772224239E+02  0.78752261464E+02  0.00000000000E+00 0. -1.
        -14    1    6    6    0    0 -0.63367281472E+02 -0.15471492839E+02  0.55815071911E+02  0.85849296469E+02  0.00000000000E+00 0.  1.
</event>
<event>
12    1  0.8313893E-002  0.2215516E+03  0.7818608E-02  0.1132952E+00
         21   -1    0    0  503  502  0.00000000000E+00  0.00000000000E+00  0.16082661313E+03  0.16082661313E+03  0.00000000000E+00 0.  1.
         21   -1    0    0  501  503 -0.00000000000E+00 -0.00000000000E+00 -0.33640608993E+03  0.33640608993E+03  0.00000000000E+00 0. -1.
          6    2    1    2  501    0  0.11866043501E+03 -0.73462259601E+02 -0.98955458710E+01  0.22058080735E+03  0.17053142913E+03 0.  0.
         24    2    3    3    0    0  0.13053883094E+03 -0.92413217289E+02  0.23274196193E+02  0.18029983323E+03  0.79910903779E+02 0.  0.
         -6    2    1    2    0  502 -0.11866043501E+03  0.73462259601E+02 -0.16568393093E+03  0.27665189571E+03  0.17207005553E+03 0.  0.
        -24    2    5    5    0    0 -0.41266296802E+02 -0.19364048971E+02 -0.34415841834E+02  0.98158261631E+02  0.79829321136E+02 0.  0.
          5    1    3    3  501    0 -0.11878395935E+02  0.18950957688E+02 -0.33169742065E+02  0.40280974118E+02  0.47000000000E+01 0. -1.
        -13    1    4    4    0    0  0.11477595952E+03 -0.70351458573E+02 -0.12736817651E+02  0.13522231743E+03  0.00000000000E+00 0.  1.
         14    1    4    4    0    0  0.15762871422E+02 -0.22061758715E+02  0.36011013845E+02  0.45077515806E+02  0.00000000000E+00 0. -1.
         -5    1    5    5    0  502 -0.77394138203E+02  0.92826308572E+02 -0.13126808909E+03  0.17849363407E+03  0.47000000000E+01 0.  1.
         13    1    6    6    0    0 -0.17081585825E+02  0.30189309600E+02 -0.23636131808E+02  0.41974298270E+02  0.00000000000E+00 0. -1.
        -14    1    6    6    0    0 -0.24184710977E+02 -0.49553358571E+02 -0.10779710026E+02  0.56183963361E+02  0.00000000000E+00 0.  1.
</event>
<event>
12    1  0.8313893E-002  0.1844343E+03  0.7818608E-02  0.1164010E+00
         21   -1    0    0  503  502  0.00000000000E+00  0.00000000000E+00  0.71187485432E+03  0.71187485432E+03  0.00000000000E+00 0. -1.
         21   -1    0    0  501  503 -0.00000000000E+00 -0.00000000000E+00 -0.57567043329E+02  0.57567043329E+02  0.00000000000E+00 0. -1.
          6    2    1    2  501    0  0.34274583872E+02  0.56043755222E+02  0.16611255764E+03  0.24821236524E+03  0.17233788571E+03 0.  0.
         24    2    3    3    0    0  0.46284736610E+02 -0.27841482390E+02  0.63791064228E+02  0.11527345118E+03  0.79380373431E+02 0.  0.
         -6    2    1    2    0  502 -0.34274583872E+02 -0.56043755222E+02  0.48819525334E+03  0.52122953241E+03  0.17038183725E+03 0.  0.
        -24    2    5    5    0    0  0.41032758678E+02 -0.99510347887E+01  0.26179612361E+03  0.27817729386E+03  0.84039788804E+02 0.  0.
          5    1    3    3  501    0 -0.12010152738E+02  0.83885237612E+02  0.10232149341E+03  0.13293891406E+03  0.47000000000E+01 0. -1.
        -13    1    4    4    0    0 -0.94450394385E+00  0.15300012368E+02  0.46571110711E+02  0.49029081360E+02  0.00000000000E+00 0.  1.
         14    1    4    4    0    0  0.47229240553E+02 -0.43141494758E+02  0.17219953518E+02  0.66244369817E+02  0.00000000000E+00 0. -1.
         -5    1    5    5    0  502 -0.75307342550E+02 -0.46092720433E+02  0.22639912973E+03  0.24305223855E+03  0.47000000000E+01 0.  1.
         11    1    6    6    0    0  0.23025258991E+02 -0.45779981705E+02  0.11307137375E+03  0.12414147107E+03  0.00000000000E+00 0. -1.
        -12    1    6    6    0    0  0.18007499687E+02  0.35828946917E+02  0.14872474986E+03  0.15403582279E+03  0.00000000000E+00 0.  1.
</event>
<event>
12    1  0.8313893E-002  0.1916886E+03  0.7818608E-02  0.1157327E+00
         21   -1    0    0  503  502  0.00000000000E+00  0.00000000000E+00  0.24866481550E+03  0.24866481550E+03  0.00000000000E+00 0. -1.
         21   -1    0    0  501  503 -0.00000000000E+00 -0.00000000000E+00 -0.18218673030E+03  0.18218673030E+03  0.00000000000E+00 0. -1.
          6    2    1    2  501    0  0.75490169942E+02 -0.32278290039E+02  0.12874849104E+03  0.23091271148E+03  0.17321620193E+03 0.  0.
         24    2    3    3    0    0  0.24739399161E+02 -0.12057775958E+00 -0.57536496061E+01  0.83526568870E+02  0.79570916883E+02 0.  0.
         -6    2    1    2    0  502 -0.75490169942E+02  0.32278290039E+02 -0.62270405847E+02  0.19993883432E+03  0.17133966341E+03 0.  0.
        -24    2    5    5    0    0 -0.84745513786E+02 -0.35340565294E+02 -0.43333735553E+02  0.12895532589E+03  0.79504124277E+02 0.  0.
          5    1    3    3  501    0  0.50750770781E+02 -0.32157712280E+02  0.13450214065E+03  0.14738614261E+03  0.47000000000E+01 0. -1.
        -11    1    4    4    0    0 -0.16965553234E+02  0.47005055637E+01  0.25641530442E+02  0.31103260801E+02  0.00000000000E+00 0.  1.
         12    1    4    4    0    0  0.41704952395E+02 -0.48210833232E+01 -0.31395180048E+02  0.52423308069E+02  0.00000000000E+00 0. -1.
         -5    1    5    5    0  502  0.92553438447E+01  0.67618855333E+02 -0.18936670294E+02  0.70983508423E+02  0.47000000000E+01 0.  1.
         11    1    6    6    0    0 -0.52527199536E+02 -0.18997121233E+02  0.17213664021E+02  0.58449187635E+02  0.00000000000E+00 0. -1.
        -12    1    6    6    0    0 -0.32218314251E+02 -0.16343444061E+02 -0.60547399574E+02  0.70506138258E+02  0.00000000000E+00 0.  1.
</event>
<event>
12    1  0.8313893E-002  0.2430662E+03  0.7818608E-02  0.1119612E+00
         21   -1    0    0  503  502  0.00000000000E+00  0.00000000000E+00  0.94487322612E+03  0.94487322612E+03  0.00000000000E+00 0.  1.
         21   -1    0    0  501  503 -0.00000000000E+00 -0.00000000000E+00 -0.85167278990E+02  0.85167278990E+02  0.00000000000E+00 0. -1.
          6    2    1    2  501    0  0.14888032189E+03  0.43711638565E+02  0.14148840991E+03  0.27180730394E+03  0.17258094548E+03 0.  0.
         24    2    3    3    0    0  0.93137904302E+01  0.32341565530E+02  0.83344053161E+02  0.12011369337E+03  0.79676499579E+02 0.  0.
         -6    2    1    2    0  502 -0.14888032189E+03 -0.43711638565E+02  0.71821753722E+03  0.75823320117E+03  0.18709649646E+03 0.  0.
        -24    2    5    5    0    0 -0.10255654320E+03 -0.51846111957E+02  0.68802201716E+03  0.70214468575E+03  0.80168570856E+02 0.  0.
          5    1    3    3  501    0  0.13956653146E+03  0.11370073035E+02  0.58144356747E+02  0.15169361057E+03  0.47000000000E+01 0. -1.
        -13    1    4    4    0    0  0.37119851750E+02  0.34804410670E+02  0.75626645524E+02  0.91151631413E+02  0.00000000000E+00 0.  1.
         14    1    4    4    0    0 -0.27806061320E+02 -0.24628451396E+01  0.77174076371E+01  0.28962061959E+02  0.00000000000E+00 0. -1.
         -5    1    5    5    0  502 -0.46323778697E+02  0.81344733916E+01  0.30195520065E+02  0.56088515420E+02  0.47000000000E+01 0.  1.
         11    1    6    6    0    0 -0.67432139786E+02 -0.69487910601E+02  0.40543344193E+03  0.41683562592E+03  0.00000000000E+00 0. -1.
        -12    1    6    6    0    0 -0.35124403412E+02  0.17641798644E+02  0.28258857523E+03  0.28530905983E+03  0.00000000000E+00 0.  1.
</event>
<event>
12    1  0.8313893E-002  0.3518848E+03  0.7818608E-02  0.1061869E+00
         21   -1    0    0  503  502  0.00000000000E+00  0.00000000000E+00  0.12257044320E+03  0.12257044320E+03  0.00000000000E+00 0.  1.
         21   -1    0    0  501  503 -0.00000000000E+00 -0.00000000000E+00 -0.15194761730E+04  0.15194761730E+04  0.00000000000E+00 0. -1.
          6    2    1    2  501    0  0.17186337195E+03  0.25398886004E+03 -0.11739261661E+04  0.12254619120E+04  0.17206654162E+03 0.  0.
         24    2    3    3    0    0  0.19753172147E+03  0.19553271310E+03 -0.10042318410E+04  0.10440942212E+04  0.66327441723E+02 0.  0.
         -6    2    1    2    0  502 -0.17186337195E+03 -0.25398886004E+03 -0.22297956374E+03  0.41658470421E+03  0.17255599177E+03 0.  0.
        -24    2    5    5    0    0 -0.16363961927E+02 -0.12094407852E+03 -0.11881492909E+03  0.18690374827E+03  0.76946568255E+02 0.  0.
          5    1    3    3  501    0 -0.25668349525E+02  0.58456146944E+02 -0.16969432512E+03  0.18136769079E+03  0.47000000000E+01 0. -1.
        -11    1    4    4    0    0  0.72318423555E+01  0.37977151125E+02 -0.14102253357E+03  0.14622557412E+03  0.00000000000E+00 0.  1.
         12    1    4    4    0    0  0.19029987912E+03  0.15755556197E+03 -0.86320930741E+03  0.89786864713E+03  0.00000000000E+00 0. -1.
         -5    1    5    5    0  502 -0.15549941002E+03 -0.13304478153E+03 -0.10416463465E+03  0.22968095594E+03  0.47000000000E+01 0.  1.
         11    1    6    6    0    0 -0.57990998355E+01 -0.26386156869E+02 -0.79482119590E+02  0.83947996806E+02  0.00000000000E+00 0. -1.
        -12    1    6    6    0    0 -0.10564862091E+02 -0.94557921647E+02 -0.39332809499E+02  0.10295575147E+03  0.00000000000E+00 0.  1.
</event>
<event>
12    1  0.8313893E-002  0.1754201E+03  0.7818608E-02  0.1173138E+00
         21   -1    0    0  501  502  0.00000000000E+00  0.00000000000E+00  0.75919681854E+02  0.75919681854E+02  0.00000000000E+00 0. -1.
         21   -1    0    0  502  503 -0.00000000000E+00 -0.00000000000E+00 -0.40107129412E+03  0.40107129412E+03  0.00000000000E+00 0. -1.
         -6    2    1    2    0  503  0.30721948541E+02  0.24735492679E+01 -0.18564742031E+03  0.25541567092E+03  0.17269118019E+03 0.  0.
        -24    2    3    3    0    0  0.62833298146E+02 -0.52391290468E+02 -0.13386407172E+03  0.17328836362E+03  0.73596172427E+02 0.  0.
          6    2    1    2  501    0 -0.30721948541E+02 -0.24735492679E+01 -0.13950419196E+03  0.22157530506E+03  0.16936422193E+03 0.  0.
         24    2    5    5    0    0  0.42098427013E+02  0.11654945401E+01 -0.48342934727E+02  0.10474844789E+03  0.82834546313E+02 0.  0.
          5    1    5    5  501    0 -0.72820375554E+02 -0.36390438080E+01 -0.91161257231E+02  0.11682685717E+03  0.47000000000E+01 0. -1.
        -13    1    6    6    0    0  0.50728854849E+02  0.27250580227E+02 -0.51290552644E+02  0.77115054481E+02  0.00000000000E+00 0.  1.
         14    1    6    6    0    0 -0.86304278361E+01 -0.26085085687E+02  0.29476179174E+01  0.27633393409E+02  0.00000000000E+00 0. -1.
         -5    1    3    3    0  503 -0.32111349605E+02  0.54864839736E+02 -0.51783348589E+02  0.82127307296E+02  0.47000000000E+01 0.  1.
         11    1    4    4    0    0  0.53617567380E+02 -0.24372604300E+01 -0.95805365059E+02  0.10981553508E+03  0.00000000000E+00 0. -1.
        -12    1    4    4    0    0  0.92157307663E+01 -0.49954030038E+02 -0.38058706661E+02  0.63472828543E+02  0.00000000000E+00 0.  1.
</event>
<event>
12    1  0.8313893E-002  0.2036935E+03  0.7818608E-02  0.1147325E+00
         21   -1    0    0  501  502  0.00000000000E+00  0.00000000000E+00  0.88107838457E+03  0.88107838457E+03  0.00000000000E+00 0. -1.
         21   -1    0    0  502  503 -0.00000000000E+00 -0.00000000000E+00 -0.14750462849E+03  0.14750462849E+03  0.00000000000E+00 0.  1.
         -6    2    1    2    0  503  0.61758901334E+02 -0.88160477049E+02 -0.60008315864E+02  0.20927626305E+03  0.16914232083E+03 0.  0.
        -24    2    3    3    0    0  0.59877706546E+02 -0.12453406978E+03 -0.31529397024E+02  0.16280351878E+03  0.80104984691E+02 0.  0.
          6    2    1    2  501    0 -0.61758901334E+02  0.88160477049E+02  0.79358207194E+03  0.81930675001E+03  0.17292950616E+03 0.  0.
         24    2    5    5    0    0 -0.15144825908E+01 -0.14198199626E+02  0.14973254175E+03  0.16457703768E+03  0.66797340839E+02 0.  0.
          5    1    5    5  501    0 -0.60244418743E+02  0.10235867668E+03  0.64384953018E+03  0.65472971232E+03  0.47000000000E+01 0. -1.
        -13    1    6    6    0    0 -0.28661739534E+02 -0.22052172782E+02  0.11019950857E+03  0.11598157322E+03  0.00000000000E+00 0.  1.
         14    1    6    6    0    0  0.27147256943E+02  0.78539731567E+01  0.39533033184E+02  0.48595464465E+02  0.00000000000E+00 0. -1.
         -5    1    3    3    0  503  0.18811947873E+01  0.36373592732E+02 -0.28478918840E+02  0.46472744274E+02  0.47000000000E+01 0.  1.
         11    1    4    4    0    0  0.60403219078E+02 -0.71183324680E+02  0.11762688711E+02  0.94095565428E+02  0.00000000000E+00 0. -1.
        -12    1    4    4    0    0 -0.52551253193E+00 -0.53350745101E+02 -0.43292085735E+02  0.68707953350E+02  0.00000000000E+00 0.  1.
</event>
<event>
12    1  0.8313893E-002  0.1724540E+03  0.7818608E-02  0.1175329E+00
         21   -1    0    0  501  502  0.00000000000E+00  0.00000000000E+00  0.98543597924E+03  0.98543597924E+03  0.00000000000E+00 0. -1.
         21   -1    0    0  502  503 -0.00000000000E+00 -0.00000000000E+00 -0.41170135151E+02  0.41170135151E+02  0.00000000000E+00 0. -1.
         -6    2    1    2    0  503  0.17554838513E+01  0.10909577144E+02  0.20673017647E+03  0.26917675829E+03  0.17203680056E+03 0.  0.
        -24    2    3    3    0    0 -0.31687815988E+02  0.10152873024E+02  0.32741315877E+02  0.91938950490E+02  0.79205923636E+02 0.  0.
          6    2    1    2  501    0 -0.17554838513E+01 -0.10909577144E+02  0.73753566762E+03  0.75742935609E+03  0.17209958706E+03 0.  0.
         24    2    5    5    0    0  0.30531259616E+01  0.38913373844E+02  0.65363345918E+03  0.65961770161E+03  0.79594227595E+02 0.  0.
          5    1    5    5  501    0 -0.48086098129E+01 -0.49822950988E+02  0.83902208435E+02  0.97811654488E+02  0.47000000000E+01 0. -1.
        -11    1    6    6    0    0  0.19564588442E+02 -0.31428021315E+01  0.43351140215E+02  0.47665204123E+02  0.00000000000E+00 0.  1.
         12    1    6    6    0    0 -0.16511462480E+02  0.42056175975E+02  0.61028231897E+03  0.61195249748E+03  0.00000000000E+00 0. -1.
         -5    1    3    3    0  503  0.33443299839E+02  0.75670411965E+00  0.17398886059E+03  0.17723780780E+03  0.47000000000E+01 0.  1.
         11    1    4    4    0    0 -0.49362152747E+02 -0.18004441561E+02  0.17641659955E+02  0.55425717909E+02  0.00000000000E+00 0. -1.
        -12    1    4    4    0    0  0.17674336759E+02  0.28157314586E+02  0.15099655922E+02  0.36513232581E+02  0.00000000000E+00 0.  1.
</event>
<event>
12    1  0.8313893E-002  0.2335594E+03  0.7818608E-02  0.1125432E+00
         21   -1    0    0  501  502  0.00000000000E+00  0.00000000000E+00  0.66476889852E+03  0.66476889852E+03  0.00000000000E+00 0. -1.
         21   -1    0    0  502  503 -0.00000000000E+00 -0.00000000000E+00 -0.11834738625E+03  0.11834738625E+03  0.00000000000E+00 0.  1.
         -6    2    1    2    0  503  0.97689194262E+02 -0.11803737428E+03  0.51874828486E+02  0.23925089883E+03  0.17627817323E+03 0.  0.
        -24    2    3    3    0    0  0.10007561789E+02 -0.69142658183E+02  0.83299249475E+02  0.13394968246E+03  0.78248923276E+02 0.  0.
          6    2    1    2  501    0 -0.97689194262E+02  0.11803737428E+03  0.49454668379E+03  0.54386538594E+03  0.16654469425E+03 0.  0.
         24    2    5    5    0    0 -0.54151737085E+02  0.92559007636E+02  0.46783185524E+03  0.48659035292E+03  0.80024660256E+02 0.  0.
          5    1    5    5  501    0 -0.43537457176E+02  0.25478366641E+02  0.26714828544E+02  0.57275033026E+02  0.47000000000E+01 0. -1.
        -13    1    6    6    0    0 -0.66720600970E+02  0.97295196006E+02  0.38478317339E+03  0.40246252532E+03  0.00000000000E+00 0.  1.
         14    1    6    6    0    0  0.12568863884E+02 -0.47361883696E+01  0.83048681849E+02  0.84127827598E+02  0.00000000000E+00 0. -1.
         -5    1    3    3    0  503  0.87681632472E+02 -0.48894716094E+02 -0.31424420988E+02  0.10530121637E+03  0.47000000000E+01 0.  1.
         11    1    4    4    0    0  0.33374332352E+02 -0.18912672478E+02  0.65238563164E+02  0.75680944523E+02  0.00000000000E+00 0. -1.
        -12    1    4    4    0    0 -0.23366770563E+02 -0.50229985705E+02  0.18060686311E+02  0.58268737934E+02  0.00000000000E+00 0.  1.
</event>
<event>
12    1  0.8313893E-002  0.2146664E+03  0.7818608E-02  0.1138603E+00
         21   -1    0    0  503  502  0.00000000000E+00  0.00000000000E+00  0.13999483830E+03  0.13999483830E+03  0.00000000000E+00 0. -1.
         21   -1    0    0  501  503 -0.00000000000E+00 -0.00000000000E+00 -0.14284537048E+04  0.14284537048E+04  0.00000000000E+00 0. -1.
          6    2    1    2  501    0 -0.12863079764E+03  0.85704584317E+00 -0.13326540769E+04  0.13492799706E+04  0.16746024576E+03 0.  0.
         24    2    3    3    0    0 -0.12399554589E+03 -0.15798709208E+02 -0.70720853562E+03  0.72357787313E+03  0.88297967289E+02 0.  0.
         -6    2    1    2    0  502  0.12863079764E+03 -0.85704584317E+00  0.44195210411E+02  0.21916857243E+03  0.17185758606E+03 0.  0.
        -24    2    5    5    0    0  0.13496034658E+03  0.14836169734E+02 -0.13401370672E+02  0.15895398651E+03  0.81562037798E+02 0.  0.
          5    1    3    3  501    0 -0.46352517573E+01  0.16655755051E+02 -0.62544554127E+03  0.62570209751E+03  0.47000000000E+01 0. -1.
        -11    1    4    4    0    0 -0.38343382194E+02 -0.46049013001E+02 -0.34416798777E+03  0.34934557441E+03  0.00000000000E+00 0.  1.
         12    1    4    4    0    0 -0.85652163694E+02  0.30250303793E+02 -0.36304054785E+03  0.37423229872E+03  0.00000000000E+00 0. -1.
         -5    1    5    5    0  502 -0.63295489373E+01 -0.15693215577E+02  0.57596581083E+02  0.60214585919E+02  0.47000000000E+01 0.  1.
         13    1    6    6    0    0  0.46324216584E+02 -0.30995965514E+02 -0.19327862964E+02  0.58993637004E+02  0.00000000000E+00 0. -1.
        -14    1    6    6    0    0  0.88636129998E+02  0.45832135248E+02  0.59264922923E+01  0.99960349506E+02  0.00000000000E+00 0.  1.
</event>
<event>
12    1  0.8313893E-002  0.2499237E+03  0.7818608E-02  0.1113441E+00
         21   -1    0    0  503  502  0.00000000000E+00  0.00000000000E+00  0.14108403180E+03  0.14108403180E+03  0.00000000000E+00 0. -1.
         21   -1    0    0  501  503 -0.00000000000E+00 -0.00000000000E+00 -0.74584141690E+03  0.74584141690E+03  0.00000000000E+00 0.  1.
          6    2    1    2  501    0 -0.10878231284E+03  0.14488619447E+03 -0.58534587159E+03  0.63624906635E+03  0.17134025826E+03 0.  0.
         24    2    3    3    0    0 -0.69096139535E+02  0.16989202954E+02 -0.34790176638E+03  0.36360566207E+03  0.78169872262E+02 0.  0.
         -6    2    1    2    0  502  0.10878231284E+03 -0.14488619447E+03 -0.19411513507E+02  0.25067638235E+03  0.17215179603E+03 0.  0.
        -24    2    5    5    0    0  0.13274445033E+03 -0.15835194592E+03 -0.20785158333E+02  0.22275708088E+03  0.80574601495E+02 0.  0.
          5    1    3    3  501    0 -0.39686173306E+02  0.12789699152E+03 -0.23744410522E+03  0.27264340427E+03  0.47000000000E+01 0. -1.
        -11    1    4    4    0    0 -0.37239560519E+02 -0.20004812530E+02 -0.72613627825E+02  0.84022118147E+02  0.00000000000E+00 0.  1.
         12    1    4    4    0    0 -0.31856579017E+02  0.36994015484E+02 -0.27528813855E+03  0.27958354393E+03  0.00000000000E+00 0. -1.
         -5    1    5    5    0  502 -0.23962137485E+02  0.13465751445E+02  0.13736448261E+01  0.27919301476E+02  0.47000000000E+01 0.  1.
         13    1    6    6    0    0  0.84587502042E+02 -0.15008701930E+03 -0.91231491852E+01  0.17252359466E+03  0.00000000000E+00 0. -1.
        -14    1    6    6    0    0  0.48156948284E+02 -0.82649266176E+01 -0.11662009148E+02  0.50233486216E+02  0.00000000000E+00 0.  1.
</event>
<event>
12    1  0.8313893E-002  0.1856880E+03  0.7818608E-02  0.1162751E+00
         21   -1    0    0  501  502  0.00000000000E+00  0.00000000000E+00  0.20782578019E+03  0.20782578019E+03  0.00000000000E+00 0. -1.
         21   -1    0    0  502  503 -0.00000000000E+00 -0.00000000000E+00 -0.16460240763E+03  0.16460240763E+03  0.00000000000E+00 0.  1.
         -6    2    1    2    0  503  0.68497582108E+02  0.78937085792E+01  0.22410404278E+02  0.18703546968E+03  0.17241174934E+03 0.  0.
        -24    2    3    3    0    0  0.68534910055E+02  0.11452716780E+02  0.79093299968E+02  0.13004679891E+03  0.76342787400E+02 0.  0.
          6    2    1    2  501    0 -0.68497582108E+02 -0.78937085792E+01  0.20812968280E+02  0.18539271813E+03  0.17083047415E+03 0.  0.
         24    2    5    5    0    0 -0.42557439178E+02 -0.53699462100E+02 -0.33047890593E+02  0.10993319130E+03  0.79362306028E+02 0.  0.
          5    1    5    5  501    0 -0.25940142929E+02  0.45805753521E+02  0.53860858873E+02  0.75459526830E+02  0.47000000000E+01 0. -1.
        -13    1    6    6    0    0 -0.41840882535E+02  0.63010405851E+01 -0.25634701171E+02  0.49472219152E+02  0.00000000000E+00 0.  1.
         14    1    6    6    0    0 -0.71655664364E+00 -0.60000502686E+02 -0.74131894220E+01  0.60460972150E+02  0.00000000000E+00 0. -1.
         -5    1    3    3    0  503 -0.37327947821E-01 -0.35590082007E+01 -0.56682895690E+02  0.56988670774E+02  0.47000000000E+01 0.  1.
         13    1    4    4    0    0  0.22064123861E+02  0.35492777441E+02  0.62448273282E+02  0.75142196189E+02  0.00000000000E+00 0. -1.
        -14    1    4    4    0    0  0.46470786195E+02 -0.24040060661E+02  0.16645026686E+02  0.54904602717E+02  0.00000000000E+00 0.  1.
</event>
<event>
12    1  0.8313893E-002  0.2919970E+03  0.7818608E-02  0.1089474E+00
         21   -1    0    0  503  502  0.00000000000E+00  0.00000000000E+00  0.41793146546E+03  0.41793146546E+03  0.00000000000E+00 0.  1.
         21   -1    0    0  501  503 -0.00000000000E+00 -0.00000000000E+00 -0.38289449181E+03  0.38289449181E+03  0.00000000000E+00 0.  1.
          6    2    1    2  501    0 -0.17755473582E+03  0.15594194172E+03 -0.25681701536E+03  0.38886659555E+03  0.17151873471E+03 0.  0.
         24    2    3    3    0    0 -0.21612239639E+02  0.18668241259E+02 -0.84010774945E+02  0.11859595770E+03  0.78686712622E+02 0.  0.
         -6    2    1    2    0  502  0.17755473582E+03 -0.15594194172E+03  0.29185398901E+03  0.41195936173E+03  0.16937588794E+03 0.  0.
        -24    2    5    5    0    0  0.15055082661E+03 -0.15646762208E+03  0.17043041707E+03  0.28747939838E+03  0.80313194928E+02 0.  0.
          5    1    3    3  501    0 -0.15594249618E+03  0.13727370046E+03 -0.17280624041E+03  0.27027063784E+03  0.47000000000E+01 0. -1.
        -13    1    4    4    0    0 -0.50084309178E+02  0.54009245412E+01 -0.63610661133E+02  0.81141384149E+02  0.00000000000E+00 0.  1.
         14    1    4    4    0    0  0.28472069539E+02  0.13267316718E+02 -0.20400113812E+02  0.37454573556E+02  0.00000000000E+00 0. -1.
         -5    1    5    5    0  502  0.27003909215E+02  0.52568035803E+00  0.12142357194E+03  0.12447996335E+03  0.47000000000E+01 0.  1.
         11    1    6    6    0    0  0.23983994239E+02 -0.80191955818E+02  0.59183852811E+02  0.10251200023E+03  0.00000000000E+00 0. -1.
        -12    1    6    6    0    0  0.12656683237E+03 -0.76275666262E+02  0.11124656426E+03  0.18496739815E+03  0.00000000000E+00 0.  1.
</event>
<event>
12    1  0.8313893E-002  0.2562036E+03  0.7818608E-02  0.1109784E+00
         21   -1    0    0  503  502  0.00000000000E+00  0.00000000000E+00  0.36507880467E+03  0.36507880467E+03  0.00000000000E+00 0. -1.
         21   -1    0    0  501  503 -0.00000000000E+00 -0.00000000000E+00 -0.30472674257E+03  0.30472674257E+03  0.00000000000E+00 0. -1.
          6    2    1    2  501    0  0.13447543037E+03 -0.13349414268E+03 -0.18549769531E+03  0.31630634144E+03  0.17244123394E+03 0.  0.
         24    2    3    3    0    0  0.48046486163E+02 -0.39469144139E+02 -0.15418141023E+03  0.18472571042E+03  0.80531997732E+02 0.  0.
         -6    2    1    2    0  502 -0.13447543037E+03  0.13349414268E+03  0.24584975741E+03  0.35349920580E+03  0.16916044982E+03 0.  0.
        -24    2    5    5    0    0 -0.48186568974E+01  0.39639130517E+02  0.93717807303E+02  0.13262398660E+03  0.84921224043E+02 0.  0.
          5    1    3    3  501    0  0.86428944210E+02 -0.94024998538E+02 -0.31316285084E+02  0.13158063102E+03  0.47000000000E+01 0. -1.
        -11    1    4    4    0    0  0.36596233481E+02  0.89825030394E+01 -0.11605008398E+03  0.12201471902E+03  0.00000000000E+00 0.  1.
         12    1    4    4    0    0  0.11450252682E+02 -0.48451647179E+02 -0.38131326245E+02  0.62710991397E+02  0.00000000000E+00 0. -1.
         -5    1    5    5    0  502 -0.12965677348E+03  0.93855012160E+02  0.15213195011E+03  0.22087521921E+03  0.47000000000E+01 0.  1.
         13    1    6    6    0    0  0.56771000753E+01  0.50632696016E+01  0.96110490832E+02  0.96411060633E+02  0.00000000000E+00 0. -1.
        -14    1    6    6    0    0 -0.10495756973E+02  0.34575860916E+02 -0.23926835290E+01  0.36212925965E+02  0.00000000000E+00 0.  1.
</event>
<event>
12    1  0.8313893E-002  0.2341039E+03  0.7818608E-02  0.1124022E+00
         21   -1    0    0  501  502  0.00000000000E+00  0.00000000000E+00  0.24897596024E+03  0.24897596024E+03  0.00000000000E+00 0. -1.
         21   -1    0    0  502  503 -0.00000000000E+00 -0.00000000000E+00 -0.23038333814E+03  0.23038333814E+03  0.00000000000E+00 0. -1.
         -6    2    1    2    0  503 -0.14070285283E+03  0.67064468991E+02 -0.44407008059E+02  0.23692665736E+03  0.17282165029E+03 0.  0.
        -24    2    3    3    0    0 -0.76096799526E+02  0.74043090146E+02 -0.88137357566E+02  0.15845961496E+03  0.77898354775E+02 0.  0.
          6    2    1    2  501    0  0.14070285283E+03 -0.67064468991E+02  0.62999630160E+02  0.24243264102E+03  0.17467025000E+03 0.  0.
         24    2    5    5    0    0  0.12353703579E+03 -0.87713359454E+02 -0.33621406556E+01  0.17068993005E+03  0.78541171308E+02 0.  0.
          5    1    5    5  501    0  0.17165817034E+02  0.20648890462E+02  0.66361770816E+02  0.71742710972E+02  0.47000000000E+01 0. -1.
        -11    1    6    6    0    0  0.81609304533E+02 -0.37289554677E+02 -0.36920243034E+02  0.97024191932E+02  0.00000000000E+00 0.  1.
         12    1    6    6    0    0  0.41927731261E+02 -0.50423804777E+02  0.33558102379E+02  0.73665738116E+02  0.00000000000E+00 0. -1.
         -5    1    3    3    0  503 -0.64606053302E+02 -0.69786211549E+01  0.43730349507E+02  0.78467042410E+02  0.47000000000E+01 0.  1.
         13    1    4    4    0    0  0.11516387254E+02  0.16595261011E+02 -0.36362990049E+02  0.41596837725E+02  0.00000000000E+00 0. -1.
        -14    1    4    4    0    0 -0.87613186780E+02  0.57447829135E+02 -0.51774367517E+02  0.11686277723E+03  0.00000000000E+00 0.  1.
</event>
<event>
12    1  0.8313893E-002  0.1861546E+03  0.7818608E-02  0.1162729E+00
         21   -1    0    0  503  502  0.00000000000E+00  0.00000000000E+00  0.45273272963E+03  0.45273272963E+03  0.00000000000E+00 0. -1.
         21   -1    0    0  501  503 -0.00000000000E+00 -0.00000000000E+00 -0.86502808388E+02  0.86502808388E+02  0.00000000000E+00 0. -1.
          6    2    1    2  501    0 -0.64039269883E+02 -0.10282027665E+01  0.28185370275E+03  0.33777957941E+03  0.17478972860E+03 0.  0.
         24    2    3    3    0    0  0.29829080176E+02 -0.23371533115E+02  0.77603832687E+02  0.11183580106E+03  0.71055534389E+02 0.  0.
         -6    2    1    2    0  502  0.64039269883E+02  0.10282027665E+01  0.84376218492E+02  0.20145595860E+03  0.17135656311E+03 0.  0.
        -24    2    5    5    0    0  0.82089940498E+02 -0.29405923414E+01  0.11655300932E+03  0.16405256421E+03  0.81124807723E+02 0.  0.
          5    1    3    3  501    0 -0.93868350059E+02  0.22343330349E+02  0.20424987006E+03  0.22594377835E+03  0.47000000000E+01 0. -1.
        -11    1    4    4    0    0  0.40197492080E+02 -0.23727970247E+02  0.86420479658E+02  0.98220946064E+02  0.00000000000E+00 0.  1.
         12    1    4    4    0    0 -0.10368411903E+02  0.35643713152E+00 -0.88166469707E+01  0.13614854999E+02  0.00000000000E+00 0. -1.
         -5    1    5    5    0  502 -0.18050670615E+02  0.39687951079E+01 -0.32176790828E+02  0.37403394395E+02  0.47000000000E+01 0.  1.
         13    1    6    6    0    0  0.37469569025E+02  0.32277823407E+02  0.22904295090E+02  0.54501680895E+02  0.00000000000E+00 0. -1.
        -14    1    6    6    0    0  0.44620371473E+02 -0.35218415749E+02  0.93648714230E+02  0.10955088332E+03  0.00000000000E+00 0.  1.
</event>
<event>
12    1  0.8313893E-002  0.2068225E+03  0.7818608E-02  0.1144390E+00
         21   -1    0    0  503  502  0.00000000000E+00  0.00000000000E+00  0.96683907540E+03  0.96683907540E+03  0.00000000000E+00 0. -1.
         21   -1    0    0  501  503 -0.00000000000E+00 -0.00000000000E+00 -0.45704001596E+02  0.45704001596E+02  0.00000000000E+00 0.  1.
          6    2    1    2  501    0 -0.54148645628E+02 -0.10029191726E+03  0.35973642483E+03  0.41425886042E+03  0.17090805599E+03 0.  0.
         24    2    3    3    0    0 -0.76116317974E+02 -0.86962873381E+01  0.16857097745E+03  0.20109541065E+03  0.78446609039E+02 0.  0.
         -6    2    1    2    0  502  0.54148645628E+02  0.10029191726E+03  0.56139864897E+03  0.59828421657E+03  0.17258336025E+03 0.  0.
        -24    2    5    5    0    0  0.58861223935E+02  0.56746647956E+02  0.53468227272E+03  0.54676476749E+03  0.79885871525E+02 0.  0.
          5    1    3    3  501    0  0.21967672346E+02 -0.91595629926E+02  0.19116544738E+03  0.21316344978E+03  0.47000000000E+01 0. -1.
        -11    1    4    4    0    0 -0.34732661787E+02  0.44259652877E+01  0.96040627329E+01  0.36306817329E+02  0.00000000000E+00 0.  1.
         12    1    4    4    0    0 -0.41383656186E+02 -0.13122252626E+02  0.15896691472E+03  0.16478859332E+03  0.00000000000E+00 0. -1.
         -5    1    5    5    0  502 -0.47125783071E+01  0.43545269308E+02  0.26716376255E+02  0.51519449081E+02  0.47000000000E+01 0.  1.
         13    1    6    6    0    0  0.52094311977E+02 -0.46610184095E+01  0.22804717880E+03  0.23396807088E+03  0.00000000000E+00 0. -1.
        -14    1    6    6    0    0  0.67669119576E+01  0.61407666366E+02  0.30663509392E+03  0.31279669661E+03  0.00000000000E+00 0.  1.
</event>
<event>
12    1  0.8313893E-002  0.1773707E+03  0.7818608E-02  0.1170419E+00
         21   -1    0    0  503  502  0.00000000000E+00  0.00000000000E+00  0.82714684308E+02  0.82714684308E+02  0.00000000000E+00 0. -1.
         21   -1    0    0  501  503 -0.00000000000E+00 -0.00000000000E+00 -0.38359550971E+03  0.38359550971E+03  0.00000000000E+00 0. -1.
          6    2    1    2  501    0 -0.13580635821E+02  0.40437986274E+02 -0.17312781473E+03  0.24772112393E+03  0.17196758592E+03 0.  0.
         24    2    3    3    0    0 -0.32478748698E+02  0.74485559646E+02 -0.63060324282E+02  0.13087370900E+03  0.80921909865E+02 0.  0.
         -6    2    1    2    0  502  0.13580635821E+02 -0.40437986274E+02 -0.12775301067E+03  0.21858907008E+03  0.17216470434E+03 0.  0.
        -24    2    5    5    0    0 -0.58959416801E+02 -0.31182483475E+02 -0.75046698768E+02  0.12832407753E+03  0.79915591546E+02 0.  0.
          5    1    3    3  501    0  0.18898112877E+02 -0.34047573373E+02 -0.11006749045E+03  0.11684741493E+03  0.47000000000E+01 0. -1.
        -11    1    4    4    0    0 -0.21231416258E+02 -0.13517281084E+02 -0.77903378190E+01  0.26347282356E+02  0.00000000000E+00 0.  1.
         12    1    4    4    0    0 -0.11247332440E+02  0.88002840730E+02 -0.55269986463E+02  0.10452642665E+03  0.00000000000E+00 0. -1.
         -5    1    5    5    0  502  0.72540052622E+02 -0.92555027989E+01 -0.52706311899E+02  0.90264992553E+02  0.47000000000E+01 0.  1.
         13    1    6    6    0    0  0.80109966407E+01 -0.36064453076E+02 -0.26621813055E+02  0.45536158964E+02  0.00000000000E+00 0. -1.
        -14    1    6    6    0    0 -0.66970413442E+02  0.48819696016E+01 -0.48424885714E+02  0.82787918564E+02  0.00000000000E+00 0.  1.
</event>
<event>
12    1  0.8313893E-002  0.2073069E+03  0.7818608E-02  0.1143813E+00
         21   -1    0    0  501  502  0.00000000000E+00  0.00000000000E+00  0.39793831401E+02  0.39793831401E+02  0.00000000000E+00 0.  1.
         21   -1    0    0  502  503 -0.00000000000E+00 -0.00000000000E+00 -0.15675953753E+04  0.15675953753E+04  0.00000000000E+00 0.  1.
         -6    2    1    2    0  503  0.10963442068E+03  0.35544420938E+02 -0.12138961533E+04  0.12314706827E+04  0.17231674111E+03 0.  0.
        -24    2    3    3    0    0  0.13228452714E+03 -0.11408579367E+02 -0.92854541250E+03  0.94135907169E+03  0.79567373816E+02 0.  0.
          6    2    1    2  501    0 -0.10963442068E+03 -0.35544420938E+02 -0.31390539058E+03  0.37591852399E+03  0.17174117267E+03 0.  0.
         24    2    5    5    0    0 -0.77120016943E+02  0.42353427357E+02 -0.13574009898E+03  0.17871248364E+03  0.75970175181E+02 0.  0.
          5    1    5    5  501    0 -0.32514403738E+02 -0.77897848295E+02 -0.17816529160E+03  0.19720604035E+03  0.47000000000E+01 0. -1.
        -11    1    6    6    0    0 -0.51960671221E+01 -0.64082874833E+01  0.75172038030E+01  0.11161255083E+02  0.00000000000E+00 0.  1.
         12    1    6    6    0    0 -0.71923949821E+02  0.48761714841E+02 -0.14325730278E+03  0.16755122856E+03  0.00000000000E+00 0. -1.
         -5    1    3    3    0  503 -0.22650106461E+02  0.46953000306E+02 -0.28535074085E+03  0.29011161104E+03  0.47000000000E+01 0.  1.
         13    1    4    4    0    0  0.55942465525E+02 -0.41307773521E+02 -0.52353801663E+03  0.52813629534E+03  0.00000000000E+00 0. -1.
        -14    1    4    4    0    0  0.76342061618E+02  0.29899194154E+02 -0.40500739587E+03  0.41322277635E+03  0.00000000000E+00 0.  1.
</event>
<event>
12    1  0.8313893E-002  0.1817180E+03  0.7818608E-02  0.1166296E+00
         21   -1    0    0  501  502  0.00000000000E+00  0.00000000000E+00  0.52522285308E+03  0.52522285308E+03  0.00000000000E+00 0. -1.
         21   -1    0    0  502  503 -0.00000000000E+00 -0.00000000000E+00 -0.63009416351E+02  0.63009416351E+02  0.00000000000E+00 0. -1.
         -6    2    1    2    0  503 -0.43351026983E+02 -0.36994349011E+02  0.20887241715E+03  0.27645813301E+03  0.17191137037E+03 0.  0.
        -24    2    3    3    0    0  0.33574364299E+01 -0.67035611676E+02  0.72463363505E+02  0.12910251577E+03  0.83135280810E+02 0.  0.
          6    2    1    2  501    0  0.43351026983E+02  0.36994349011E+02  0.25334101958E+03  0.31177413642E+03  0.17255012761E+03 0.  0.
         24    2    5    5    0    0 -0.27164050065E+02 -0.25158724927E+01  0.75314754070E+02  0.11620094064E+03  0.84179161291E+02 0.  0.
          5    1    5    5  501    0  0.70515077048E+02  0.39510221504E+02  0.17802626551E+03  0.19557319577E+03  0.47000000000E+01 0. -1.
        -13    1    6    6    0    0  0.53995740307E+01 -0.37844187323E+02  0.20744487558E+02  0.43493352112E+02  0.00000000000E+00 0.  1.
         14    1    6    6    0    0 -0.32563624096E+02  0.35328314830E+02  0.54570266512E+02  0.72707588533E+02  0.00000000000E+00 0. -1.
         -5    1    3    3    0  503 -0.46708463413E+02  0.30041262664E+02  0.13640905364E+03  0.14735561724E+03  0.47000000000E+01 0.  1.
         11    1    4    4    0    0  0.43820270438E+01  0.10720776172E+02 -0.10327850385E+02  0.15517786450E+02  0.00000000000E+00 0. -1.
        -12    1    4    4    0    0 -0.10245906139E+01 -0.77756387848E+02  0.82791213890E+02  0.11358472932E+03  0.00000000000E+00 0.  1.
</event>
<event>
12    1  0.8313893E-002  0.1837407E+03  0.7818608E-02  0.1164680E+00
         21   -1    0    0  503  502  0.00000000000E+00  0.00000000000E+00  0.10457316687E+03  0.10457316687E+03  0.00000000000E+00 0. -1.
         21   -1    0    0  501  503 -0.00000000000E+00 -0.00000000000E+00 -0.40658083942E+03  0.40658083942E+03  0.00000000000E+00 0. -1.
          6    2    1    2  501    0 -0.47365715871E+02  0.37370386681E+02 -0.26988607648E+03  0.32649522076E+03  0.17355281059E+03 0.  0.
         24    2    3    3    0    0  0.18425729176E+02 -0.11756981576E+02 -0.20766896695E+03  0.22336873885E+03  0.79306112942E+02 0.  0.
         -6    2    1    2    0  502  0.47365715871E+02 -0.37370386681E+02 -0.32121596069E+02  0.18465878552E+03  0.17154303628E+03 0.  0.
        -24    2    5    5    0    0 -0.31174326513E+02 -0.51906673471E+02 -0.32903680042E+02  0.10464288994E+03  0.78748592812E+02 0.  0.
          5    1    3    3  501    0 -0.65791445047E+02  0.49127368258E+02 -0.62217109523E+02  0.10312648191E+03  0.47000000000E+01 0. -1.
        -13    1    4    4    0    0  0.42147770122E+02  0.16569189191E+02 -0.11146303200E+03  0.12031201128E+03  0.00000000000E+00 0.  1.
         14    1    4    4    0    0 -0.23722040945E+02 -0.28326170767E+02 -0.96205934958E+02  0.10305672757E+03  0.00000000000E+00 0. -1.
         -5    1    5    5    0  502  0.78540042383E+02  0.14536286789E+02  0.78208397350E+00  0.80015895587E+02  0.47000000000E+01 0.  1.
         13    1    6    6    0    0  0.47264998296E+01  0.19131213358E+02 -0.76366075321E+01  0.21134353546E+02  0.00000000000E+00 0. -1.
        -14    1    6    6    0    0 -0.35900826342E+02 -0.71037886829E+02 -0.25267072510E+02  0.83508536393E+02  0.00000000000E+00 0.  1.
</event>
<event>
12    1  0.8313893E-002  0.2087133E+03  0.7818608E-02  0.1143495E+00
         21   -1    0    0  503  502  0.00000000000E+00  0.00000000000E+00  0.20648172150E+03  0.20648172150E+03  0.00000000000E+00 0.  1.
         21   -1    0    0  501  503 -0.00000000000E+00 -0.00000000000E+00 -0.21182735043E+03  0.21182735043E+03  0.00000000000E+00 0.  1.
          6    2    1    2  501    0  0.39446033069E+01 -0.11046663672E+03 -0.36007751733E+02  0.21179659817E+03  0.17703898748E+03 0.  0.
         24    2    3    3    0    0 -0.38526554837E+02 -0.13310111866E+03 -0.22028817968E+02  0.16146152455E+03  0.79902139350E+02 0.  0.
         -6    2    1    2    0  502 -0.39446033069E+01  0.11046663672E+03  0.30662122805E+02  0.20651247376E+03  0.17172302793E+03 0.  0.
        -24    2    5    5    0    0 -0.30074048548E+02  0.12869564882E+02 -0.27972114287E+02  0.89602251371E+02  0.78587850058E+02 0.  0.
          5    1    3    3  501    0  0.42471158144E+02  0.22634481941E+02 -0.13978933765E+02  0.50335073617E+02  0.47000000000E+01 0. -1.
        -13    1    4    4    0    0 -0.93231063018E+01 -0.10844882706E+03  0.12996367700E+02  0.10962195936E+03  0.00000000000E+00 0.  1.
         14    1    4    4    0    0 -0.29203448535E+02 -0.24652291602E+02 -0.35025185669E+02  0.51839565186E+02  0.00000000000E+00 0. -1.
         -5    1    5    5    0  502  0.26129445241E+02  0.97597071836E+02  0.58634237092E+02  0.11691022239E+03  0.47000000000E+01 0.  1.
         13    1    6    6    0    0 -0.13485039364E+02 -0.33345441312E+02 -0.13392379206E+02  0.38381252765E+02  0.00000000000E+00 0. -1.
        -14    1    6    6    0    0 -0.16589009184E+02  0.46215006194E+02 -0.14579735080E+02  0.51220998607E+02  0.00000000000E+00 0.  1.
</event>
<event>
12    1  0.8313893E-002  0.2502150E+03  0.7818608E-02  0.1113453E+00
         21   -1    0    0  501  502  0.00000000000E+00  0.00000000000E+00  0.83951696051E+02  0.83951696051E+02  0.00000000000E+00 0. -1.
         21   -1    0    0  502  503 -0.00000000000E+00 -0.00000000000E+00 -0.74867681565E+03  0.74867681565E+03  0.00000000000E+00 0. -1.
         -6    2    1    2    0  503  0.11022129620E+03  0.13953440930E+03 -0.37489315727E+03  0.44973151396E+03  0.17347901823E+03 0.  0.
        -24    2    3    3    0    0  0.87086963122E+02  0.13835801060E+03 -0.38362097496E+03  0.42453536182E+03  0.79612453572E+02 0.  0.
          6    2    1    2  501    0 -0.11022129620E+03 -0.13953440930E+03 -0.28983196233E+03  0.38289699775E+03  0.17603681143E+03 0.  0.
         24    2    5    5    0    0  0.15352377378E+02 -0.37698771668E+02 -0.98149975093E+02  0.13209165725E+03  0.78472258974E+02 0.  0.
          5    1    5    5  501    0 -0.12557367358E+03 -0.10183563763E+03 -0.19168198724E+03  0.25080534049E+03  0.47000000000E+01 0. -1.
        -13    1    6    6    0    0  0.12355882701E+02  0.51500920269E+01  0.93497217030E+01  0.16328153023E+02  0.00000000000E+00 0.  1.
         14    1    6    6    0    0  0.29964946764E+01 -0.42848863695E+02 -0.10749969680E+03  0.11576350423E+03  0.00000000000E+00 0. -1.
         -5    1    3    3    0  503  0.23134333077E+02  0.11763987034E+01  0.87278176925E+01  0.25196152137E+02  0.47000000000E+01 0.  1.
         11    1    4    4    0    0  0.52402565778E+02  0.94687012610E+02 -0.15389155699E+03  0.18813365082E+03  0.00000000000E+00 0. -1.
        -12    1    4    4    0    0  0.34684397344E+02  0.43670997989E+02 -0.22972941797E+03  0.23640171100E+03  0.00000000000E+00 0.  1.
</event>
<event>
12    1  0.8313893E-002  0.1874507E+03  0.7818608E-02  0.1161106E+00
         21   -1    0    0  501  502  0.00000000000E+00  0.00000000000E+00  0.23422128412E+03  0.23422128412E+03  0.00000000000E+00 0. -1.
         21   -1    0    0  502  503 -0.00000000000E+00 -0.00000000000E+00 -0.15288760595E+03  0.15288760595E+03  0.00000000000E+00 0. -1.
         -6    2    1    2    0  503  0.59980464960E+02 -0.37455901297E+02  0.92356201471E+01  0.18627086522E+03  0.17207828983E+03 0.  0.
        -24    2    3    3    0    0  0.96622521312E+02 -0.45159157647E+02 -0.23946394545E+02  0.13602032740E+03  0.80949604761E+02 0.  0.
          6    2    1    2  501    0 -0.59980464960E+02  0.37455901297E+02  0.72098058023E+02  0.20083802484E+03  0.17360063806E+03 0.  0.
         24    2    5    5    0    0 -0.66020960462E+02 -0.36909630860E+02  0.60658514617E+02  0.12520950435E+03  0.79226741150E+02 0.  0.
          5    1    5    5  501    0  0.60404955028E+01  0.74365532157E+02  0.11439543406E+02  0.75628520495E+02  0.47000000000E+01 0. -1.
        -11    1    6    6    0    0 -0.98820600087E+01  0.22561009994E+02  0.22941605502E+01  0.24736965348E+02  0.00000000000E+00 0.  1.
         12    1    6    6    0    0 -0.56138900454E+02 -0.59470640854E+02  0.58364354067E+02  0.10047253900E+03  0.00000000000E+00 0. -1.
         -5    1    3    3    0  503 -0.36642056352E+02  0.77032563498E+01  0.33182014692E+02  0.50250537820E+02  0.47000000000E+01 0.  1.
         13    1    4    4    0    0  0.10218896642E+03 -0.18801363918E+02 -0.68832005232E+01  0.10413190957E+03  0.00000000000E+00 0. -1.
        -14    1    4    4    0    0 -0.55664451033E+01 -0.26357793730E+02 -0.17063194022E+02  0.31888417828E+02  0.00000000000E+00 0.  1.
</event>
<event>
12    1  0.8313893E-002  0.1905254E+03  0.7818608E-02  0.1158036E+00
         21   -1    0    0  503  502  0.00000000000E+00  0.00000000000E+00  0.20524486450E+03  0.20524486450E+03  0.00000000000E+00 0. -1.
         21   -1    0    0  501  503 -0.00000000000E+00 -0.00000000000E+00 -0.19745308594E+03  0.19745308594E+03  0.00000000000E+00 0. -1.
          6    2    1    2  501    0 -0.42539594782E+02  0.70704422928E+02 -0.61437327303E+02  0.20018610485E+03  0.17173001730E+03 0.  0.
         24    2    3    3    0    0 -0.73366281571E+02  0.48832968642E+02  0.70467529139E+01  0.12182282024E+03  0.83808547936E+02 0.  0.
         -6    2    1    2    0  502  0.42539594782E+02 -0.70704422928E+02  0.69229105862E+02  0.20251184560E+03  0.17149240789E+03 0.  0.
        -24    2    5    5    0    0  0.47192689212E+02  0.11828006117E+02  0.75526765442E+02  0.11947568692E+03  0.78759734782E+02 0.  0.
          5    1    3    3  501    0  0.30826686789E+02  0.21871454286E+02 -0.68484080217E+02  0.78363284606E+02  0.47000000000E+01 0. -1.
        -11    1    4    4    0    0 -0.69683912477E+01  0.33686843656E+00  0.34453590080E+02  0.35152835253E+02  0.00000000000E+00 0.  1.
         12    1    4    4    0    0 -0.66397890324E+02  0.48496100205E+02 -0.27406837166E+02  0.86669984989E+02  0.00000000000E+00 0. -1.
         -5    1    5    5    0  502 -0.46530944299E+01 -0.82532429045E+02 -0.62976595802E+01  0.83036158678E+02  0.47000000000E+01 0.  1.
         11    1    6    6    0    0  0.59795279450E+02 -0.14819584360E+02  0.60679550875E+02  0.86470245863E+02  0.00000000000E+00 0. -1.
        -12    1    6    6    0    0 -0.12602590239E+02  0.26647590477E+02  0.14847214567E+02  0.33005441056E+02  0.00000000000E+00 0.  1.
</event>
<event>
12    1  0.8313893E-002  0.1804307E+03  0.7818608E-02  0.1169062E+00
         21   -1    0    0  503  502  0.00000000000E+00  0.00000000000E+00  0.73468490851E+02  0.73468490851E+02  0.00000000000E+00 0. -1.
         21   -1    0    0  501  503 -0.00000000000E+00 -0.00000000000E+00 -0.57575847937E+03  0.57575847937E+03  0.00000000000E+00 0. -1.
          6    2    1    2  501    0 -0.51155844716E+02  0.64705529445E+01 -0.89503336019E+02  0.20141022528E+03  0.17290587955E+03 0.  0.
         24    2    3    3    0    0 -0.83694477237E+01  0.45594046218E+02 -0.10647664235E+03  0.14081726677E+03  0.79645229293E+02 0.  0.
         -6    2    1    2    0  502  0.51155844716E+02 -0.64705529445E+01 -0.41278665250E+03  0.44781674494E+03  0.16579574200E+03 0.  0.
        -24    2    5    5    0    0  0.33889782636E+02  0.24466554380E+02 -0.10758595581E+03  0.14053059691E+03  0.80168454713E+02 0.  0.
          5    1    3    3  501    0 -0.42786396993E+02 -0.39123493274E+02  0.16973306326E+02  0.60592958512E+02  0.47000000000E+01 0. -1.
        -11    1    4    4    0    0 -0.28054941151E+02 -0.11835982564E+02 -0.45684476824E+02  0.54902109513E+02  0.00000000000E+00 0.  1.
         12    1    4    4    0    0  0.19685493427E+02  0.57430028782E+02 -0.60792165521E+02  0.85915157255E+02  0.00000000000E+00 0. -1.
         -5    1    5    5    0  502  0.17266062081E+02 -0.30937107325E+02 -0.30520069669E+03  0.30728614803E+03  0.47000000000E+01 0.  1.
         11    1    6    6    0    0  0.22936915493E+02  0.43485283781E+02 -0.10790920940E+03  0.11858106709E+03  0.00000000000E+00 0. -1.
        -12    1    6    6    0    0  0.10952867143E+02 -0.19018729401E+02  0.32325359316E+00  0.21949529826E+02  0.00000000000E+00 0.  1.
</event>
<event>
12    1  0.8313893E-002  0.2076028E+03  0.7818608E-02  0.1143694E+00
         21   -1    0    0  503  502  0.00000000000E+00  0.00000000000E+00  0.53087780678E+03  0.53087780678E+03  0.00000000000E+00 0. -1.
         21   -1    0    0  501  503 -0.00000000000E+00 -0.00000000000E+00 -0.82424747454E+02  0.82424747454E+02  0.00000000000E+00 0.  1.
          6    2    1    2  501    0 -0.10741008417E+03 -0.46382096858E+02  0.18016826244E+03  0.27407453011E+03  0.17019994176E+03 0.  0.
         24    2    3    3    0    0  0.10586745492E+02 -0.16956981069E+02  0.42709830312E+02  0.90482591805E+02  0.77222739057E+02 0.  0.
         -6    2    1    2    0  502  0.10741008417E+03  0.46382096858E+02  0.26828479689E+03  0.33922802413E+03  0.17149546646E+03 0.  0.
        -24    2    5    5    0    0  0.21063145913E+02  0.77699588594E+02  0.16736299685E+03  0.20268543458E+03  0.81179618713E+02 0.  0.
          5    1    3    3  501    0 -0.11799682966E+03 -0.29425115790E+02  0.13745843212E+03  0.18359193831E+03  0.47000000000E+01 0. -1.
        -13    1    4    4    0    0 -0.13880324309E+02  0.26050324776E+02  0.99879818915E+01  0.31161556542E+02  0.00000000000E+00 0.  1.
         14    1    4    4    0    0  0.24467069802E+02 -0.43007305844E+02  0.32721848420E+02  0.59321035263E+02  0.00000000000E+00 0. -1.
         -5    1    5    5    0  502  0.86346938256E+02 -0.31317491736E+02  0.10092180004E+03  0.13654258954E+03  0.47000000000E+01 0.  1.
         13    1    6    6    0    0  0.45312690551E+02  0.73057451229E+02  0.10559110653E+03  0.13616208314E+03  0.00000000000E+00 0. -1.
        -14    1    6    6    0    0 -0.24249544639E+02  0.46421373651E+01  0.61771890317E+02  0.66523351448E+02  0.00000000000E+00 0.  1.
</event>
<event>
12    1  0.8313893E-002  0.1924666E+03  0.7818608E-02  0.1156601E+00
         21   -1    0    0  503  502  0.00000000000E+00  0.00000000000E+00  0.66415742026E+03  0.66415742026E+03  0.00000000000E+00 0. -1.
         21   -1    0    0  501  503 -0.00000000000E+00 -0.00000000000E+00 -0.71437540120E+02  0.71437540120E+02  0.00000000000E+00 0. -1.
          6    2    1    2  501    0  0.52976692382E+02 -0.67589681871E+02  0.47009944906E+03  0.50738638041E+03  0.17050675056E+03 0.  0.
         24    2    3    3    0    0 -0.15403671531E+02  0.39849377379E+01  0.13928744169E+03  0.16204962510E+03  0.81276914062E+02 0.  0.
         -6    2    1    2    0  502 -0.52976692382E+02  0.67589681871E+02  0.12262043107E+03  0.22820857996E+03  0.17224543774E+03 0.  0.
        -24    2    5    5    0    0  0.33901540217E+02  0.25620250120E+02  0.81758323117E+02  0.12332263063E+03  0.81965457244E+02 0.  0.
          5    1    3    3  501    0  0.68380363914E+02 -0.71574619608E+02  0.33081200738E+03  0.34533675531E+03  0.47000000000E+01 0. -1.
        -11    1    4    4    0    0 -0.59764169473E+01  0.23372773815E+01 -0.10311294068E+02  0.12145089973E+02  0.00000000000E+00 0.  1.
         12    1    4    4    0    0 -0.94272545840E+01  0.16476603564E+01  0.14959873576E+03  0.14990453513E+03  0.00000000000E+00 0. -1.
         -5    1    5    5    0  502 -0.86878232600E+02  0.41969431751E+02  0.40862107955E+02  0.10488594933E+03  0.47000000000E+01 0.  1.
         13    1    6    6    0    0  0.66896487956E+01  0.21194912743E+02 -0.12234189045E+02  0.25370280029E+02  0.00000000000E+00 0. -1.
        -14    1    6    6    0    0  0.27211891422E+02  0.44253373772E+01  0.93992512162E+02  0.97952350600E+02  0.00000000000E+00 0.  1.
</event>
<event>
12    1  0.8313893E-002  0.2109818E+03  0.7818608E-02  0.1140834E+00
         21   -1    0    0  501  502  0.00000000000E+00  0.00000000000E+00  0.12853150119E+04  0.12853150119E+04  0.00000000000E+00 0.  1.
         21   -1    0    0  502  503 -0.00000000000E+00 -0.00000000000E+00 -0.10013410831E+03  0.10013410831E+03  0.00000000000E+00 0.  1.
         -6    2    1    2    0  503 -0.79266619651E+02 -0.92421596557E+02  0.32064147972E+02  0.21318994476E+03  0.17203747981E+03 0.  0.
        -24    2    3    3    0    0 -0.83364395306E+02 -0.69675690971E+02 -0.38193251751E+02  0.13907948529E+03  0.77974703805E+02 0.  0.
          6    2    1    2  501    0  0.79266619651E+02  0.92421596557E+02  0.11531167557E+04  0.11722591755E+04  0.17230314519E+03 0.  0.
         24    2    5    5    0    0 -0.49946805071E+01  0.92742207386E+02  0.57450255075E+03  0.58752286088E+03  0.80646558398E+02 0.  0.
          5    1    5    5  501    0  0.84261300159E+02 -0.32061082848E+00  0.57861420491E+03  0.58473631461E+03  0.47000000000E+01 0. -1.
        -11    1    6    6    0    0  0.24778703661E+02  0.14240958759E+02  0.63048370721E+02  0.69223450594E+02  0.00000000000E+00 0.  1.
         12    1    6    6    0    0 -0.29773384168E+02  0.78501248627E+02  0.51145418003E+03  0.51829941029E+03  0.00000000000E+00 0. -1.
         -5    1    3    3    0  503  0.40977756550E+01 -0.22745905586E+02  0.70257399723E+02  0.74110459465E+02  0.47000000000E+01 0.  1.
         11    1    4    4    0    0  0.64008535116E+00  0.11837783084E+02  0.68127367000E+01  0.13673192712E+02  0.00000000000E+00 0. -1.
        -12    1    4    4    0    0 -0.84004480658E+02 -0.81513474055E+02 -0.45005988451E+02  0.12540629258E+03  0.00000000000E+00 0.  1.
</event>
<event>
12    1  0.8313893E-002  0.2661837E+03  0.7818608E-02  0.1103658E+00
         21   -1    0    0  503  502  0.00000000000E+00  0.00000000000E+00  0.12179674430E+04  0.12179674430E+04  0.00000000000E+00 0. -1.
         21   -1    0    0  501  503 -0.00000000000E+00 -0.00000000000E+00 -0.57919453484E+02  0.57919453484E+02  0.00000000000E+00 0. -1.
          6    2    1    2  501    0  0.16015545079E+03 -0.12276892342E+03  0.58766584225E+03  0.64513945211E+03  0.17358511902E+03 0.  0.
         24    2    3    3    0    0  0.13179170072E+03 -0.39162145417E+02  0.48021424475E+03  0.50599013860E+03  0.80731490029E+02 0.  0.
         -6    2    1    2    0  502 -0.16015545079E+03  0.12276892342E+03  0.57238214730E+03  0.63074744441E+03  0.17175284308E+03 0.  0.
        -24    2    5    5    0    0 -0.14667832202E+03  0.65373086441E+02  0.52543746053E+03  0.55523712248E+03  0.80097232591E+02 0.  0.
          5    1    3    3  501    0  0.28363750070E+02 -0.83606778001E+02  0.10745159749E+03  0.13914931351E+03  0.47000000000E+01 0. -1.
        -13    1    4    4    0    0  0.71133353495E+02  0.10022821253E+01  0.12895712173E+03  0.14727830048E+03  0.00000000000E+00 0.  1.
         14    1    4    4    0    0  0.60658347227E+02 -0.40164427542E+02  0.35125712303E+03  0.35871183812E+03  0.00000000000E+00 0. -1.
         -5    1    5    5    0  502 -0.13477128773E+02  0.57395836977E+02  0.46944686773E+02  0.75510321933E+02  0.47000000000E+01 0.  1.
         13    1    6    6    0    0 -0.14574758160E+03  0.37138950186E+02  0.45993256875E+03  0.48390043083E+03  0.00000000000E+00 0. -1.
        -14    1    6    6    0    0 -0.93074041809E+00  0.28234136255E+02  0.65504891782E+02  0.71336691648E+02  0.00000000000E+00 0.  1.
</event>
<event>
12    1  0.8313893E-002  0.2258843E+03  0.7818608E-02  0.1129821E+00
         21   -1    0    0  503  502  0.00000000000E+00  0.00000000000E+00  0.55356554784E+03  0.55356554784E+03  0.00000000000E+00 0. -1.
         21   -1    0    0  501  503 -0.00000000000E+00 -0.00000000000E+00 -0.36249557475E+03  0.36249557475E+03  0.00000000000E+00 0.  1.
          6    2    1    2  501    0 -0.46814374942E+02 -0.13862660097E+03 -0.30033710080E+03  0.37580059048E+03  0.17208948106E+03 0.  0.
         24    2    3    3    0    0 -0.36408033738E+02 -0.51287693653E+02 -0.75598576147E+02  0.13441734514E+03  0.91634630558E+02 0.  0.
         -6    2    1    2    0  502  0.46814374942E+02  0.13862660097E+03  0.49140707389E+03  0.54026053210E+03  0.17026922822E+03 0.  0.
        -24    2    5    5    0    0  0.62328817051E+02  0.12369530032E+03  0.49268689773E+03  0.51818408306E+03  0.81172384401E+02 0.  0.
          5    1    3    3  501    0 -0.10406341204E+02 -0.87338907318E+02 -0.22473852465E+03  0.24138324534E+03  0.47000000000E+01 0. -1.
        -11    1    4    4    0    0  0.13052122425E+02 -0.18564789329E+01 -0.61738280562E+02  0.63130180584E+02  0.00000000000E+00 0.  1.
         12    1    4    4    0    0 -0.49460156164E+02 -0.49431214720E+02 -0.13860295585E+02  0.71287164554E+02  0.00000000000E+00 0. -1.
         -5    1    5    5    0  502 -0.15514442109E+02  0.14931300654E+02 -0.12798238386E+01  0.22076449040E+02  0.47000000000E+01 0.  1.
         13    1    6    6    0    0  0.37646765327E+02  0.45528012352E+02  0.33796249704E+03  0.34308705638E+03  0.00000000000E+00 0. -1.
        -14    1    6    6    0    0  0.24682051724E+02  0.78167287965E+02  0.15472440069E+03  0.17509702668E+03  0.00000000000E+00 0.  1.
</event>
<event>
12    1  0.8313893E-002  0.1812923E+03  0.7818608E-02  0.1167620E+00
         21   -1    0    0  501  502  0.00000000000E+00  0.00000000000E+00  0.11796764716E+03  0.11796764716E+03  0.00000000000E+00 0.  1.
         21   -1    0    0  502  503 -0.00000000000E+00 -0.00000000000E+00 -0.27373749582E+03  0.27373749582E+03  0.00000000000E+00 0.  1.
         -6    2    1    2    0  503  0.16082294964E+02  0.55598187571E+02 -0.92836252054E+02  0.19980016517E+03  0.16718773170E+03 0.  0.
        -24    2    3    3    0    0  0.26210860614E+02  0.20389539876E+02 -0.12397494130E+03  0.15148924836E+03  0.80476479462E+02 0.  0.
          6    2    1    2  501    0 -0.16082294964E+02 -0.55598187571E+02 -0.62933596605E+02  0.19190497782E+03  0.17180536737E+03 0.  0.
         24    2    5    5    0    0 -0.72129416249E+01 -0.88990497115E+02  0.55468610855E+00  0.11947180995E+03  0.79384322085E+02 0.  0.
          5    1    5    5  501    0 -0.88693533396E+01  0.33392309543E+02 -0.63488282714E+02  0.72433167867E+02  0.47000000000E+01 0. -1.
        -13    1    6    6    0    0  0.21980932929E+02 -0.19962570939E+01 -0.14604795537E+02  0.26465949964E+02  0.00000000000E+00 0.  1.
         14    1    6    6    0    0 -0.29193874554E+02 -0.86994240021E+02  0.15159481646E+02  0.93005859988E+02  0.00000000000E+00 0. -1.
         -5    1    3    3    0  503 -0.10128565649E+02  0.35208647695E+02  0.31138689250E+02  0.48310916808E+02  0.47000000000E+01 0.  1.
         13    1    4    4    0    0  0.96175630377E+01 -0.11050255697E+02  0.66681804217E+01  0.16095660902E+02  0.00000000000E+00 0. -1.
        -14    1    4    4    0    0  0.16593297576E+02  0.31439795573E+02 -0.13064312172E+03  0.13539358746E+03  0.00000000000E+00 0.  1.
</event>
<event>
12    1  0.8313893E-002  0.2178824E+03  0.7818608E-02  0.1136400E+00
         21   -1    0    0  503  502  0.00000000000E+00  0.00000000000E+00  0.64727272728E+03  0.64727272728E+03  0.00000000000E+00 0.  1.
         21   -1    0    0  501  503 -0.00000000000E+00 -0.00000000000E+00 -0.24324419151E+03  0.24324419151E+03  0.00000000000E+00 0.  1.
          6    2    1    2  501    0 -0.42785381605E+02  0.11896311765E+03 -0.17255340528E+03  0.27414084883E+03  0.17145178647E+03 0.  0.
         24    2    3    3    0    0 -0.36278658551E+02  0.82536395990E+01 -0.32559119066E+02  0.95480791327E+02  0.81683668167E+02 0.  0.
         -6    2    1    2    0  502  0.42785381605E+02 -0.11896311765E+03  0.57658194105E+03  0.61637606995E+03  0.17745397328E+03 0.  0.
        -24    2    5    5    0    0 -0.19928527030E+02 -0.81606117856E+02  0.18864320968E+03  0.22160128724E+03  0.80400032892E+02 0.  0.
          5    1    3    3  501    0 -0.65067230543E+01  0.11070947805E+03 -0.13999428621E+03  0.17866005750E+03  0.47000000000E+01 0. -1.
        -13    1    4    4    0    0  0.10543879519E+02  0.15142075184E+02 -0.43197612059E+02  0.46973285214E+02  0.00000000000E+00 0.  1.
         14    1    4    4    0    0 -0.46822538070E+02 -0.68884355854E+01  0.10638492993E+02  0.48507506113E+02  0.00000000000E+00 0. -1.
         -5    1    5    5    0  502  0.62713908636E+02 -0.37356999790E+02  0.38793873137E+03  0.39477478271E+03  0.47000000000E+01 0.  1.
         13    1    6    6    0    0 -0.44396226778E+02 -0.33320105672E+02  0.13227583911E+03  0.14345086966E+03  0.00000000000E+00 0. -1.
        -14    1    6    6    0    0  0.24467699748E+02 -0.48286012183E+02  0.56367370568E+02  0.78150417582E+02  0.00000000000E+00 0.  1.
</event>
<event>
12    1  0.8313893E-002  0.2018835E+03  0.7818608E-02  0.1149026E+00
         21   -1    0    0  503  502  0.00000000000E+00  0.00000000000E+00  0.37505118369E+03  0.37505118369E+03  0.00000000000E+00 0. -1.
         21   -1    0    0  501  503 -0.00000000000E+00 -0.00000000000E+00 -0.32308585778E+03  0.32308585778E+03  0.00000000000E+00 0. -1.
          6    2    1    2  501    0 -0.96873014555E+02 -0.22580106015E+02 -0.25992398556E+03  0.32661061331E+03  0.17093791949E+03 0.  0.
         24    2    3    3    0    0 -0.81741845473E+02 -0.13181141209E+02 -0.27801796196E+03  0.30078863045E+03  0.79525726947E+02 0.  0.
         -6    2    1    2    0  502  0.96873014555E+02  0.22580106015E+02  0.31188931147E+03  0.37152642816E+03  0.17567783605E+03 0.  0.
        -24    2    5    5    0    0  0.66933969523E+02  0.58382659571E+02  0.30454845787E+03  0.32404856606E+03  0.66098553385E+02 0.  0.
          5    1    3    3  501    0 -0.15131169082E+02 -0.93989648053E+01  0.18093976398E+02  0.25821982865E+02  0.47000000000E+01 0. -1.
        -13    1    4    4    0    0 -0.18190601834E+01  0.16542462546E+01 -0.14416585397E+03  0.14418681965E+03  0.00000000000E+00 0.  1.
         14    1    4    4    0    0 -0.79922785290E+02 -0.14835387464E+02 -0.13385210800E+03  0.15660181080E+03  0.00000000000E+00 0. -1.
         -5    1    5    5    0  502  0.29939045032E+02 -0.35802553556E+02  0.73408536032E+01  0.47477862106E+02  0.47000000000E+01 0.  1.
         13    1    6    6    0    0  0.36140769094E+02 -0.62056331375E+01  0.13781522832E+03  0.14261031601E+03  0.00000000000E+00 0. -1.
        -14    1    6    6    0    0  0.30793200429E+02  0.64588292708E+02  0.16673322954E+03  0.18143825005E+03  0.00000000000E+00 0.  1.
</event>
<event>
12    1  0.8313893E-002  0.2337270E+03  0.7818608E-02  0.1124264E+00
         21   -1    0    0  503  502  0.00000000000E+00  0.00000000000E+00  0.10472088569E+04  0.10472088569E+04  0.00000000000E+00 0.  1.
         21   -1    0    0  501  503 -0.00000000000E+00 -0.00000000000E+00 -0.70450090697E+02  0.70450090697E+02  0.00000000000E+00 0.  1.
          6    2    1    2  501    0 -0.27931370607E+02  0.15413141628E+03  0.20246639154E+03  0.30922634743E+03  0.17346941889E+03 0.  0.
         24    2    3    3    0    0  0.50044135337E+02  0.67258669746E+02  0.91837905875E+02  0.14832946909E+03  0.80865853782E+02 0.  0.
         -6    2    1    2    0  502  0.27931370607E+02 -0.15413141628E+03  0.77429237466E+03  0.80843260016E+03  0.17174962187E+03 0.  0.
        -24    2    5    5    0    0  0.67092108159E+02 -0.15177033090E+03  0.70548255419E+03  0.72908513970E+03  0.79523093159E+02 0.  0.
          5    1    3    3  501    0 -0.77975505944E+02  0.86872746530E+02  0.11062848566E+03  0.16089687833E+03  0.47000000000E+01 0. -1.
        -13    1    4    4    0    0 -0.33428641737E+01  0.62722761331E+02  0.52432230751E+02  0.81819669710E+02  0.00000000000E+00 0.  1.
         14    1    4    4    0    0  0.53386999510E+02  0.45359084151E+01  0.39405675124E+02  0.66509799382E+02  0.00000000000E+00 0. -1.
         -5    1    5    5    0  502 -0.39160737552E+02 -0.23610853781E+01  0.68809820471E+02  0.79347460470E+02  0.47000000000E+01 0.  1.
         11    1    6    6    0    0  0.38701046259E-01 -0.60651930789E+02  0.37258735550E+03  0.37749171605E+03  0.00000000000E+00 0. -1.
        -12    1    6    6    0    0  0.67053407113E+02 -0.91118400109E+02  0.33289519868E+03  0.35159342364E+03  0.00000000000E+00 0.  1.
</event>
<event>
12    1  0.8313893E-002  0.1792566E+03  0.7818608E-02  0.1169907E+00
         21   -1    0    0  501  502  0.00000000000E+00  0.00000000000E+00  0.74957036441E+02  0.74957036441E+02  0.00000000000E+00 0.  1.
         21   -1    0    0  502  503 -0.00000000000E+00 -0.00000000000E+00 -0.82782859245E+03  0.82782859245E+03  0.00000000000E+00 0.  1.
         -6    2    1    2    0  503  0.24832585353E+02 -0.16833767048E+02 -0.69202382594E+03  0.71348328707E+03  0.17105961608E+03 0.  0.
        -24    2    3    3    0    0  0.28735974004E+02  0.45769134834E+02 -0.27401286059E+03  0.29076634049E+03  0.80879212981E+02 0.  0.
          6    2    1    2  501    0 -0.24832585353E+02  0.16833767048E+02 -0.60847730070E+02  0.18930234182E+03  0.17672831509E+03 0.  0.
         24    2    5    5    0    0  0.50960234226E+02  0.15956799500E+02 -0.32836726138E+02  0.10835775020E+03  0.88383180084E+02 0.  0.
          5    1    5    5  501    0 -0.75792819579E+02  0.87696754725E+00 -0.28011003932E+02  0.80944591623E+02  0.47000000000E+01 0. -1.
        -11    1    6    6    0    0 -0.23888441877E+02  0.97104012593E+01 -0.18889206638E+02  0.31964850623E+02  0.00000000000E+00 0.  1.
         12    1    6    6    0    0  0.74848676103E+02  0.62463982412E+01 -0.13947519500E+02  0.76392899575E+02  0.00000000000E+00 0. -1.
         -5    1    3    3    0  503 -0.39033886511E+01 -0.62602901882E+02 -0.41801096536E+03  0.42271694658E+03  0.47000000000E+01 0.  1.
         11    1    4    4    0    0  0.88218960496E+01  0.61305812462E+02 -0.24300058104E+03  0.25076983646E+03  0.00000000000E+00 0. -1.
        -12    1    4    4    0    0  0.19914077954E+02 -0.15536677628E+02 -0.31012279548E+02  0.39996504038E+02  0.00000000000E+00 0.  1.
</event>
<event>
12    1  0.8313893E-002  0.1948180E+03  0.7818608E-02  0.1154648E+00
         21   -1    0    0  503  502  0.00000000000E+00  0.00000000000E+00  0.32700902287E+03  0.32700902287E+03  0.00000000000E+00 0. -1.
         21   -1    0    0  501  503 -0.00000000000E+00 -0.00000000000E+00 -0.20588140000E+03  0.20588140000E+03  0.00000000000E+00 0. -1.
          6    2    1    2  501    0  0.41174864566E+02  0.79535446737E+02 -0.11682618455E+03  0.22535817423E+03  0.17063614077E+03 0.  0.
         24    2    3    3    0    0  0.31599337039E+02 -0.18066257000E+02 -0.25980619308E+02  0.91594240288E+02  0.79935001914E+02 0.  0.
         -6    2    1    2    0  502 -0.41174864566E+02 -0.79535446737E+02  0.23795380742E+03  0.30753224863E+03  0.17301101909E+03 0.  0.
        -24    2    5    5    0    0  0.38151091943E+01 -0.67471619836E+02  0.23902295640E+03  0.26070419360E+03  0.79168985933E+02 0.  0.
          5    1    3    3  501    0  0.95755275271E+01  0.97601703737E+02 -0.90845565241E+02  0.13376393394E+03  0.47000000000E+01 0. -1.
        -13    1    4    4    0    0  0.11806482705E+02  0.28757401763E+02  0.58270495616E+01  0.31628083986E+02  0.00000000000E+00 0.  1.
         14    1    4    4    0    0  0.19792854334E+02 -0.46823658763E+02 -0.31807668870E+02  0.59966156302E+02  0.00000000000E+00 0. -1.
         -5    1    5    5    0  502 -0.44989973760E+02 -0.12063826901E+02 -0.10691489868E+01  0.46828055031E+02  0.47000000000E+01 0.  1.
         11    1    6    6    0    0  0.27157040063E+02  0.28444516209E+01  0.93513931041E+02  0.97418945943E+02  0.00000000000E+00 0. -1.
        -12    1    6    6    0    0 -0.23341930868E+02 -0.70316071457E+02  0.14550902536E+03  0.16328524766E+03  0.00000000000E+00 0.  1.
</event>
<event>
12    1  0.8313893E-002  0.1773148E+03  0.7818608E-02  0.1170526E+00
         21   -1    0    0  501  502  0.00000000000E+00  0.00000000000E+00  0.19915618768E+03  0.19915618768E+03  0.00000000000E+00 0. -1.
         21   -1    0    0  502  503 -0.00000000000E+00 -0.00000000000E+00 -0.26862819614E+03  0.26862819614E+03  0.00000000000E+00 0. -1.
         -6    2    1    2    0  503 -0.35506858300E+02 -0.18366550353E+02 -0.18513891687E+03  0.25607850623E+03  0.17234185695E+03 0.  0.
        -24    2    3    3    0    0  0.27711482595E+02 -0.35615238098E+02 -0.16666442549E+03  0.18783282735E+03  0.73944363230E+02 0.  0.
          6    2    1    2  501    0  0.35506858300E+02  0.18366550353E+02  0.11566690841E+03  0.21170587758E+03  0.17274975469E+03 0.  0.
         24    2    5    5    0    0 -0.57120361495E+01 -0.15990137341E+02 -0.40525121024E+01  0.80426751687E+02  0.78509411433E+02 0.  0.
          5    1    5    5  501    0  0.41218894449E+02  0.34356687695E+02  0.11971942051E+03  0.13127912590E+03  0.47000000000E+01 0. -1.
        -13    1    6    6    0    0 -0.80415524204E+01 -0.46972377431E+02 -0.10248475938E+02  0.48745277371E+02  0.00000000000E+00 0.  1.
         14    1    6    6    0    0  0.23295162709E+01  0.30982240090E+02  0.61959638356E+01  0.31681474317E+02  0.00000000000E+00 0. -1.
         -5    1    3    3    0  503 -0.63218340895E+02  0.17248687745E+02 -0.18474491376E+02  0.68245678881E+02  0.47000000000E+01 0.  1.
         11    1    4    4    0    0 -0.14447342827E+02  0.31023954650E+01 -0.94866186915E+02  0.96010124426E+02  0.00000000000E+00 0. -1.
        -12    1    4    4    0    0  0.42158825422E+02 -0.38717633563E+02 -0.71798238575E+02  0.91822702923E+02  0.00000000000E+00 0.  1.
</event>
<event>
12    1  0.8313893E-002  0.1949703E+03  0.7818608E-02  0.1154769E+00
         21   -1    0    0  501  502  0.00000000000E+00  0.00000000000E+00  0.62435683140E+02  0.62435683140E+02  0.00000000000E+00 0.  1.
         21   -1    0    0  502  503 -0.00000000000E+00 -0.00000000000E+00 -0.60209311743E+03  0.60209311743E+03  0.00000000000E+00 0.  1.
         -6    2    1    2    0  503  0.26192205418E+02 -0.79896492584E+02 -0.29240213399E+03  0.34965008338E+03  0.17229826375E+03 0.  0.
        -24    2    3    3    0    0 -0.30727875435E+02  0.74344619093E+01 -0.15534085427E+03  0.17738727365E+03  0.79598934003E+02 0.  0.
          6    2    1    2  501    0 -0.26192205418E+02  0.79896492584E+02 -0.24725530030E+03  0.31487871720E+03  0.17590890217E+03 0.  0.
         24    2    5    5    0    0  0.23948875923E+02  0.60366321684E+02 -0.22952835092E+03  0.25802899998E+03  0.98377128956E+02 0.  0.
          5    1    5    5  501    0 -0.50141081341E+02  0.19530170900E+02 -0.17726949383E+02  0.56849717219E+02  0.47000000000E+01 0. -1.
        -13    1    6    6    0    0 -0.30563121036E+02  0.11140624118E+02 -0.25970966463E+02  0.41625820980E+02  0.00000000000E+00 0.  1.
         14    1    6    6    0    0  0.54511996959E+02  0.49225697565E+02 -0.20355738446E+03  0.21640317900E+03  0.00000000000E+00 0. -1.
         -5    1    3    3    0  503  0.56920080853E+02 -0.87330954493E+02 -0.13706127972E+03  0.17226280973E+03  0.47000000000E+01 0.  1.
         11    1    4    4    0    0 -0.32742212238E+02  0.40746257018E+02 -0.95553728783E+02  0.10891659657E+03  0.00000000000E+00 0. -1.
        -12    1    4    4    0    0  0.20143368024E+01 -0.33311795108E+02 -0.59787125491E+02  0.68470677086E+02  0.00000000000E+00 0.  1.
</event>
<event>
12    1  0.8313893E-002  0.1785217E+03  0.7818608E-02  0.1172356E+00
         21   -1    0    0  501  502  0.00000000000E+00  0.00000000000E+00  0.36962750362E+03  0.36962750362E+03  0.00000000000E+00 0. -1.
         21   -1    0    0  502  503 -0.00000000000E+00 -0.00000000000E+00 -0.39928886600E+03  0.39928886600E+03  0.00000000000E+00 0. -1.
         -6    2    1    2    0  503  0.15795732577E+02  0.47501373414E+02 -0.35825716064E+03  0.39495753238E+03  0.15854770130E+03 0.  0.
        -24    2    3    3    0    0  0.23783225020E+02  0.48331834728E+02 -0.97838616626E+02  0.13437280956E+03  0.74713111329E+02 0.  0.
          6    2    1    2  501    0 -0.15795732577E+02 -0.47501373414E+02  0.32859579826E+03  0.37395883724E+03  0.17135964423E+03 0.  0.
         24    2    5    5    0    0  0.16649241394E+02 -0.88602721787E+02  0.26728299580E+03  0.29319159809E+03  0.79959200852E+02 0.  0.
          5    1    5    5  501    0 -0.32444973971E+02  0.41101348373E+02  0.61312802461E+02  0.80767239149E+02  0.47000000000E+01 0. -1.
        -13    1    6    6    0    0 -0.97758760188E+01 -0.38810004204E+01 -0.10434414925E+01  0.10569706067E+02  0.00000000000E+00 0.  1.
         14    1    6    6    0    0  0.26425117413E+02 -0.84721721366E+02  0.26832643729E+03  0.28262189202E+03  0.00000000000E+00 0. -1.
         -5    1    3    3    0  503 -0.79874924428E+01 -0.83046131433E+00 -0.26041854401E+03  0.26058472282E+03  0.47000000000E+01 0.  1.
         11    1    4    4    0    0  0.44723420082E+02  0.10219745620E+02 -0.66424798147E+02  0.80727203056E+02  0.00000000000E+00 0. -1.
        -12    1    4    4    0    0 -0.20940195062E+02  0.38112089108E+02 -0.31413818479E+02  0.53645606501E+02  0.00000000000E+00 0.  1.
</event>
<event>
12    1  0.8313893E-002  0.1841530E+03  0.7818608E-02  0.1164455E+00
         21   -1    0    0  501  502  0.00000000000E+00  0.00000000000E+00  0.34055674832E+03  0.34055674832E+03  0.00000000000E+00 0.  1.
         21   -1    0    0  502  503 -0.00000000000E+00 -0.00000000000E+00 -0.17442528129E+03  0.17442528129E+03  0.00000000000E+00 0.  1.
         -6    2    1    2    0  503  0.16215713529E+02 -0.58163596375E+02 -0.87495344308E+02  0.20155122289E+03  0.17123523839E+03 0.  0.
        -24    2    3    3    0    0 -0.24389614278E+01  0.29243800554E+02 -0.12598176646E+02  0.84847642572E+02  0.78608269232E+02 0.  0.
          6    2    1    2  501    0 -0.16215713529E+02  0.58163596375E+02  0.25362681134E+03  0.31343080672E+03  0.17397229049E+03 0.  0.
         24    2    5    5    0    0 -0.31840962697E+02  0.94584339180E+02  0.12434184730E+03  0.17812629517E+03  0.79423157309E+02 0.  0.
          5    1    5    5  501    0  0.15625249167E+02 -0.36420742804E+02  0.12928496405E+03  0.13530451155E+03  0.47000000000E+01 0. -1.
        -11    1    6    6    0    0 -0.43221217699E+02  0.18361773633E+02  0.27710636159E+02  0.54526211556E+02  0.00000000000E+00 0.  1.
         12    1    6    6    0    0  0.11380255003E+02  0.76222565546E+02  0.96631211137E+02  0.12360008361E+03  0.00000000000E+00 0. -1.
         -5    1    3    3    0  503  0.18654674957E+02 -0.87407396929E+02 -0.74897167662E+02  0.11670358032E+03  0.47000000000E+01 0.  1.
         13    1    4    4    0    0 -0.79815526963E+01 -0.53947437057E+01 -0.39489139219E+02  0.40647270011E+02  0.00000000000E+00 0. -1.
        -14    1    4    4    0    0  0.55425912685E+01  0.34638544260E+02  0.26890962574E+02  0.44200372561E+02  0.00000000000E+00 0.  1.
</event>
<event>
12    1  0.8313893E-002  0.1920807E+03  0.7818608E-02  0.1157245E+00
         21   -1    0    0  503  502  0.00000000000E+00  0.00000000000E+00  0.12165571211E+03  0.12165571211E+03  0.00000000000E+00 0. -1.
         21   -1    0    0  501  503 -0.00000000000E+00 -0.00000000000E+00 -0.76892435684E+03  0.76892435684E+03  0.00000000000E+00 0. -1.
          6    2    1    2  501    0 -0.85475912348E+02  0.10705823841E+02 -0.67088680968E+03  0.69705281109E+03  0.16844216749E+03 0.  0.
         24    2    3    3    0    0 -0.63594572089E+02 -0.36848781738E+02 -0.59611306737E+03  0.60565567710E+03  0.77883937982E+02 0.  0.
         -6    2    1    2    0  502  0.85475912348E+02 -0.10705823841E+02  0.23618164957E+02  0.19352725786E+03  0.17168062082E+03 0.  0.
        -24    2    5    5    0    0  0.80925784733E+02  0.50899123176E+02  0.38637196752E+02  0.12978139938E+03  0.78807837658E+02 0.  0.
          5    1    3    3  501    0 -0.21881340258E+02  0.47554605579E+02 -0.74773742314E+02  0.91397133997E+02  0.47000000000E+01 0. -1.
        -13    1    4    4    0    0  0.10127673906E+02 -0.11108238001E+02 -0.24574463017E+02  0.28807411595E+02  0.00000000000E+00 0.  1.
         14    1    4    4    0    0 -0.73722245996E+02 -0.25740543737E+02 -0.57153860435E+03  0.57684826550E+03  0.00000000000E+00 0. -1.
         -5    1    5    5    0  502  0.45501276150E+01 -0.61604947017E+02 -0.15019031795E+02  0.63745858487E+02  0.47000000000E+01 0.  1.
         11    1    6    6    0    0 -0.87163357617E+01 -0.10095103148E+02  0.12435411428E+02  0.18235270057E+02  0.00000000000E+00 0. -1.
        -12    1    6    6    0    0  0.89642120495E+02  0.60994226324E+02  0.26201785324E+02  0.11154612932E+03  0.00000000000E+00 0.  1.
</event>
<event>
12    1  0.8313893E-002  0.2834099E+03  0.7818608E-02  0.1093918E+00
         21   -1    0    0  503  502  0.00000000000E+00  0.00000000000E+00  0.46091935408E+03  0.46091935408E+03  0.00000000000E+00 0.  1.
         21   -1    0    0  501  503 -0.00000000000E+00 -0.00000000000E+00 -0.18228077153E+03  0.18228077153E+03  0.00000000000E+00 0. -1.
          6    2    1    2  501    0  0.13788771661E+03 -0.17598888582E+03  0.70269782857E+02  0.29143494494E+03  0.17323791278E+03 0.  0.
         24    2    3    3    0    0  0.25899486109E+02 -0.10081811228E+03  0.84471237493E+02  0.15573019086E+03  0.79255455577E+02 0.  0.
         -6    2    1    2    0  502 -0.13788771661E+03  0.17598888582E+03  0.20836879969E+03  0.35176518067E+03  0.17417254468E+03 0.  0.
        -24    2    5    5    0    0 -0.12339409742E+01  0.52778193964E+02  0.45081431908E+02  0.10571643862E+03  0.79728097453E+02 0.  0.
          5    1    3    3  501    0  0.11198823050E+03 -0.75170773545E+02 -0.14201454636E+02  0.13570475408E+03  0.47000000000E+01 0. -1.
        -13    1    4    4    0    0 -0.21708056280E+02 -0.90084020377E+01  0.32162727603E+02  0.39835060708E+02  0.00000000000E+00 0.  1.
         14    1    4    4    0    0  0.47607542390E+02 -0.91809710240E+02  0.52308509890E+02  0.11589513015E+03  0.00000000000E+00 0. -1.
         -5    1    5    5    0  502 -0.13665377564E+03  0.12321069186E+03  0.16328736778E+03  0.24604874204E+03  0.47000000000E+01 0.  1.
         13    1    6    6    0    0  0.26861762016E+01  0.30780796044E+02 -0.20067348380E+02  0.36842521883E+02  0.00000000000E+00 0. -1.
        -14    1    6    6    0    0 -0.39201171758E+01  0.21997397920E+02  0.65148780288E+02  0.68873916739E+02  0.00000000000E+00 0.  1.
</event>
<event>
12    1  0.8313893E-002  0.1730871E+03  0.7818608E-02  0.1174869E+00
         21   -1    0    0  503  502  0.00000000000E+00  0.00000000000E+00  0.11432789922E+03  0.11432789922E+03  0.00000000000E+00 0.  1.
         21   -1    0    0  501  503 -0.00000000000E+00 -0.00000000000E+00 -0.26594054542E+03  0.26594054542E+03  0.00000000000E+00 0.  1.
          6    2    1    2  501    0 -0.15351805200E+02  0.20172565232E+01 -0.49313817010E+02  0.17921071288E+03  0.17159510429E+03 0.  0.
         24    2    3    3    0    0 -0.58746138418E+02  0.24029302963E+02 -0.72920581969E+02  0.12492473223E+03  0.79121812840E+02 0.  0.
         -6    2    1    2    0  502  0.15351805200E+02 -0.20172565232E+01 -0.10229882918E+03  0.20105773176E+03  0.17239319535E+03 0.  0.
        -24    2    5    5    0    0 -0.32338958037E+02 -0.29353027765E+02 -0.11191201979E+03  0.14505633248E+03  0.81299636988E+02 0.  0.
          5    1    3    3  501    0  0.43394333218E+02 -0.22012046440E+02  0.23606764958E+02  0.54285980655E+02  0.47000000000E+01 0. -1.
        -13    1    4    4    0    0  0.13657750442E+02  0.12489640056E+02  0.37032241166E+01  0.18874297992E+02  0.00000000000E+00 0.  1.
         14    1    4    4    0    0 -0.72403888859E+02  0.11539662907E+02 -0.76623806085E+02  0.10605043423E+03  0.00000000000E+00 0. -1.
         -5    1    5    5    0  502  0.47690763237E+02  0.27335771241E+02  0.96131906060E+01  0.56001399278E+02  0.47000000000E+01 0.  1.
         13    1    6    6    0    0  0.87045306493E+01 -0.37227210778E+02 -0.17982918490E+02  0.42249490335E+02  0.00000000000E+00 0. -1.
        -14    1    6    6    0    0 -0.41043488686E+02  0.78741830135E+01 -0.93929101300E+02  0.10280684215E+03  0.00000000000E+00 0.  1.
</event>
<event>
12    1  0.8313893E-002  0.2322703E+03  0.7818608E-02  0.1125805E+00
         21   -1    0    0  503  502  0.00000000000E+00  0.00000000000E+00  0.17670388341E+03  0.17670388341E+03  0.00000000000E+00 0. -1.
         21   -1    0    0  501  503 -0.00000000000E+00 -0.00000000000E+00 -0.39928707242E+03  0.39928707242E+03  0.00000000000E+00 0.  1.
          6    2    1    2  501    0 -0.55782691659E+02 -0.14615174793E+03 -0.25434151339E+03  0.34155957465E+03  0.16583514552E+03 0.  0.
         24    2    3    3    0    0 -0.90410238145E+02 -0.15402471131E+03 -0.21160917988E+03  0.28579943786E+03  0.70747797243E+02 0.  0.
         -6    2    1    2    0  502  0.55782691659E+02  0.14615174793E+03  0.31758324385E+02  0.23443138117E+03  0.17168995078E+03 0.  0.
        -24    2    5    5    0    0  0.21923084570E+02  0.79224973178E+02 -0.48178961791E+02  0.12471481044E+03  0.80469581659E+02 0.  0.
          5    1    3    3  501    0  0.34627546486E+02  0.78729633769E+01 -0.42732333518E+02  0.55760136799E+02  0.47000000000E+01 0. -1.
        -13    1    4    4    0    0  0.66075921512E+01 -0.43042440900E+02 -0.62047072352E+02  0.75803371826E+02  0.00000000000E+00 0.  1.
         14    1    4    4    0    0 -0.97017830296E+02 -0.11098227041E+03 -0.14956210752E+03  0.20999606603E+03  0.00000000000E+00 0. -1.
         -5    1    5    5    0  502  0.33859607088E+02  0.66926774755E+02  0.79937286176E+02  0.10971657073E+03  0.47000000000E+01 0.  1.
         11    1    6    6    0    0 -0.17951373141E+02  0.30113598888E+02  0.12341366046E+02  0.37167054652E+02  0.00000000000E+00 0. -1.
        -12    1    6    6    0    0  0.39874457711E+02  0.49111374290E+02 -0.60520327838E+02  0.87547755790E+02  0.00000000000E+00 0.  1.
</event>
<event>
12    1  0.8313893E-002  0.1865572E+03  0.7818608E-02  0.1161716E+00
         21   -1    0    0  503  502  0.00000000000E+00  0.00000000000E+00  0.83980741628E+03  0.83980741628E+03  0.00000000000E+00 0.  1.
         21   -1    0    0  501  503 -0.00000000000E+00 -0.00000000000E+00 -0.45962940573E+02  0.45962940573E+02  0.00000000000E+00 0.  1.
          6    2    1    2  501    0 -0.14950001622E+02 -0.63457911861E+02  0.25684132202E+03  0.31744454738E+03  0.17479464191E+03 0.  0.
         24    2    3    3    0    0  0.13408598338E+01 -0.78332731916E+02  0.77921467441E+02  0.13710859201E+03  0.81173863527E+02 0.  0.
         -6    2    1    2    0  502  0.14950001622E+02  0.63457911861E+02  0.53700315369E+03  0.56832580947E+03  0.17427400699E+03 0.  0.
        -24    2    5    5    0    0  0.69572631068E+02  0.52538324429E+02  0.26354286667E+03  0.28921026420E+03  0.81160999357E+02 0.  0.
          5    1    3    3  501    0 -0.16290861456E+02  0.14874820055E+02  0.17891985458E+03  0.18033595537E+03  0.47000000000E+01 0. -1.
        -11    1    4    4    0    0 -0.30625292263E+02 -0.72674596168E+02  0.64886886250E+02  0.10212645819E+03  0.00000000000E+00 0.  1.
         12    1    4    4    0    0  0.31966152096E+02 -0.56581357487E+01  0.13034581191E+02  0.34982133823E+02  0.00000000000E+00 0. -1.
         -5    1    5    5    0  502 -0.54622629446E+02  0.10919587432E+02  0.27346028702E+03  0.27911554527E+03  0.47000000000E+01 0.  1.
         13    1    6    6    0    0  0.54324578045E+02 -0.84502193572E+01  0.10213546828E+03  0.11599232677E+03  0.00000000000E+00 0. -1.
        -14    1    6    6    0    0  0.15248053024E+02  0.60988543786E+02  0.16140739839E+03  0.17321793744E+03  0.00000000000E+00 0.  1.
</event>
<event>
12    1  0.8313893E-002  0.1802965E+03  0.7818608E-02  0.1168675E+00
         21   -1    0    0  503  502  0.00000000000E+00  0.00000000000E+00  0.46623409156E+02  0.46623409156E+02  0.00000000000E+00 0.  1.
         21   -1    0    0  501  503 -0.00000000000E+00 -0.00000000000E+00 -0.90166762564E+03  0.90166762564E+03  0.00000000000E+00 0.  1.
          6    2    1    2  501    0 -0.71104803213E+01 -0.32092143157E+02 -0.18765967177E+03  0.25698143300E+03  0.17246112581E+03 0.  0.
         24    2    3    3    0    0 -0.52378508780E+02 -0.52211737511E+02 -0.10286542300E+03  0.15866486725E+03  0.95517910011E+02 0.  0.
         -6    2    1    2    0  502  0.71104803213E+01  0.32092143157E+02 -0.66738454471E+03  0.69130960180E+03  0.17727484432E+03 0.  0.
        -24    2    5    5    0    0 -0.10830436322E+02  0.73715628593E+00 -0.64192483459E+03  0.64686527110E+03  0.79052792080E+02 0.  0.
          5    1    3    3  501    0  0.45268028459E+02  0.20119594353E+02 -0.84794248767E+02  0.98316565753E+02  0.47000000000E+01 0. -1.
        -13    1    4    4    0    0 -0.62566273302E+02 -0.57959887434E+02 -0.11409577542E+03  0.14244905432E+03  0.00000000000E+00 0.  1.
         14    1    4    4    0    0  0.10187764522E+02  0.57481499232E+01  0.11230352420E+02  0.16215812930E+02  0.00000000000E+00 0. -1.
         -5    1    5    5    0  502  0.17940916643E+02  0.31354986872E+02 -0.25459710122E+02  0.44444330698E+02  0.47000000000E+01 0.  1.
         11    1    6    6    0    0  0.86067301460E+01 -0.27792041229E+02 -0.10876700367E+03  0.11259100518E+03  0.00000000000E+00 0. -1.
        -12    1    6    6    0    0 -0.19437166468E+02  0.28529197515E+02 -0.53315783092E+03  0.53427426592E+03  0.00000000000E+00 0.  1.
</event>
<event>
12    1  0.8313893E-002  0.1851500E+03  0.7818608E-02  0.1163644E+00
         21   -1    0    0  503  502  0.00000000000E+00  0.00000000000E+00  0.47058904722E+02  0.47058904722E+02  0.00000000000E+00 0.  1.
         21   -1    0    0  501  503 -0.00000000000E+00 -0.00000000000E+00 -0.78206072928E+03  0.78206072928E+03  0.00000000000E+00 0. -1.
          6    2    1    2  501    0 -0.60517861826E+02  0.23029693294E+02 -0.48490320351E+03  0.51794469722E+03  0.17012587761E+03 0.  0.
         24    2    3    3    0    0  0.21054169852E+02  0.10424436586E+02 -0.13974533400E+03  0.16302367258E+03  0.80597844265E+02 0.  0.
         -6    2    1    2    0  502  0.60517861826E+02 -0.23029693294E+02 -0.25009862105E+03  0.31117493679E+03  0.17345818706E+03 0.  0.
        -24    2    5    5    0    0  0.74802391177E+02 -0.72336281824E+02 -0.19733305680E+03  0.23740853371E+03  0.81206780384E+02 0.  0.
          5    1    3    3  501    0 -0.81572031677E+02  0.12605256708E+02 -0.34515786950E+03  0.35492102464E+03  0.47000000000E+01 0. -1.
        -13    1    4    4    0    0  0.30742185498E+02  0.33830180167E+02 -0.42095662513E+02  0.62141836646E+02  0.00000000000E+00 0.  1.
         14    1    4    4    0    0 -0.96880156466E+01 -0.23405743580E+02 -0.97649671491E+02  0.10088183594E+03  0.00000000000E+00 0. -1.
         -5    1    5    5    0  502 -0.14284529351E+02  0.49306588530E+02 -0.52765564259E+02  0.73766403076E+02  0.47000000000E+01 0.  1.
         13    1    6    6    0    0  0.34610644413E+02 -0.22906550043E+02 -0.15609548182E+03  0.16151905828E+03  0.00000000000E+00 0. -1.
        -14    1    6    6    0    0  0.40191746764E+02 -0.49429731781E+02 -0.41237574975E+02  0.75889475434E+02  0.00000000000E+00 0.  1.
</event>
<event>
12    1  0.8313893E-002  0.2008838E+03  0.7818608E-02  0.1149529E+00
         21   -1    0    0  501  502  0.00000000000E+00  0.00000000000E+00  0.78003911673E+03  0.78003911673E+03  0.00000000000E+00 0. -1.
         21   -1    0    0  502  503 -0.00000000000E+00 -0.00000000000E+00 -0.10680241814E+03  0.10680241814E+03  0.00000000000E+00 0.  1.
         -6    2    1    2    0  503 -0.96407083079E+02 -0.20249363633E+02  0.15329261702E+02  0.19894874286E+03  0.17216635451E+03 0.  0.
        -24    2    3    3    0    0 -0.17658803675E+02 -0.26495197959E+02 -0.45492113112E+02  0.99140769282E+02  0.82131181145E+02 0.  0.
          6    2    1    2  501    0  0.96407083079E+02  0.20249363633E+02  0.65790743689E+03  0.68789279201E+03  0.17507122947E+03 0.  0.
         24    2    5    5    0    0  0.12893144631E+03  0.30579727344E+02  0.60736870834E+03  0.62673068199E+03  0.79600014510E+02 0.  0.
          5    1    5    5  501    0 -0.32524363232E+02 -0.10330363711E+02  0.50538728553E+02  0.61162110018E+02  0.47000000000E+01 0. -1.
        -11    1    6    6    0    0  0.96967434566E+02  0.57257245638E+02  0.46112651830E+03  0.47467751308E+03  0.00000000000E+00 0.  1.
         12    1    6    6    0    0  0.31964011745E+02 -0.26677518293E+02  0.14624219004E+03  0.15205316891E+03  0.00000000000E+00 0. -1.
         -5    1    3    3    0  503 -0.78748279404E+02  0.62458343262E+01  0.60821374815E+02  0.99807973578E+02  0.47000000000E+01 0.  1.
         13    1    4    4    0    0  0.23690923954E+02 -0.38230967393E+02 -0.20588838662E+02  0.49464805903E+02  0.00000000000E+00 0. -1.
        -14    1    4    4    0    0 -0.41349727630E+02  0.11735769434E+02 -0.24903274450E+02  0.49675963379E+02  0.00000000000E+00 0.  1.
</event>
<event>
12    1  0.8313893E-002  0.2179705E+03  0.7818608E-02  0.1135418E+00
         21   -1    0    0  503  502  0.00000000000E+00  0.00000000000E+00  0.28686885929E+03  0.28686885929E+03  0.00000000000E+00 0.  1.
         21   -1    0    0  501  503 -0.00000000000E+00 -0.00000000000E+00 -0.20553447937E+03  0.20553447937E+03  0.00000000000E+00 0. -1.
          6    2    1    2  501    0 -0.11412859102E+03 -0.70508691532E+02 -0.67893100913E+02  0.22829939316E+03  0.17179734834E+03 0.  0.
         24    2    3    3    0    0 -0.14308235429E+03 -0.85235813289E+02 -0.67173819742E+02  0.19546928673E+03  0.77189481270E+02 0.  0.
         -6    2    1    2    0  502  0.11412859102E+03  0.70508691532E+02  0.14922748083E+03  0.26410394550E+03  0.17171267316E+03 0.  0.
        -24    2    5    5    0    0 -0.79934174009E+01  0.71343807485E+01  0.59002567675E+02  0.99505302850E+02  0.79405341084E+02 0.  0.
          5    1    3    3  501    0  0.28953763274E+02  0.14727121758E+02 -0.71928117146E+00  0.32830106433E+02  0.47000000000E+01 0. -1.
        -13    1    4    4    0    0 -0.43051487823E+02  0.11295375837E+02 -0.18123284560E+02  0.48056940834E+02  0.00000000000E+00 0.  1.
         14    1    4    4    0    0 -0.10003086647E+03 -0.96531189126E+02 -0.49050535182E+02  0.14741234589E+03  0.00000000000E+00 0. -1.
         -5    1    5    5    0  502  0.12212200842E+03  0.63374310783E+02  0.90224913154E+02  0.16459864265E+03  0.47000000000E+01 0.  1.
         13    1    6    6    0    0  0.12184353565E+02  0.26269158892E+02 -0.53082786064E+01  0.29439853981E+02  0.00000000000E+00 0. -1.
        -14    1    6    6    0    0 -0.20177770966E+02 -0.19134778143E+02  0.64310846282E+02  0.70065448869E+02  0.00000000000E+00 0.  1.
</event>
<event>
12    1  0.8313893E-002  0.2513263E+03  0.7818608E-02  0.1112968E+00
         21   -1    0    0  503  502  0.00000000000E+00  0.00000000000E+00  0.52659327914E+03  0.52659327914E+03  0.00000000000E+00 0.  1.
         21   -1    0    0  501  503 -0.00000000000E+00 -0.00000000000E+00 -0.19030085303E+03  0.19030085303E+03  0.00000000000E+00 0.  1.
          6    2    1    2  501    0  0.12390215017E+03 -0.13014348067E+03 -0.51443909142E+02  0.25653732819E+03  0.17571527137E+03 0.  0.
         24    2    3    3    0    0  0.77650069668E+02 -0.13149844684E+03  0.17091113352E+02  0.17371082162E+03  0.81005978482E+02 0.  0.
         -6    2    1    2    0  502 -0.12390215017E+03  0.13014348067E+03  0.38773633525E+03  0.46035680397E+03  0.17117199803E+03 0.  0.
        -24    2    5    5    0    0  0.37583038354E+01  0.70178867051E+02  0.16955452193E+03  0.20051388975E+03  0.80733424613E+02 0.  0.
          5    1    3    3  501    0  0.46252080497E+02  0.13549661721E+01 -0.68535022495E+02  0.82826506579E+02  0.47000000000E+01 0. -1.
        -11    1    4    4    0    0  0.84281993431E+02 -0.11494465740E+03 -0.81953741988E+01  0.14276866897E+03  0.00000000000E+00 0.  1.
         12    1    4    4    0    0 -0.66319237633E+01 -0.16553789444E+02  0.25286487551E+02  0.30942152647E+02  0.00000000000E+00 0. -1.
         -5    1    5    5    0  502 -0.12766045400E+03  0.59964613618E+02  0.21818181333E+03  0.25984291422E+03  0.47000000000E+01 0.  1.
         11    1    6    6    0    0  0.30756946909E+01  0.16837016633E+02 -0.51279209197E+01  0.17867305333E+02  0.00000000000E+00 0. -1.
        -12    1    6    6    0    0  0.68260914451E+00  0.53341850418E+02  0.17468244285E+03  0.18264658442E+03  0.00000000000E+00 0.  1.
</event>
<event>
12    1  0.8313893E-002  0.1909182E+03  0.7818608E-02  0.1157750E+00
         21   -1    0    0  501  502  0.00000000000E+00  0.00000000000E+00  0.84839571614E+03  0.84839571614E+03  0.00000000000E+00 0. -1.
         21   -1    0    0  502  503 -0.00000000000E+00 -0.00000000000E+00 -0.54555347420E+02  0.54555347420E+02  0.00000000000E+00 0. -1.
         -6    2    1    2    0  503  0.54031454563E+02 -0.62641363600E+02  0.18819653735E+03  0.26808150507E+03  0.17206515677E+03 0.  0.
        -24    2    3    3    0    0 -0.31405185036E+02 -0.57155380680E+02  0.12306175603E+03  0.16040539290E+03  0.79578081699E+02 0.  0.
          6    2    1    2  501    0 -0.54031454563E+02  0.62641363600E+02  0.60564383137E+03  0.63486955849E+03  0.17149800961E+03 0.  0.
         24    2    5    5    0    0 -0.82751248670E+02 -0.67020235015E+01  0.34888432609E+03  0.36732355224E+03  0.79458371245E+02 0.  0.
          5    1    5    5  501    0  0.28719794107E+02  0.69343387102E+02  0.25675950528E+03  0.26754600625E+03  0.47000000000E+01 0. -1.
        -13    1    6    6    0    0 -0.10201036854E+02 -0.32168569943E+02  0.65360777161E+02  0.73558882783E+02  0.00000000000E+00 0.  1.
         14    1    6    6    0    0 -0.72550211816E+02  0.25466546442E+02  0.28352354893E+03  0.29376466945E+03  0.00000000000E+00 0. -1.
         -5    1    3    3    0  503  0.85436639598E+02 -0.54859829200E+01  0.65134781314E+02  0.10767611217E+03  0.47000000000E+01 0.  1.
         11    1    4    4    0    0  0.15621457777E+02 -0.29715522244E+02  0.10183472664E+02  0.35081980001E+02  0.00000000000E+00 0. -1.
        -12    1    4    4    0    0 -0.47026642813E+02 -0.27439858436E+02  0.11287828337E+03  0.12532341290E+03  0.00000000000E+00 0.  1.
</event>
<event>
12    1  0.8313893E-002  0.2750919E+03  0.7818608E-02  0.1098711E+00
         21   -1    0    0  501  502  0.00000000000E+00  0.00000000000E+00  0.22564296038E+04  0.22564296038E+04  0.00000000000E+00 0. -1.
         21   -1    0    0  502  503 -0.00000000000E+00 -0.00000000000E+00 -0.37811504012E+02  0.37811504012E+02  0.00000000000E+00 0.  1.
         -6    2    1    2    0  503  0.16257648927E+03  0.13570532309E+03  0.70774762763E+03  0.75853112836E+03  0.17209218083E+03 0.  0.
        -24    2    3    3    0    0  0.17718730656E+03  0.93627088021E+02  0.65505189209E+03  0.68937200465E+03  0.77326620586E+02 0.  0.
          6    2    1    2  501    0 -0.16257648927E+03 -0.13570532309E+03  0.15108704722E+04  0.15357099795E+04  0.17558048800E+03 0.  0.
         24    2    5    5    0    0 -0.82662700425E+02 -0.41346380873E+02  0.40655418853E+03  0.42448256442E+03  0.79727624030E+02 0.  0.
          5    1    5    5  501    0 -0.79913788843E+02 -0.94358942217E+02  0.11043162837E+04  0.11112274151E+04  0.47000000000E+01 0. -1.
        -13    1    6    6    0    0 -0.40579777450E+02  0.21881766589E+02  0.15563339281E+03  0.16231846169E+03  0.00000000000E+00 0.  1.
         14    1    6    6    0    0 -0.42082922975E+02 -0.63228147462E+02  0.25092079571E+03  0.26216410273E+03  0.00000000000E+00 0. -1.
         -5    1    3    3    0  503 -0.14610817289E+02  0.42078235070E+02  0.52695735539E+02  0.69159123711E+02  0.47000000000E+01 0.  1.
         11    1    4    4    0    0  0.52329288105E+02  0.70184281673E+02  0.28266250640E+03  0.29590924337E+03  0.00000000000E+00 0. -1.
        -12    1    4    4    0    0  0.12485801845E+03  0.23442806348E+02  0.37238938569E+03  0.39346276128E+03  0.00000000000E+00 0.  1.
</event>
<event>
12    1  0.8313893E-002  0.2529334E+03  0.7818608E-02  0.1111848E+00
         21   -1    0    0  503  502  0.00000000000E+00  0.00000000000E+00  0.32170235758E+03  0.32170235758E+03  0.00000000000E+00 0.  1.
         21   -1    0    0  501  503 -0.00000000000E+00 -0.00000000000E+00 -0.20607556127E+03  0.20607556127E+03  0.00000000000E+00 0.  1.
          6    2    1    2  501    0  0.91273786764E+02  0.15908993496E+03  0.25319014112E+01  0.25294603093E+03  0.17416880457E+03 0.  0.
         24    2    3    3    0    0  0.29696580330E+02  0.16458963480E+03  0.23745526476E+02  0.18741659527E+03  0.81175706872E+02 0.  0.
         -6    2    1    2    0  502 -0.91273786764E+02 -0.15908993496E+03  0.11309489490E+03  0.27483188791E+03  0.17059191013E+03 0.  0.
        -24    2    5    5    0    0  0.12013194278E+02 -0.67840060318E+02  0.21712926704E+02  0.10940065087E+03  0.82161186731E+02 0.  0.
          5    1    3    3  501    0  0.61577206434E+02 -0.54996998409E+01 -0.21213625065E+02  0.65529435668E+02  0.47000000000E+01 0. -1.
        -11    1    4    4    0    0  0.35263136887E+02  0.56678201380E+02  0.40488942794E+02  0.78072157799E+02  0.00000000000E+00 0.  1.
         12    1    4    4    0    0 -0.55665565578E+01  0.10791143342E+03 -0.16743416318E+02  0.10934443747E+03  0.00000000000E+00 0. -1.
         -5    1    5    5    0  502 -0.10328698104E+03 -0.91249874643E+02  0.91381968199E+02  0.16543123704E+03  0.47000000000E+01 0.  1.
         11    1    6    6    0    0  0.20415090866E+02 -0.80822448946E+02  0.76658149142E+00  0.83364451872E+02  0.00000000000E+00 0. -1.
        -12    1    6    6    0    0 -0.84018965879E+01  0.12982388628E+02  0.20946345212E+02  0.26036199003E+02  0.00000000000E+00 0.  1.
</event>
<event>
12    1  0.8313893E-002  0.1980710E+03  0.7818608E-02  0.1156055E+00
         21   -1    0    0  503  502  0.00000000000E+00  0.00000000000E+00  0.12563643832E+03  0.12563643832E+03  0.00000000000E+00 0.  1.
         21   -1    0    0  501  503 -0.00000000000E+00 -0.00000000000E+00 -0.40935795280E+03  0.40935795280E+03  0.00000000000E+00 0.  1.
          6    2    1    2  501    0  0.84116656553E+01  0.53414991427E+02 -0.28640495173E+03  0.33690517332E+03  0.16897746005E+03 0.  0.
         24    2    3    3    0    0  0.10460304327E+02  0.10128344176E+03 -0.18098779184E+03  0.22101534177E+03  0.75653466282E+02 0.  0.
         -6    2    1    2    0  502 -0.84116656553E+01 -0.53414991427E+02  0.26834372502E+01  0.19808921780E+03  0.19054715937E+03 0.  0.
        -24    2    5    5    0    0 -0.41378676640E+02  0.24147627227E+02  0.44514489772E+02  0.10388353548E+03  0.80715217672E+02 0.  0.
          5    1    3    3  501    0 -0.20486386716E+01 -0.47868450333E+02 -0.10541715989E+03  0.11588983155E+03  0.47000000000E+01 0. -1.
        -11    1    4    4    0    0 -0.52591175752E+01  0.76285907607E+02 -0.17487164139E+03  0.19085934344E+03  0.00000000000E+00 0.  1.
         12    1    4    4    0    0  0.15719421902E+02  0.24997534153E+02 -0.61161504498E+01  0.30155998326E+02  0.00000000000E+00 0. -1.
         -5    1    5    5    0  502  0.32967010985E+02 -0.77562618654E+02 -0.41831052522E+02  0.94205682317E+02  0.47000000000E+01 0.  1.
         13    1    6    6    0    0  0.13986707030E+02  0.31745497938E+02  0.41311510440E+01  0.34935240400E+02  0.00000000000E+00 0. -1.
        -14    1    6    6    0    0 -0.55365383670E+02 -0.75978707108E+01  0.40383338728E+02  0.68948295085E+02  0.00000000000E+00 0.  1.
</event>
<event>
12    1  0.8313893E-002  0.2028954E+03  0.7818608E-02  0.1147636E+00
         21   -1    0    0  501  502  0.00000000000E+00  0.00000000000E+00  0.11551338214E+03  0.11551338214E+03  0.00000000000E+00 0. -1.
         21   -1    0    0  502  503 -0.00000000000E+00 -0.00000000000E+00 -0.35396047598E+03  0.35396047598E+03  0.00000000000E+00 0.  1.
         -6    2    1    2    0  503 -0.10281011144E+03 -0.28373523058E+02 -0.12509705957E+03  0.23706309447E+03  0.17080591506E+03 0.  0.
        -24    2    3    3    0    0 -0.21838768453E+02 -0.72060766573E+00  0.85133738511E+01  0.78334143003E+02  0.74741617207E+02 0.  0.
          6    2    1    2  501    0  0.10281011144E+03  0.28373523058E+02 -0.11335003428E+03  0.23241076365E+03  0.17260230869E+03 0.  0.
         24    2    5    5    0    0 -0.14649855753E+02  0.20095505691E+02 -0.33913919791E+02  0.90292658715E+02  0.79900955186E+02 0.  0.
          5    1    5    5  501    0  0.11745996720E+03  0.82780173666E+01 -0.79436114491E+02  0.14211810494E+03  0.47000000000E+01 0. -1.
        -13    1    6    6    0    0 -0.92463764720E+01  0.38350531550E+02 -0.51160866759E+02  0.64604125530E+02  0.00000000000E+00 0.  1.
         14    1    6    6    0    0 -0.54034792809E+01 -0.18255025859E+02  0.17246946968E+02  0.25688533184E+02  0.00000000000E+00 0. -1.
         -5    1    3    3    0  503 -0.80971342991E+02 -0.27652915392E+02 -0.13361043342E+03  0.15872895146E+03  0.47000000000E+01 0.  1.
         11    1    4    4    0    0 -0.16544410584E+02 -0.35851064017E+02 -0.60362525757E+01  0.39943117778E+02  0.00000000000E+00 0. -1.
        -12    1    4    4    0    0 -0.52943578694E+01  0.35130456351E+02  0.14549626427E+02  0.38391025225E+02  0.00000000000E+00 0.  1.
</event>
<event>
12    1  0.8313893E-002  0.2015486E+03  0.7818608E-02  0.1148726E+00
         21   -1    0    0  503  502  0.00000000000E+00  0.00000000000E+00  0.26988759216E+03  0.26988759216E+03  0.00000000000E+00 0.  1.
         21   -1    0    0  501  503 -0.00000000000E+00 -0.00000000000E+00 -0.18206092236E+03  0.18206092236E+03  0.00000000000E+00 0.  1.
          6    2    1    2  501    0  0.61456098429E+02 -0.83537785891E+02 -0.51540188193E+02  0.20803416939E+03  0.17281901206E+03 0.  0.
         24    2    3    3    0    0  0.10016791626E+03 -0.96411777124E+02 -0.39358483427E+02  0.16519927215E+03  0.80080378911E+02 0.  0.
         -6    2    1    2    0  502 -0.61456098429E+02  0.83537785891E+02  0.13936685799E+03  0.24391434513E+03  0.17121820274E+03 0.  0.
        -24    2    5    5    0    0 -0.53824905724E+02  0.42800842181E+02  0.16371886941E+03  0.19561481982E+03  0.82050331883E+02 0.  0.
          5    1    3    3  501    0 -0.38711817832E+02  0.12873991233E+02 -0.12181704766E+02  0.42834897235E+02  0.47000000000E+01 0. -1.
        -13    1    4    4    0    0  0.21839850632E+02  0.72397182954E+01  0.11448224550E+02  0.25699308200E+02  0.00000000000E+00 0.  1.
         14    1    4    4    0    0  0.78328065629E+02 -0.10365149542E+03 -0.50806707977E+02  0.13949996395E+03  0.00000000000E+00 0. -1.
         -5    1    5    5    0  502 -0.76311927051E+01  0.40736943709E+02 -0.24352011427E+02  0.48299525313E+02  0.47000000000E+01 0.  1.
         11    1    6    6    0    0 -0.84102535165E+01  0.53189993617E+02  0.12084866165E+03  0.13230384276E+03  0.00000000000E+00 0. -1.
        -12    1    6    6    0    0 -0.45414652208E+02 -0.10389151436E+02  0.42870207760E+02  0.63310977058E+02  0.00000000000E+00 0.  1.
</event>
<event>
12    1  0.8313893E-002  0.1895409E+03  0.7818608E-02  0.1159323E+00
         21   -1    0    0  501  502  0.00000000000E+00  0.00000000000E+00  0.15692007356E+03  0.15692007356E+03  0.00000000000E+00 0.  1.
         21   -1    0    0  502  503 -0.00000000000E+00 -0.00000000000E+00 -0.22675603572E+03  0.22675603572E+03  0.00000000000E+00 0.  1.
         -6    2    1    2    0  503  0.17277150883E+02  0.79309713160E+02 -0.40493978576E+02  0.19381828070E+03  0.17128115217E+03 0.  0.
        -24    2    3    3    0    0  0.45082568094E+02 -0.10202427130E+02 -0.39078577632E+02  0.99958503126E+02  0.79548976436E+02 0.  0.
          6    2    1    2  501    0 -0.17277150883E+02 -0.79309713160E+02 -0.29341983579E+02  0.18985782858E+03  0.16910503401E+03 0.  0.
         24    2    5    5    0    0 -0.47355557716E+02 -0.11101810675E+03 -0.19320736894E+02  0.14477292904E+03  0.77577968741E+02 0.  0.
          5    1    5    5  501    0  0.30078406833E+02  0.31708393592E+02 -0.10021246686E+02  0.45084899544E+02  0.47000000000E+01 0. -1.
        -11    1    6    6    0    0 -0.21641129034E+02 -0.30616975125E+02 -0.43049969103E+02  0.57087980096E+02  0.00000000000E+00 0.  1.
         12    1    6    6    0    0 -0.25714428682E+02 -0.80401131627E+02  0.23729232209E+02  0.87684948940E+02  0.00000000000E+00 0. -1.
         -5    1    3    3    0  503 -0.27805417212E+02  0.89512140291E+02 -0.14154009439E+01  0.93859777570E+02  0.47000000000E+01 0.  1.
         11    1    4    4    0    0  0.56897785827E+02 -0.17261507484E+02 -0.53527734700E+02  0.80003350272E+02  0.00000000000E+00 0. -1.
        -12    1    4    4    0    0 -0.11815217732E+02  0.70590803531E+01  0.14449157067E+02  0.19955152855E+02  0.00000000000E+00 0.  1.
</event>
<event>
12    1  0.8313893E-002  0.1994654E+03  0.7818608E-02  0.1151693E+00
         21   -1    0    0  501  502  0.00000000000E+00  0.00000000000E+00  0.46293142417E+02  0.46293142417E+02  0.00000000000E+00 0.  1.
         21   -1    0    0  502  503 -0.00000000000E+00 -0.00000000000E+00 -0.96949853983E+03  0.96949853983E+03  0.00000000000E+00 0. -1.
         -6    2    1    2    0  503  0.87360005115E+02  0.18400157043E-01 -0.26175821206E+03  0.32492350970E+03  0.17154053383E+03 0.  0.
        -24    2    3    3    0    0 -0.12856700294E+02 -0.22959335380E+02 -0.15426242017E+03  0.17609878176E+03  0.80755562269E+02 0.  0.
          6    2    1    2  501    0 -0.87360005115E+02 -0.18400157043E-01 -0.66144718535E+03  0.69086817254E+03  0.17931726628E+03 0.  0.
         24    2    5    5    0    0 -0.46872785704E+02  0.69943274540E+02 -0.34743868708E+03  0.36658854344E+03  0.81144311005E+02 0.  0.
          5    1    5    5  501    0 -0.40487219412E+02 -0.69961674697E+02 -0.31400849828E+03  0.32427962910E+03  0.47000000000E+01 0. -1.
        -13    1    6    6    0    0  0.21021297227E+02  0.31683779599E+02 -0.13717049566E+03  0.14234290184E+03  0.00000000000E+00 0.  1.
         14    1    6    6    0    0 -0.67894082931E+02  0.38259494941E+02 -0.21026819142E+03  0.22424564159E+03  0.00000000000E+00 0. -1.
         -5    1    3    3    0  503  0.10021670541E+03  0.22977735537E+02 -0.10749579188E+03  0.14882472794E+03  0.47000000000E+01 0.  1.
         13    1    4    4    0    0  0.29563684188E+02  0.84909553057E+01 -0.72633320396E+02  0.78877797741E+02  0.00000000000E+00 0. -1.
        -14    1    4    4    0    0 -0.42420384482E+02 -0.31450290685E+02 -0.81629099777E+02  0.97220984022E+02  0.00000000000E+00 0.  1.
</event>
<event>
12    1  0.8313893E-002  0.1864191E+03  0.7818608E-02  0.1161816E+00
         21   -1    0    0  503  502  0.00000000000E+00  0.00000000000E+00  0.11030379455E+03  0.11030379455E+03  0.00000000000E+00 0.  1.
         21   -1    0    0  501  503 -0.00000000000E+00 -0.00000000000E+00 -0.41026027744E+03  0.41026027744E+03  0.00000000000E+00 0.  1.
          6    2    1    2  501    0 -0.43440439462E+02 -0.54654945347E+02 -0.27588293630E+03  0.33296169590E+03  0.17285213786E+03 0.  0.
         24    2    3    3    0    0 -0.47170572880E+01 -0.85257675558E+02 -0.11700608633E+03  0.16652861361E+03  0.82159801866E+02 0.  0.
         -6    2    1    2    0  502  0.43440439462E+02  0.54654945347E+02 -0.24073546597E+02  0.18760237610E+03  0.17245544653E+03 0.  0.
        -24    2    5    5    0    0  0.11401597331E+02  0.83121741290E+02  0.29162056132E+02  0.11909715531E+03  0.79337800508E+02 0.  0.
          5    1    3    3  501    0 -0.38723382174E+02  0.30602730210E+02 -0.15887684997E+03  0.16643308229E+03  0.47000000000E+01 0. -1.
        -11    1    4    4    0    0 -0.21085400245E+02  0.89153027779E+01 -0.23784825501E+02  0.33012037975E+02  0.00000000000E+00 0.  1.
         12    1    4    4    0    0  0.16368342957E+02 -0.94172978336E+02 -0.93221260826E+02  0.13351657564E+03  0.00000000000E+00 0. -1.
         -5    1    5    5    0  502  0.32038842131E+02 -0.28466795943E+02 -0.53235602729E+02  0.68505220781E+02  0.47000000000E+01 0.  1.
         11    1    6    6    0    0 -0.71034123189E+01  0.93602461771E+02  0.20207702428E+02  0.96022031606E+02  0.00000000000E+00 0. -1.
        -12    1    6    6    0    0  0.18505009650E+02 -0.10480720481E+02  0.89543537032E+01  0.23075123709E+02  0.00000000000E+00 0.  1.
</event>
<event>
12    1  0.8313893E-002  0.2822100E+03  0.7818608E-02  0.1095990E+00
         21   -1    0    0  503  502  0.00000000000E+00  0.00000000000E+00  0.75245009883E+02  0.75245009883E+02  0.00000000000E+00 0. -1.
         21   -1    0    0  501  503 -0.00000000000E+00 -0.00000000000E+00 -0.11062089347E+04  0.11062089347E+04  0.00000000000E+00 0. -1.
          6    2    1    2  501    0  0.42556371898E+02 -0.20552263748E+03 -0.69155982628E+03  0.74692533641E+03  0.18865806513E+03 0.  0.
         24    2    3    3    0    0  0.36818357505E+02 -0.20336314279E+02 -0.30464539046E+03  0.31791278443E+03  0.80564058032E+02 0.  0.
         -6    2    1    2    0  502 -0.42556371898E+02  0.20552263748E+03 -0.33940409850E+03  0.43452860814E+03  0.17195746540E+03 0.  0.
        -24    2    5    5    0    0 -0.38552844144E+01  0.64998724612E+02 -0.23242160792E+03  0.25366377587E+03  0.78011601334E+02 0.  0.
          5    1    3    3  501    0  0.57380143931E+01 -0.18518632320E+03 -0.38691443581E+03  0.42901255197E+03  0.47000000000E+01 0. -1.
        -13    1    4    4    0    0  0.11308193797E+01 -0.10622454344E+02 -0.25874446609E+03  0.25896488956E+03  0.00000000000E+00 0.  1.
         14    1    4    4    0    0  0.35687538125E+02 -0.97138599348E+01 -0.45900924371E+02  0.58947894877E+02  0.00000000000E+00 0. -1.
         -5    1    5    5    0  502 -0.38701087483E+02  0.14052391287E+03 -0.10698249058E+03  0.18086483226E+03  0.47000000000E+01 0.  1.
         13    1    6    6    0    0  0.31966998889E+02  0.10767689020E+02 -0.52904356876E+02  0.62743151987E+02  0.00000000000E+00 0. -1.
        -14    1    6    6    0    0 -0.35822283304E+02  0.54231035592E+02 -0.17951725105E+03  0.19092062389E+03  0.00000000000E+00 0.  1.
</event>
<event>
12    1  0.8313893E-002  0.1775017E+03  0.7818608E-02  0.1170817E+00
         21   -1    0    0  503  502  0.00000000000E+00  0.00000000000E+00  0.10078565522E+03  0.10078565522E+03  0.00000000000E+00 0.  1.
         21   -1    0    0  501  503 -0.00000000000E+00 -0.00000000000E+00 -0.71493230222E+03  0.71493230222E+03  0.00000000000E+00 0.  1.
          6    2    1    2  501    0  0.19976726270E+02 -0.33612822198E+02 -0.61543855628E+03  0.64052438061E+03  0.17314148606E+03 0.  0.
         24    2    3    3    0    0 -0.41629640098E+02 -0.39663501365E+02 -0.49866764847E+03  0.50827654507E+03  0.79808535636E+02 0.  0.
         -6    2    1    2    0  502 -0.19976726270E+02  0.33612822198E+02  0.12919092708E+01  0.17519357683E+03  0.17076951989E+03 0.  0.
        -24    2    5    5    0    0  0.52966067213E+02  0.31371133541E+02  0.97244590778E+00  0.10206445577E+03  0.81404270070E+02 0.  0.
          5    1    3    3  501    0  0.61606366369E+02  0.60506791669E+01 -0.11677090781E+03  0.13224783554E+03  0.47000000000E+01 0. -1.
        -11    1    4    4    0    0 -0.65466906346E+02 -0.32044825017E+02 -0.34887283386E+03  0.35640572504E+03  0.00000000000E+00 0.  1.
         12    1    4    4    0    0  0.23837266248E+02 -0.76186763477E+01 -0.14979481461E+03  0.15187082003E+03  0.00000000000E+00 0. -1.
         -5    1    5    5    0  502 -0.72942793483E+02  0.22416886565E+01  0.31946336300E+00  0.73129121053E+02  0.47000000000E+01 0.  1.
         13    1    6    6    0    0  0.67493197056E+01 -0.76747450531E+01 -0.31697725989E+02  0.33304667255E+02  0.00000000000E+00 0. -1.
        -14    1    6    6    0    0  0.46216747507E+02  0.39045878594E+02  0.32670171896E+02  0.68759788518E+02  0.00000000000E+00 0.  1.
</event>
<event>
12    1  0.8313893E-002  0.1969417E+03  0.7818608E-02  0.1152686E+00
         21   -1    0    0  501  502  0.00000000000E+00  0.00000000000E+00  0.48727767428E+03  0.48727767428E+03  0.00000000000E+00 0. -1.
         21   -1    0    0  502  503 -0.00000000000E+00 -0.00000000000E+00 -0.82071110475E+02  0.82071110475E+02  0.00000000000E+00 0.  1.
         -6    2    1    2    0  503 -0.41738742914E+02 -0.83299989231E+02  0.14641605202E+03  0.24414338928E+03  0.17171873333E+03 0.  0.
        -24    2    3    3    0    0 -0.19602635883E+01  0.15360114582E+01  0.12536497026E+03  0.14799396144E+03  0.78610653802E+02 0.  0.
          6    2    1    2  501    0  0.41738742914E+02  0.83299989231E+02  0.25879051179E+03  0.32520539547E+03  0.17350795194E+03 0.  0.
         24    2    5    5    0    0 -0.28753711372E+02  0.61352770136E+02  0.21549824394E+03  0.23948972017E+03  0.79529205986E+02 0.  0.
          5    1    5    5  501    0  0.70492454286E+02  0.21947219095E+02  0.43292267843E+02  0.85715675300E+02  0.47000000000E+01 0. -1.
        -13    1    6    6    0    0 -0.82942178621E+01 -0.12049675047E+02  0.47368134440E+01  0.15376154275E+02  0.00000000000E+00 0.  1.
         14    1    6    6    0    0 -0.20459493509E+02  0.73402445183E+02  0.21076143050E+03  0.22411356590E+03  0.00000000000E+00 0. -1.
         -5    1    3    3    0  503 -0.39778479326E+02 -0.84836000689E+02  0.21051081760E+02  0.96149427839E+02  0.47000000000E+01 0.  1.
         11    1    4    4    0    0 -0.34202261500E+02 -0.12670382527E+02  0.93979221371E+02  0.10080886536E+03  0.00000000000E+00 0. -1.
        -12    1    4    4    0    0  0.32241997912E+02  0.14206393985E+02  0.31385748887E+02  0.47185096086E+02  0.00000000000E+00 0.  1.
</event>
<event>
12    1  0.8313893E-002  0.2189834E+03  0.7818608E-02  0.1135090E+00
         21   -1    0    0  503  502  0.00000000000E+00  0.00000000000E+00  0.43973094222E+03  0.43973094222E+03  0.00000000000E+00 0. -1.
         21   -1    0    0  501  503 -0.00000000000E+00 -0.00000000000E+00 -0.11169859307E+03  0.11169859307E+03  0.00000000000E+00 0. -1.
          6    2    1    2  501    0  0.75951271959E+02  0.11012153589E+03  0.21416135311E+03  0.30460912816E+03  0.17037102867E+03 0.  0.
         24    2    3    3    0    0  0.31714274216E+02  0.24433352937E+02  0.25396607151E+02  0.92586497324E+02  0.79526649038E+02 0.  0.
         -6    2    1    2    0  502 -0.75951271959E+02 -0.11012153589E+03  0.11387099604E+03  0.24682040713E+03  0.17337347334E+03 0.  0.
        -24    2    5    5    0    0 -0.73203287053E+02 -0.75137145033E+02  0.14804285273E+03  0.19761405779E+03  0.78296345977E+02 0.  0.
          5    1    3    3  501    0  0.44236997742E+02  0.85688182956E+02  0.18876474596E+03  0.21202263083E+03  0.47000000000E+01 0. -1.
        -11    1    4    4    0    0  0.14646929581E+01  0.43939326947E+02  0.34002556739E+02  0.55578625773E+02  0.00000000000E+00 0.  1.
         12    1    4    4    0    0  0.30249581258E+02 -0.19505974010E+02 -0.86059495884E+01  0.37007871551E+02  0.00000000000E+00 0. -1.
         -5    1    5    5    0  502 -0.27479849055E+01 -0.34984390860E+02 -0.34171856694E+02  0.49206349335E+02  0.47000000000E+01 0.  1.
         13    1    6    6    0    0 -0.30943062148E+02 -0.16521392578E+02  0.25569025584E+01  0.35170545325E+02  0.00000000000E+00 0. -1.
        -14    1    6    6    0    0 -0.42260224906E+02 -0.58615752455E+02  0.14548595017E+03  0.16244351247E+03  0.00000000000E+00 0.  1.
</event>
<event>
12    1  0.8313893E-002  0.2306042E+03  0.7818608E-02  0.1128788E+00
         21   -1    0    0  503  502  0.00000000000E+00  0.00000000000E+00  0.78676958374E+02  0.78676958374E+02  0.00000000000E+00 0. -1.
         21   -1    0    0  501  503 -0.00000000000E+00 -0.00000000000E+00 -0.10995112793E+04  0.10995112793E+04  0.00000000000E+00 0. -1.
          6    2    1    2  501    0 -0.14998212618E+03 -0.31249691822E+02 -0.90256087015E+03  0.93155484687E+03  0.17235755564E+03 0.  0.
         24    2    3    3    0    0 -0.27185812991E+02 -0.35704871451E+02 -0.55930052953E+03  0.56693376328E+03  0.81135093121E+02 0.  0.
         -6    2    1    2    0  502  0.14998212618E+03  0.31249691822E+02 -0.11827345079E+03  0.24663339082E+03  0.15286673573E+03 0.  0.
        -24    2    5    5    0    0  0.10521293572E+03 -0.34168491795E+02 -0.63764086234E+02  0.15031527214E+03  0.79319446988E+02 0.  0.
          5    1    3    3  501    0 -0.12279631319E+03  0.44551796285E+01 -0.34326034062E+03  0.36462108359E+03  0.47000000000E+01 0. -1.
        -13    1    4    4    0    0 -0.10303522651E+02 -0.30793167070E+02 -0.68376295878E+02  0.75694778917E+02  0.00000000000E+00 0.  1.
         14    1    4    4    0    0 -0.16882290340E+02 -0.49117043807E+01 -0.49092423366E+03  0.49123898436E+03  0.00000000000E+00 0. -1.
         -5    1    5    5    0  502  0.44769190463E+02  0.65418183618E+02 -0.54509364559E+02  0.96318118686E+02  0.47000000000E+01 0.  1.
         13    1    6    6    0    0  0.57283047172E+02 -0.33655747726E+02  0.48518676376E+01  0.66615294549E+02  0.00000000000E+00 0. -1.
        -14    1    6    6    0    0  0.47929888546E+02 -0.51274406931E+00 -0.68615953872E+02  0.83699977588E+02  0.00000000000E+00 0.  1.
</event>
<event>
12    1  0.8313893E-002  0.1721860E+03  0.7818608E-02  0.1175812E+00
         21   -1    0    0  503  502  0.00000000000E+00  0.00000000000E+00  0.74578662236E+02  0.74578662236E+02  0.00000000000E+00 0. -1.
         21   -1    0    0  501  503 -0.00000000000E+00 -0.00000000000E+00 -0.40047325865E+03  0.40047325865E+03  0.00000000000E+00 0. -1.
          6    2    1    2  501    0  0.87512461596E+01  0.16971447326E+01 -0.13695690684E+03  0.22001181064E+03  0.17195504611E+03 0.  0.
         24    2    3    3    0    0  0.58438149404E+02 -0.39716925453E+02 -0.68010566936E+02  0.12535663990E+03  0.78079436976E+02 0.  0.
         -6    2    1    2    0  502 -0.87512461596E+01 -0.16971447326E+01 -0.18893768958E+03  0.25504011024E+03  0.17108051520E+03 0.  0.
        -24    2    5    5    0    0 -0.41047873381E+02  0.41062089382E+02 -0.17254120046E+03  0.19880525373E+03  0.79887670898E+02 0.  0.
          5    1    3    3  501    0 -0.49686903244E+02  0.41414070185E+02 -0.68946339899E+02  0.94655170745E+02  0.47000000000E+01 0. -1.
        -11    1    4    4    0    0 -0.15576361829E+02 -0.25886856013E+01 -0.30723906822E+02  0.34543925536E+02  0.00000000000E+00 0.  1.
         12    1    4    4    0    0  0.74014511233E+02 -0.37128239851E+02 -0.37286660114E+02  0.90812714363E+02  0.00000000000E+00 0. -1.
         -5    1    5    5    0  502  0.32296627221E+02 -0.42759234114E+02 -0.16396489126E+02  0.56234856518E+02  0.47000000000E+01 0.  1.
         11    1    6    6    0    0 -0.26232064619E+02  0.97283294857E+01 -0.58941548139E+01  0.28592003598E+02  0.00000000000E+00 0. -1.
        -12    1    6    6    0    0 -0.14815808761E+02  0.31333759896E+02 -0.16664704564E+03  0.17021325013E+03  0.00000000000E+00 0.  1.
</event>
<event>
12    1  0.8313893E-002  0.2101748E+03  0.7818608E-02  0.1141445E+00
         21   -1    0    0  503  502  0.00000000000E+00  0.00000000000E+00  0.25089551485E+03  0.25089551485E+03  0.00000000000E+00 0.  1.
         21   -1    0    0  501  503 -0.00000000000E+00 -0.00000000000E+00 -0.19297708553E+03  0.19297708553E+03  0.00000000000E+00 0. -1.
          6    2    1    2  501    0 -0.11533905807E+03  0.38325178806E+02 -0.36883944718E+02  0.21338670564E+03  0.17146878176E+03 0.  0.
         24    2    3    3    0    0 -0.63191362600E+02 -0.41428199524E+02  0.32270498022E+01  0.10989291172E+03  0.79728252042E+02 0.  0.
         -6    2    1    2    0  502  0.11533905807E+03 -0.38325178806E+02  0.94802374046E+02  0.23048589474E+03  0.17136026348E+03 0.  0.
        -24    2    5    5    0    0  0.83692045396E+02 -0.83494980409E+02  0.10086198050E+03  0.17480238534E+03  0.80043516885E+02 0.  0.
          5    1    3    3  501    0 -0.52147695471E+02  0.79753378330E+02 -0.40110994520E+02  0.10349379392E+03  0.47000000000E+01 0. -1.
        -13    1    4    4    0    0 -0.81863622601E+02 -0.27403335918E+02  0.75258499577E-01  0.86328449474E+02  0.00000000000E+00 0.  1.
         14    1    4    4    0    0  0.18672260001E+02 -0.14024863606E+02  0.31517913026E+01  0.23564462250E+02  0.00000000000E+00 0. -1.
         -5    1    5    5    0  502  0.31647012675E+02  0.45169801602E+02 -0.60596064551E+01  0.55683509394E+02  0.47000000000E+01 0.  1.
         13    1    6    6    0    0  0.39971811449E+02 -0.49904768579E+02  0.48963966576E+01  0.64126487021E+02  0.00000000000E+00 0. -1.
        -14    1    6    6    0    0  0.43720233947E+02 -0.33590211830E+02  0.95965583844E+02  0.11067589832E+03  0.00000000000E+00 0.  1.
</event>
<event>
12    1  0.8313893E-002  0.1982187E+03  0.7818608E-02  0.1151392E+00
         21   -1    0    0  503  502  0.00000000000E+00  0.00000000000E+00  0.12213577906E+03  0.12213577906E+03  0.00000000000E+00 0.  1.
         21   -1    0    0  501  503 -0.00000000000E+00 -0.00000000000E+00 -0.32063085870E+03  0.32063085870E+03  0.00000000000E+00 0.  1.
          6    2    1    2  501    0 -0.55973203025E+01  0.98348693497E+02 -0.98667269720E+02  0.22141789681E+03  0.17200831202E+03 0.  0.
         24    2    3    3    0    0  0.26111563333E+02  0.65798950993E+02 -0.41268520193E+00  0.11306203671E+03  0.88156327875E+02 0.  0.
         -6    2    1    2    0  502  0.55973203025E+01 -0.98348693497E+02 -0.99827809928E+02  0.22134874095E+03  0.17124800139E+03 0.  0.
        -24    2    5    5    0    0 -0.19354355744E+02 -0.86012445211E+02 -0.13397123761E+03  0.17704712910E+03  0.74997743949E+02 0.  0.
          5    1    3    3  501    0 -0.31708883635E+02  0.32549742504E+02 -0.98254584518E+02  0.10835586010E+03  0.47000000000E+01 0. -1.
        -11    1    4    4    0    0 -0.20149045413E+02  0.33869855100E+02  0.29650110498E+02  0.49318152521E+02  0.00000000000E+00 0.  1.
         12    1    4    4    0    0  0.46260608746E+02  0.31929095894E+02 -0.30062795700E+02  0.63743884188E+02  0.00000000000E+00 0. -1.
         -5    1    5    5    0  502  0.24951676047E+02 -0.12336248286E+02  0.34143427682E+02  0.44301611857E+02  0.47000000000E+01 0.  1.
         11    1    6    6    0    0  0.11213733002E+02  0.99680162379E+01 -0.16492421550E+02  0.22295944118E+02  0.00000000000E+00 0. -1.
        -12    1    6    6    0    0 -0.30568088746E+02 -0.95980461449E+02 -0.11747881606E+03  0.15475118498E+03  0.00000000000E+00 0.  1.
</event>
<event>
12    1  0.8313893E-002  0.2461712E+03  0.7818608E-02  0.1115840E+00
         21   -1    0    0  503  502  0.00000000000E+00  0.00000000000E+00  0.34581161851E+03  0.34581161851E+03  0.00000000000E+00 0.  1.
         21   -1    0    0  501  503 -0.00000000000E+00 -0.00000000000E+00 -0.28257819612E+03  0.28257819612E+03  0.00000000000E+00 0. -1.
          6    2    1    2  501    0 -0.84238322756E+02  0.15404673775E+03 -0.16241390937E+03  0.29444825434E+03  0.17174109611E+03 0.  0.
         24    2    3    3    0    0 -0.32435603339E+02  0.10291725240E+03 -0.20125052617E+02  0.13455468109E+03  0.77819761332E+02 0.  0.
         -6    2    1    2    0  502  0.84238322756E+02 -0.15404673775E+03  0.22564733176E+03  0.33394156030E+03  0.17255073147E+03 0.  0.
        -24    2    5    5    0    0 -0.46638500179E+01 -0.19922609089E+02  0.51316020361E+02  0.96651917990E+02  0.79306982388E+02 0.  0.
          5    1    3    3  501    0 -0.51802719418E+02  0.51129485350E+02 -0.14228885675E+03  0.15989357325E+03  0.47000000000E+01 0. -1.
        -11    1    4    4    0    0 -0.36652634963E+02  0.10454947365E+03  0.31614284466E+01  0.11083322029E+03  0.00000000000E+00 0.  1.
         12    1    4    4    0    0  0.42170316242E+01 -0.16322212493E+01 -0.23286481064E+02  0.23721460795E+02  0.00000000000E+00 0. -1.
         -5    1    5    5    0  502  0.88902172774E+02 -0.13412412866E+03  0.17433131140E+03  0.23728964231E+03  0.47000000000E+01 0.  1.
         13    1    6    6    0    0 -0.11339789742E+02  0.27791842784E+02  0.62067411883E+01  0.30651280445E+02  0.00000000000E+00 0. -1.
        -14    1    6    6    0    0  0.66759397243E+01 -0.47714451874E+02  0.45109279173E+02  0.66000637545E+02  0.00000000000E+00 0.  1.
</event>
<event>
12    1  0.8313893E-002  0.1867392E+03  0.7818608E-02  0.1161936E+00
         21   -1    0    0  503  502  0.00000000000E+00  0.00000000000E+00  0.83307421055E+02  0.83307421055E+02  0.00000000000E+00 0.  1.
         21   -1    0    0  501  503 -0.00000000000E+00 -0.00000000000E+00 -0.42006888191E+03  0.42006888191E+03  0.00000000000E+00 0.  1.
          6    2    1    2  501    0  0.73159239944E+01 -0.66356956217E+02 -0.13852956975E+03  0.23251229575E+03  0.17439827293E+03 0.  0.
         24    2    3    3    0    0 -0.12079230452E+02  0.31526449859E+02 -0.73465614250E+02  0.11329509269E+03  0.79364706904E+02 0.  0.
         -6    2    1    2    0  502 -0.73159239944E+01  0.66356956217E+02 -0.19823189110E+03  0.27086400721E+03  0.17208910299E+03 0.  0.
        -24    2    5    5    0    0  0.22200339582E+02  0.54492393690E+02 -0.21340340105E+03  0.23530782106E+03  0.79790243923E+02 0.  0.
          5    1    3    3  501    0  0.19395154447E+02 -0.97883406076E+02 -0.65063955498E+02  0.11921720306E+03  0.47000000000E+01 0. -1.
        -11    1    4    4    0    0  0.22599863224E+02 -0.13617044497E+01  0.32868825229E+01  0.22878191657E+02  0.00000000000E+00 0.  1.
         12    1    4    4    0    0 -0.34679093676E+02  0.32888154309E+02 -0.76752496773E+02  0.90416901036E+02  0.00000000000E+00 0. -1.
         -5    1    5    5    0  502 -0.29516263576E+02  0.11864562527E+02  0.15171509943E+02  0.35556186148E+02  0.47000000000E+01 0.  1.
         13    1    6    6    0    0  0.41741633038E+02  0.25438757216E+02 -0.57263226724E+02  0.75289915874E+02  0.00000000000E+00 0. -1.
        -14    1    6    6    0    0 -0.19541293457E+02  0.29053636474E+02 -0.15614017432E+03  0.16001790519E+03  0.00000000000E+00 0.  1.
</event>
<event>
12    1  0.8313893E-002  0.2612716E+03  0.7818608E-02  0.1107455E+00
         21   -1    0    0  503  502  0.00000000000E+00  0.00000000000E+00  0.18897307196E+03  0.18897307196E+03  0.00000000000E+00 0. -1.
         21   -1    0    0  501  503 -0.00000000000E+00 -0.00000000000E+00 -0.35952323677E+03  0.35952323677E+03  0.00000000000E+00 0. -1.
          6    2    1    2  501    0  0.68050947882E+02  0.17394260802E+03 -0.12739015023E+03  0.29067351074E+03  0.18269065953E+03 0.  0.
         24    2    3    3    0    0 -0.13825582527E+02  0.21301565589E+02 -0.18136248071E+02  0.85828302834E+02  0.79954178405E+02 0.  0.
         -6    2    1    2    0  502 -0.68050947882E+02 -0.17394260802E+03 -0.43160014579E+02  0.25782279799E+03  0.17240314937E+03 0.  0.
        -24    2    5    5    0    0 -0.82360565872E+02 -0.76662296889E+02  0.16078066420E+02  0.14293387624E+03  0.86667284380E+02 0.  0.
          5    1    3    3  501    0  0.81876530409E+02  0.15264104243E+03 -0.10925390216E+03  0.20484520791E+03  0.47000000000E+01 0. -1.
        -11    1    4    4    0    0 -0.94755598674E+01 -0.15629275925E+02 -0.39084999194E+02  0.43147394623E+02  0.00000000000E+00 0.  1.
         12    1    4    4    0    0 -0.43500226600E+01  0.36930841514E+02  0.20948751123E+02  0.42680908211E+02  0.00000000000E+00 0. -1.
         -5    1    5    5    0  502  0.14309617990E+02 -0.97280311129E+02 -0.59238080999E+02  0.11488892175E+03  0.47000000000E+01 0.  1.
         11    1    6    6    0    0  0.22432406824E+01 -0.53887910616E+02  0.11822221148E+02  0.55215069974E+02  0.00000000000E+00 0. -1.
        -12    1    6    6    0    0 -0.84603806555E+02 -0.22774386273E+02  0.42558452722E+01  0.87718806265E+02  0.00000000000E+00 0.  1.
</event>
<event>
12    1  0.8313893E-002  0.1975275E+03  0.7818608E-02  0.1151921E+00
         21   -1    0    0  501  502  0.00000000000E+00  0.00000000000E+00  0.62595188629E+02  0.62595188629E+02  0.00000000000E+00 0. -1.
         21   -1    0    0  502  503 -0.00000000000E+00 -0.00000000000E+00 -0.10555609927E+04  0.10555609927E+04  0.00000000000E+00 0.  1.
         -6    2    1    2    0  503  0.93617654671E+02  0.26662803438E+02 -0.85445024085E+03  0.87690180537E+03  0.17145376002E+03 0.  0.
        -24    2    3    3    0    0  0.10582506563E+03 -0.28745642523E+02 -0.50895033963E+03  0.52674271509E+03  0.80013643888E+02 0.  0.
          6    2    1    2  501    0 -0.93617654671E+02 -0.26662803438E+02 -0.13851556318E+03  0.24125437591E+03  0.17187769576E+03 0.  0.
         24    2    5    5    0    0 -0.44689262682E+02  0.50974023921E+01 -0.24755564078E+01  0.93160920085E+02  0.81545784326E+02 0.  0.
          5    1    5    5  501    0 -0.48928391989E+02 -0.31760205830E+02 -0.13604000677E+03  0.14809345583E+03  0.47000000000E+01 0. -1.
        -11    1    6    6    0    0  0.13752547665E+02  0.11982959060E+02 -0.24311970890E+02  0.30394009338E+02  0.00000000000E+00 0.  1.
         12    1    6    6    0    0 -0.58441810347E+02 -0.68855566675E+01  0.21836414482E+02  0.62766910747E+02  0.00000000000E+00 0. -1.
         -5    1    3    3    0  503 -0.12207410962E+02  0.55408445960E+02 -0.34549990122E+03  0.35015909028E+03  0.47000000000E+01 0.  1.
         11    1    4    4    0    0  0.11708535113E+03 -0.16919607419E+02 -0.46631535560E+03  0.48108758395E+03  0.00000000000E+00 0. -1.
        -12    1    4    4    0    0 -0.11260285498E+02 -0.11826035104E+02 -0.42634984033E+02  0.45655131138E+02  0.00000000000E+00 0.  1.
</event>
<event>
12    1  0.8313893E-002  0.2704037E+03  0.7818608E-02  0.1101107E+00
         21   -1    0    0  501  502  0.00000000000E+00  0.00000000000E+00  0.38140091091E+03  0.38140091091E+03  0.00000000000E+00 0.  1.
         21   -1    0    0  502  503 -0.00000000000E+00 -0.00000000000E+00 -0.19835808146E+03  0.19835808146E+03  0.00000000000E+00 0.  1.
         -6    2    1    2    0  503  0.91175868958E+01  0.20815251232E+03  0.14567243890E+03  0.30678516521E+03  0.17171511105E+03 0.  0.
        -24    2    3    3    0    0  0.15994686299E+02  0.89220360460E+02  0.71109072003E+01  0.12399145824E+03  0.84304294107E+02 0.  0.
          6    2    1    2  501    0 -0.91175868958E+01 -0.20815251232E+03  0.37370390550E+02  0.27297382716E+03  0.17235882759E+03 0.  0.
         24    2    5    5    0    0 -0.74615983798E+02 -0.13000219556E+03  0.20884019872E+02  0.16957458913E+03  0.76493680158E+02 0.  0.
          5    1    5    5  501    0  0.65498396902E+02 -0.78150316753E+02  0.16486370677E+02  0.10339923802E+03  0.47000000000E+01 0. -1.
        -13    1    6    6    0    0  0.68278823626E+01 -0.13142382121E+01 -0.11908040719E+02  0.13789439198E+02  0.00000000000E+00 0.  1.
         14    1    6    6    0    0 -0.81443866160E+02 -0.12868795735E+03  0.32792060591E+02  0.15578514994E+03  0.00000000000E+00 0. -1.
         -5    1    3    3    0  503 -0.68770994034E+01  0.11893215186E+03  0.13856153170E+03  0.18279370697E+03  0.47000000000E+01 0.  1.
         11    1    4    4    0    0 -0.64198724470E+01 -0.79690928812E+01  0.20930235757E+02  0.23297982154E+02  0.00000000000E+00 0. -1.
        -12    1    4    4    0    0  0.22414558746E+02  0.97189453341E+02 -0.13819328557E+02  0.10069347609E+03  0.00000000000E+00 0.  1.
</event>
<event>
12    1  0.8313893E-002  0.2034069E+03  0.7818608E-02  0.1147934E+00
         21   -1    0    0  501  502  0.00000000000E+00  0.00000000000E+00  0.30076133727E+03  0.30076133727E+03  0.00000000000E+00 0. -1.
         21   -1    0    0  502  503 -0.00000000000E+00 -0.00000000000E+00 -0.20032975101E+03  0.20032975101E+03  0.00000000000E+00 0. -1.
         -6    2    1    2    0  503  0.15992658401E+02 -0.98339528180E+02 -0.93281371591E+02  0.22377621016E+03  0.17733569867E+03 0.  0.
        -24    2    3    3    0    0 -0.39354534388E+02 -0.73172148932E+02 -0.10902923934E+03  0.16079372001E+03  0.84049405752E+02 0.  0.
          6    2    1    2  501    0 -0.15992658401E+02  0.98339528180E+02  0.19371295785E+03  0.27731487811E+03  0.17161702614E+03 0.  0.
         24    2    5    5    0    0  0.51322475897E+02  0.26069534133E+02  0.98940060719E+02  0.14035403928E+03  0.81218862242E+02 0.  0.
          5    1    5    5  501    0 -0.67315134297E+02  0.72269994047E+02  0.94772897127E+02  0.13696083884E+03  0.47000000000E+01 0. -1.
        -11    1    6    6    0    0  0.27380457938E+02 -0.33501742022E+01 -0.64647814133E+01  0.28332076218E+02  0.00000000000E+00 0.  1.
         12    1    6    6    0    0  0.23942017959E+02  0.29419708335E+02  0.10540484213E+03  0.11202196306E+03  0.00000000000E+00 0. -1.
         -5    1    3    3    0  503  0.55347192788E+02 -0.25167379248E+02  0.15747867746E+02  0.62982490157E+02  0.47000000000E+01 0.  1.
         13    1    4    4    0    0 -0.23469066332E+02 -0.25707177297E+02 -0.10495359338E+03  0.11057537159E+03  0.00000000000E+00 0. -1.
        -14    1    4    4    0    0 -0.15885468056E+02 -0.47464971635E+02 -0.40756459561E+01  0.50218348416E+02  0.00000000000E+00 0.  1.
</event>
<event>
12    1  0.8313893E-002  0.2447924E+03  0.7818608E-02  0.1116722E+00
         21   -1    0    0  503  502  0.00000000000E+00  0.00000000000E+00  0.26489122881E+04  0.26489122881E+04  0.00000000000E+00 0.  1.
         21   -1    0    0  501  503 -0.00000000000E+00 -0.00000000000E+00 -0.23308477388E+02  0.23308477388E+02  0.00000000000E+00 0. -1.
          6    2    1    2  501    0 -0.11677921455E+03  0.12807855773E+03  0.10772314595E+04  0.11046949546E+04  0.17286359799E+03 0.  0.
         24    2    3    3    0    0 -0.10444728430E+03  0.18745821170E+02  0.50067996580E+03  0.51772013516E+03  0.78058114159E+02 0.  0.
         -6    2    1    2    0  502  0.11677921455E+03 -0.12807855773E+03  0.15483723513E+04  0.15675258110E+04  0.17215901909E+03 0.  0.
        -24    2    5    5    0    0  0.84980626998E+02 -0.14964020040E+02  0.10088668856E+04  0.10153534771E+04  0.75396695218E+02 0.  0.
          5    1    3    3  501    0 -0.12331930254E+02  0.10933273656E+03  0.57655149366E+03  0.58697481941E+03  0.47000000000E+01 0. -1.
        -13    1    4    4    0    0 -0.49291865949E+02  0.35494833097E+01  0.39009362962E+03  0.39321155470E+03  0.00000000000E+00 0.  1.
         14    1    4    4    0    0 -0.55155418352E+02  0.15196337860E+02  0.11058633619E+03  0.12450858046E+03  0.00000000000E+00 0. -1.
         -5    1    5    5    0  502  0.31798587557E+02 -0.11311453769E+03  0.53950546565E+03  0.55217233386E+03  0.47000000000E+01 0.  1.
         11    1    6    6    0    0  0.20276576639E+02 -0.38585716569E+02  0.48990141278E+03  0.49183675272E+03  0.00000000000E+00 0. -1.
        -12    1    6    6    0    0  0.64704050358E+02  0.23621696529E+02  0.51896547287E+03  0.52351672438E+03  0.00000000000E+00 0.  1.
</event>
<event>
12    1  0.8313893E-002  0.2171277E+03  0.7818608E-02  0.1136185E+00
         21   -1    0    0  503  502  0.00000000000E+00  0.00000000000E+00  0.57478352197E+02  0.57478352197E+02  0.00000000000E+00 0.  1.
         21   -1    0    0  501  503 -0.00000000000E+00 -0.00000000000E+00 -0.15691262780E+04  0.15691262780E+04  0.00000000000E+00 0.  1.
          6    2    1    2  501    0  0.11812397529E+03  0.56024725670E+02 -0.13194366665E+04  0.13371826914E+04  0.17335625106E+03 0.  0.
         24    2    3    3    0    0  0.12869215241E+02  0.49236312847E+02 -0.36352572536E+03  0.37545899693E+03  0.78921949889E+02 0.  0.
         -6    2    1    2    0  502 -0.11812397529E+03 -0.56024725670E+02 -0.19221125933E+03  0.28942193885E+03  0.17241765295E+03 0.  0.
        -24    2    5    5    0    0 -0.28694013170E+02 -0.62563940272E+02 -0.16495534314E+03  0.19558455600E+03  0.79406928546E+02 0.  0.
          5    1    3    3  501    0  0.10525476005E+03  0.67884128230E+01 -0.95591094113E+03  0.96172369443E+03  0.47000000000E+01 0. -1.
        -13    1    4    4    0    0  0.45955938292E+02  0.24677019093E+02 -0.22279926135E+03  0.22882398124E+03  0.00000000000E+00 0.  1.
         14    1    4    4    0    0 -0.33086723051E+02  0.24559293754E+02 -0.14072646401E+03  0.14663501568E+03  0.00000000000E+00 0. -1.
         -5    1    5    5    0  502 -0.89429962120E+02  0.65392146020E+01 -0.27255916186E+02  0.93837382847E+02  0.47000000000E+01 0.  1.
         13    1    6    6    0    0  0.99560472495E+01 -0.62616672323E+02 -0.78677273372E+02  0.10104495967E+03  0.00000000000E+00 0. -1.
        -14    1    6    6    0    0 -0.38650060420E+02  0.52732051055E-01 -0.86278069772E+02  0.94539596333E+02  0.00000000000E+00 0.  1.
</event>
<event>
12    1  0.8313893E-002  0.2470924E+03  0.7818608E-02  0.1115572E+00
         21   -1    0    0  501  502  0.00000000000E+00  0.00000000000E+00  0.64542092370E+02  0.64542092370E+02  0.00000000000E+00 0.  1.
         21   -1    0    0  502  503 -0.00000000000E+00 -0.00000000000E+00 -0.98756307700E+03  0.98756307700E+03  0.00000000000E+00 0. -1.
         -6    2    1    2    0  503  0.10460141123E+03 -0.14368308845E+03 -0.34375065914E+03  0.42334283071E+03  0.17166348337E+03 0.  0.
        -24    2    3    3    0    0  0.77867294219E+02 -0.43511863225E+02 -0.27121527662E+03  0.29672348349E+03  0.80811519179E+02 0.  0.
          6    2    1    2  501    0 -0.10460141123E+03  0.14368308845E+03 -0.57927032550E+03  0.62876233866E+03  0.16793356835E+03 0.  0.
         24    2    5    5    0    0 -0.26404864473E+02  0.67290417932E+02 -0.14275854317E+03  0.17874548771E+03  0.79653816694E+02 0.  0.
          5    1    5    5  501    0 -0.78196546756E+02  0.76392670515E+02 -0.43651178232E+03  0.45001685095E+03  0.47000000000E+01 0. -1.
        -13    1    6    6    0    0  0.97418602031E+01  0.70921665858E+01  0.65753191732E+01  0.13727253524E+02  0.00000000000E+00 0.  1.
         14    1    6    6    0    0 -0.36146724677E+02  0.60198251347E+02 -0.14933386235E+03  0.16501823418E+03  0.00000000000E+00 0. -1.
         -5    1    3    3    0  503  0.26734117011E+02 -0.10017122522E+03 -0.72535382519E+02  0.12661934723E+03  0.47000000000E+01 0.  1.
         11    1    4    4    0    0 -0.21804628823E+00  0.19276659586E+02 -0.58410816996E+02  0.61509842230E+02  0.00000000000E+00 0. -1.
        -12    1    4    4    0    0  0.78085340507E+02 -0.62788522811E+02 -0.21280445962E+03  0.23521364126E+03  0.00000000000E+00 0.  1.
</event>
<event>
12    1  0.8313893E-002  0.1800495E+03  0.7818608E-02  0.1168282E+00
         21   -1    0    0  503  502  0.00000000000E+00  0.00000000000E+00  0.26403618760E+04  0.26403618760E+04  0.00000000000E+00 0.  1.
         21   -1    0    0  501  503 -0.00000000000E+00 -0.00000000000E+00 -0.16364969079E+02  0.16364969079E+02  0.00000000000E+00 0.  1.
          6    2    1    2  501    0  0.49245470584E+02  0.53116307922E+00  0.64219351540E+03  0.66695602127E+03  0.17318321101E+03 0.  0.
         24    2    3    3    0    0 -0.11465052552E+02  0.55182150951E+02  0.37706715640E+03  0.38949147519E+03  0.79670895523E+02 0.  0.
         -6    2    1    2    0  502 -0.49245470584E+02 -0.53116307922E+00  0.19818033915E+04  0.19897708238E+04  0.17093229696E+03 0.  0.
        -24    2    5    5    0    0 -0.99080629694E+01  0.59993963518E+02  0.89205385654E+03  0.89762300343E+03  0.79180350708E+02 0.  0.
          5    1    3    3  501    0  0.60710523137E+02 -0.54650987872E+02  0.26512635900E+03  0.27746454608E+03  0.47000000000E+01 0. -1.
        -11    1    4    4    0    0  0.87637945280E+00  0.67311937317E+02  0.18901445320E+03  0.20064428341E+03  0.00000000000E+00 0.  1.
         12    1    4    4    0    0 -0.12341432005E+02 -0.12129786366E+02  0.18805270320E+03  0.18884719177E+03  0.00000000000E+00 0. -1.
         -5    1    5    5    0  502 -0.39337407615E+02 -0.60525126597E+02  0.10897495349E+04  0.10921478203E+04  0.47000000000E+01 0.  1.
         13    1    6    6    0    0  0.19988410546E+02  0.23537025718E+02  0.11298257433E+03  0.11712638575E+03  0.00000000000E+00 0. -1.
        -14    1    6    6    0    0 -0.29896473515E+02  0.36456937800E+02  0.77907128221E+03  0.78049661768E+03  0.00000000000E+00 0.  1.
</event>
<event>
12    1  0.8313893E-002  0.2177962E+03  0.7818608E-02  0.1135788E+00
         21   -1    0    0  501  502  0.00000000000E+00  0.00000000000E+00  0.10485911249E+04  0.10485911249E+04  0.00000000000E+00 0. -1.
         21   -1    0    0  502  503 -0.00000000000E+00 -0.00000000000E+00 -0.45090724591E+02  0.45090724591E+02  0.00000000000E+00 0. -1.
         -6    2    1    2    0  503  0.52344850486E+02 -0.11964625044E+03  0.47409005186E+03  0.52172459657E+03  0.17429850481E+03 0.  0.
        -24    2    3    3    0    0  0.10009517373E+03 -0.10190230319E+03  0.39475687726E+03  0.42732764945E+03  0.79829848061E+02 0.  0.
          6    2    1    2  501    0 -0.52344850486E+02  0.11964625044E+03  0.52941034848E+03  0.57195725295E+03  0.17264001132E+03 0.  0.
         24    2    5    5    0    0 -0.19530370548E+02 -0.89055590057E+01  0.15701716412E+03  0.17660787384E+03  0.77943613718E+02 0.  0.
          5    1    5    5  501    0 -0.32814479938E+02  0.12855180944E+03  0.37239318436E+03  0.39534937911E+03  0.47000000000E+01 0. -1.
        -11    1    6    6    0    0 -0.10021133940E+02  0.91653403242E+01 -0.41125168739E+01  0.14189410972E+02  0.00000000000E+00 0.  1.
         12    1    6    6    0    0 -0.95092366078E+01 -0.18070899330E+02  0.16112968099E+03  0.16241846287E+03  0.00000000000E+00 0. -1.
         -5    1    3    3    0  503 -0.47750323244E+02 -0.17743947249E+02  0.79333174604E+02  0.94396947126E+02  0.47000000000E+01 0.  1.
         11    1    4    4    0    0  0.39696108706E+02 -0.22640713673E+02  0.46917682517E+02  0.65495434152E+02  0.00000000000E+00 0. -1.
        -12    1    4    4    0    0  0.60399065025E+02 -0.79261589515E+02  0.34783919474E+03  0.36183221530E+03  0.00000000000E+00 0.  1.
</event>
<event>
12    1  0.8313893E-002  0.1950918E+03  0.7818608E-02  0.1154293E+00
         21   -1    0    0  503  502  0.00000000000E+00  0.00000000000E+00  0.14627961680E+03  0.14627961680E+03  0.00000000000E+00 0.  1.
         21   -1    0    0  501  503 -0.00000000000E+00 -0.00000000000E+00 -0.52547858901E+03  0.52547858901E+03  0.00000000000E+00 0.  1.
          6    2    1    2  501    0 -0.88725341228E+02  0.33442386715E+01 -0.42881508461E+03  0.47045604071E+03  0.17193934786E+03 0.  0.
         24    2    3    3    0    0 -0.35707360316E+01 -0.25532520116E+02 -0.30960649776E+03  0.32106410263E+03  0.81001943206E+02 0.  0.
         -6    2    1    2    0  502  0.88725341228E+02 -0.33442386715E+01  0.49616112402E+02  0.20130216511E+03  0.17371653047E+03 0.  0.
        -24    2    5    5    0    0  0.10280377559E+03  0.45636125834E+02  0.12861874249E+02  0.13829230522E+03  0.79423306508E+02 0.  0.
          5    1    3    3  501    0 -0.85154605196E+02  0.28876758788E+02 -0.11920858685E+03  0.14939193808E+03  0.47000000000E+01 0. -1.
        -13    1    4    4    0    0  0.37625434944E+02 -0.10370201593E+02 -0.18138524965E+03  0.18553658191E+03  0.00000000000E+00 0.  1.
         14    1    4    4    0    0 -0.41196170976E+02 -0.15162318523E+02 -0.12822124812E+03  0.13552752073E+03  0.00000000000E+00 0. -1.
         -5    1    5    5    0  502 -0.14078434360E+02 -0.48980364506E+02  0.36754238153E+02  0.63009859890E+02  0.47000000000E+01 0.  1.
         13    1    6    6    0    0 -0.32673439211E+01 -0.59662933887E+01 -0.15540342883E+02  0.16963916117E+02  0.00000000000E+00 0. -1.
        -14    1    6    6    0    0  0.10607111951E+03  0.51602419223E+02  0.28402217132E+02  0.12132838910E+03  0.00000000000E+00 0.  1.
</event>
<event>
12    1  0.8313893E-002  0.2024119E+03  0.7818608E-02  0.1147806E+00
         21   -1    0    0  503  502  0.00000000000E+00  0.00000000000E+00  0.11759092192E+03  0.11759092192E+03  0.00000000000E+00 0. -1.
         21   -1    0    0  501  503 -0.00000000000E+00 -0.00000000000E+00 -0.37079487537E+03  0.37079487537E+03  0.00000000000E+00 0. -1.
          6    2    1    2  501    0  0.91599691285E+02  0.51774509890E+02 -0.18741732558E+03  0.27555145262E+03  0.17243040855E+03 0.  0.
         24    2    3    3    0    0  0.60177422384E+02  0.73343002532E+02 -0.50829297532E+02  0.13366791494E+03  0.79265224472E+02 0.  0.
         -6    2    1    2    0  502 -0.91599691285E+02 -0.51774509890E+02 -0.65786627860E+02  0.21283434468E+03  0.17291464527E+03 0.  0.
        -24    2    5    5    0    0 -0.37806867661E+02  0.34489362666E+02 -0.53737924804E+02  0.11035320091E+03  0.81677346981E+02 0.  0.
          5    1    3    3  501    0  0.31422268901E+02 -0.21568492641E+02 -0.13658802805E+03  0.14188353768E+03  0.47000000000E+01 0. -1.
        -13    1    4    4    0    0  0.14286440884E+02  0.87648263376E+01  0.20904358097E+02  0.26793968749E+02  0.00000000000E+00 0.  1.
         14    1    4    4    0    0  0.45890981500E+02  0.64578176194E+02 -0.71733655629E+02  0.10687394619E+03  0.00000000000E+00 0. -1.
         -5    1    5    5    0  502 -0.53792823624E+02 -0.86263872556E+02 -0.12048703056E+02  0.10248114376E+03  0.47000000000E+01 0.  1.
         13    1    6    6    0    0 -0.20087494496E+02 -0.23114230257E+02 -0.36549469651E+02  0.47682688759E+02  0.00000000000E+00 0. -1.
        -14    1    6    6    0    0 -0.17719373165E+02  0.57603592923E+02 -0.17188455153E+02  0.62670512153E+02  0.00000000000E+00 0.  1.
</event>
<event>
12    1  0.8313893E-002  0.1917117E+03  0.7818608E-02  0.1157142E+00
         21   -1    0    0  503  502  0.00000000000E+00  0.00000000000E+00  0.35350327245E+03  0.35350327245E+03  0.00000000000E+00 0.  1.
         21   -1    0    0  501  503 -0.00000000000E+00 -0.00000000000E+00 -0.11535848821E+03  0.11535848821E+03  0.00000000000E+00 0. -1.
          6    2    1    2  501    0  0.69349492975E+02  0.43383775197E+02  0.43475173694E+02  0.19564092323E+03  0.17231882077E+03 0.  0.
         24    2    3    3    0    0 -0.13200331830E+02  0.58315199885E+02 -0.50965565720E+01  0.98590812469E+02  0.78225712629E+02 0.  0.
         -6    2    1    2    0  502 -0.69349492975E+02 -0.43383775197E+02  0.19466961055E+03  0.27322083742E+03  0.17338357651E+03 0.  0.
        -24    2    5    5    0    0 -0.98588006181E+01 -0.33490180375E+02  0.21688619896E+02  0.89968173530E+02  0.80031792958E+02 0.  0.
          5    1    3    3  501    0  0.82549824805E+02 -0.14931424688E+02  0.48571730266E+02  0.97050110765E+02  0.47000000000E+01 0. -1.
        -13    1    4    4    0    0 -0.60982788929E+01  0.40279512921E+01  0.31760746723E+02  0.32590772152E+02  0.00000000000E+00 0.  1.
         14    1    4    4    0    0 -0.71020529374E+01  0.54287248593E+02 -0.36857303295E+02  0.66000040317E+02  0.00000000000E+00 0. -1.
         -5    1    5    5    0  502 -0.59490692357E+02 -0.98935948212E+01  0.17298099066E+03  0.18325266389E+03  0.47000000000E+01 0.  1.
         11    1    6    6    0    0  0.32659107646E+02 -0.58721127255E+00  0.20403653427E+01  0.32728049439E+02  0.00000000000E+00 0. -1.
        -12    1    6    6    0    0 -0.42517908264E+02 -0.32902969103E+02  0.19648254553E+02  0.57240124091E+02  0.00000000000E+00 0.  1.
</event>
<event>
12    1  0.8313893E-002  0.1962080E+03  0.7818608E-02  0.1152989E+00
         21   -1    0    0  503  502  0.00000000000E+00  0.00000000000E+00  0.20580966349E+03  0.20580966349E+03  0.00000000000E+00 0. -1.
         21   -1    0    0  501  503 -0.00000000000E+00 -0.00000000000E+00 -0.19922966252E+03  0.19922966252E+03  0.00000000000E+00 0. -1.
          6    2    1    2  501    0 -0.93111035327E+02  0.69320319780E+01 -0.46871235173E+02  0.20168099359E+03  0.17251258656E+03 0.  0.
         24    2    3    3    0    0 -0.50870564146E+02 -0.84442700467E+01  0.40064312603E+02  0.10369850772E+03  0.80555020738E+02 0.  0.
         -6    2    1    2    0  502  0.93111035327E+02 -0.69320319780E+01  0.53451236151E+02  0.20335833242E+03  0.17256841760E+03 0.  0.
        -24    2    5    5    0    0  0.70724654128E+02 -0.43657414954E+02  0.90026986902E+02  0.14670341771E+03  0.80678918031E+02 0.  0.
          5    1    3    3  501    0 -0.42240471181E+02  0.15376302025E+02 -0.86935547776E+02  0.97982485867E+02  0.47000000000E+01 0. -1.
        -11    1    4    4    0    0 -0.32514554700E+02  0.32776351879E+02  0.35708204926E+02  0.58365755446E+02  0.00000000000E+00 0.  1.
         12    1    4    4    0    0 -0.18356009446E+02 -0.41220621925E+02  0.43561076776E+01  0.45332752275E+02  0.00000000000E+00 0. -1.
         -5    1    5    5    0  502  0.22386381199E+02  0.36725382976E+02 -0.36575750751E+02  0.56654914711E+02  0.47000000000E+01 0.  1.
         11    1    6    6    0    0  0.37755414958E+02 -0.64815102388E+02  0.70465635901E+02  0.10291683390E+03  0.00000000000E+00 0. -1.
        -12    1    6    6    0    0  0.32969239170E+02  0.21157687434E+02  0.19561351001E+02  0.43786583813E+02  0.00000000000E+00 0.  1.
</event>
<event>
12    1  0.8313893E-002  0.2880157E+03  0.7818608E-02  0.1091414E+00
         21   -1    0    0  501  502  0.00000000000E+00  0.00000000000E+00  0.16187202827E+03  0.16187202827E+03  0.00000000000E+00 0.  1.
         21   -1    0    0  502  503 -0.00000000000E+00 -0.00000000000E+00 -0.51253166952E+03  0.51253166952E+03  0.00000000000E+00 0.  1.
         -6    2    1    2    0  503  0.91562567141E+02 -0.21210144040E+03 -0.16595649728E+03  0.33240728997E+03  0.17199512410E+03 0.  0.
        -24    2    3    3    0    0  0.67866178001E+02 -0.74685776244E+02 -0.21353431845E+02  0.13146769669E+03  0.81510753475E+02 0.  0.
          6    2    1    2  501    0 -0.91562567141E+02  0.21210144040E+03 -0.18470314398E+03  0.34199640782E+03  0.17168449798E+03 0.  0.
         24    2    5    5    0    0 -0.10082168089E+03  0.13399130366E+03 -0.18657687712E+03  0.26317683204E+03  0.79576586102E+02 0.  0.
          5    1    5    5  501    0  0.92591137536E+01  0.78110136748E+02  0.18737331403E+01  0.78819575781E+02  0.47000000000E+01 0. -1.
        -11    1    6    6    0    0 -0.47009535232E+02  0.11899640976E+03 -0.11230832196E+03  0.17024453330E+03  0.00000000000E+00 0.  1.
         12    1    6    6    0    0 -0.53812145663E+02  0.14994893896E+02 -0.74268555157E+02  0.92932298739E+02  0.00000000000E+00 0. -1.
         -5    1    3    3    0  503  0.23696389140E+02 -0.13741566416E+03 -0.14460306543E+03  0.20093959328E+03  0.47000000000E+01 0.  1.
         13    1    4    4    0    0  0.83532672112E+02 -0.56893480445E+02 -0.23665194596E+01  0.10109488534E+03  0.00000000000E+00 0. -1.
        -14    1    4    4    0    0 -0.15666494111E+02 -0.17792295799E+02 -0.18986912385E+02  0.30372811352E+02  0.00000000000E+00 0.  1.
</event>
<event>
12    1  0.8313893E-002  0.2103400E+03  0.7818608E-02  0.1141817E+00
         21   -1    0    0  501  502  0.00000000000E+00  0.00000000000E+00  0.39107097948E+02  0.39107097948E+02  0.00000000000E+00 0.  1.
         21   -1    0    0  502  503 -0.00000000000E+00 -0.00000000000E+00 -0.20340376808E+04  0.20340376808E+04  0.00000000000E+00 0.  1.
         -6    2    1    2    0  503  0.80583683052E+02  0.84304022288E+02 -0.16899225106E+04  0.17026412896E+04  0.17189639630E+03 0.  0.
        -24    2    3    3    0    0  0.21890898085E+01 -0.11525851143E+02 -0.79214031616E+03  0.79634992611E+03  0.80927664982E+02 0.  0.
          6    2    1    2  501    0 -0.80583683052E+02 -0.84304022288E+02 -0.30500807222E+03  0.37050348912E+03  0.17504860234E+03 0.  0.
         24    2    5    5    0    0 -0.10869364117E+03 -0.10735403218E+03 -0.23417677542E+03  0.29074989793E+03  0.79734215621E+02 0.  0.
          5    1    5    5  501    0  0.28109958121E+02  0.23050009897E+02 -0.70831296796E+02  0.79753591190E+02  0.47000000000E+01 0. -1.
        -11    1    6    6    0    0 -0.38547176743E+02 -0.56734747067E+02 -0.16915961450E+03  0.18253682241E+03  0.00000000000E+00 0.  1.
         12    1    6    6    0    0 -0.70146464430E+02 -0.50619285118E+02 -0.65017160924E+02  0.10821307552E+03  0.00000000000E+00 0. -1.
         -5    1    3    3    0  503  0.78394593243E+02  0.95829873431E+02 -0.89778219447E+03  0.90629136353E+03  0.47000000000E+01 0.  1.
         13    1    4    4    0    0 -0.13552079357E+02 -0.10684707846E+02 -0.76319843532E+03  0.76339352467E+03  0.00000000000E+00 0. -1.
        -14    1    4    4    0    0  0.15741169166E+02 -0.84114329682E+00 -0.28941880846E+02  0.32956401437E+02  0.00000000000E+00 0.  1.
</event>
<event>
12    1  0.8313893E-002  0.1781778E+03  0.7818608E-02  0.1170441E+00
         21   -1    0    0  503  502  0.00000000000E+00  0.00000000000E+00  0.11879627127E+03  0.11879627127E+03  0.00000000000E+00 0.  1.
         21   -1    0    0  501  503 -0.00000000000E+00 -0.00000000000E+00 -0.26457251914E+03  0.26457251914E+03  0.00000000000E+00 0.  1.
          6    2    1    2  501    0  0.29188885597E+02  0.14234781791E+02 -0.54870196923E+02  0.18643516439E+03  0.17519335591E+03 0.  0.
         24    2    3    3    0    0  0.62954775563E+02  0.62652780803E+02 -0.33792284133E+02  0.12357972420E+03  0.79002247168E+02 0.  0.
         -6    2    1    2    0  502 -0.29188885597E+02 -0.14234781791E+02 -0.90906050942E+02  0.19693362602E+03  0.17165174891E+03 0.  0.
        -24    2    5    5    0    0 -0.81810705331E+02 -0.22006889095E+02 -0.51482373807E+02  0.13055759207E+03  0.84956196718E+02 0.  0.
          5    1    3    3  501    0 -0.33765889966E+02 -0.48417999011E+02 -0.21077912790E+02  0.62855440187E+02  0.47000000000E+01 0. -1.
        -11    1    4    4    0    0  0.10267818520E+02  0.11041649249E+02  0.25044132494E+02  0.29232767363E+02  0.00000000000E+00 0.  1.
         12    1    4    4    0    0  0.52686957043E+02  0.51611131553E+02 -0.58836416627E+02  0.94346956836E+02  0.00000000000E+00 0. -1.
         -5    1    5    5    0  502  0.52621819734E+02  0.77721073032E+01 -0.39423677135E+02  0.66376033949E+02  0.47000000000E+01 0.  1.
         13    1    6    6    0    0 -0.42753885919E+02 -0.14581332667E+02  0.19498972625E+02  0.49200812564E+02  0.00000000000E+00 0. -1.
        -14    1    6    6    0    0 -0.39056819411E+02 -0.74255564270E+01 -0.70981346432E+02  0.81356779509E+02  0.00000000000E+00 0.  1.
</event>
<event>
12    1  0.8313893E-002  0.1914786E+03  0.7818608E-02  0.1157312E+00
         21   -1    0    0  501  502  0.00000000000E+00  0.00000000000E+00  0.18517265971E+03  0.18517265971E+03  0.00000000000E+00 0. -1.
         21   -1    0    0  502  503 -0.00000000000E+00 -0.00000000000E+00 -0.19750699958E+03  0.19750699958E+03  0.00000000000E+00 0. -1.
         -6    2    1    2    0  503 -0.29545664040E+02 -0.78270694613E+02  0.15959472889E+01  0.19148525088E+03  0.17223474202E+03 0.  0.
        -24    2    3    3    0    0 -0.50615780889E+02 -0.84635958094E+02 -0.49053065497E+02  0.13606071751E+03  0.79881868637E+02 0.  0.
          6    2    1    2  501    0  0.29545664040E+02  0.78270694613E+02 -0.13930287168E+02  0.19119440841E+03  0.17135343886E+03 0.  0.
         24    2    5    5    0    0 -0.93738415614E+00 -0.20302011651E+02 -0.28816082322E+02  0.86841777659E+02  0.79360427043E+02 0.  0.
          5    1    5    5  501    0  0.30483048196E+02  0.98572706264E+02  0.14885795155E+02  0.10435263075E+03  0.47000000000E+01 0. -1.
        -11    1    6    6    0    0 -0.11672641822E+02 -0.36935719126E+02  0.12767535673E+02  0.40786123641E+02  0.00000000000E+00 0.  1.
         12    1    6    6    0    0  0.10735257666E+02  0.16633707475E+02 -0.41583617995E+02  0.46055654019E+02  0.00000000000E+00 0. -1.
         -5    1    3    3    0  503  0.21070116849E+02  0.63652634809E+01  0.50649012785E+02  0.55424533371E+02  0.47000000000E+01 0.  1.
         11    1    4    4    0    0 -0.16072149970E+02 -0.87101061638E+02 -0.19870189340E+02  0.90772977078E+02  0.00000000000E+00 0. -1.
        -12    1    4    4    0    0 -0.34543630919E+02  0.24651035444E+01 -0.29182876157E+02  0.45287740431E+02  0.00000000000E+00 0.  1.
</event>
<event>
12    1  0.8313893E-002  0.1874010E+03  0.7818608E-02  0.1161410E+00
         21   -1    0    0  501  502  0.00000000000E+00  0.00000000000E+00  0.11868387068E+03  0.11868387068E+03  0.00000000000E+00 0. -1.
         21   -1    0    0  502  503 -0.00000000000E+00 -0.00000000000E+00 -0.29601081671E+03  0.29601081671E+03  0.00000000000E+00 0. -1.
         -6    2    1    2    0  503  0.14966855496E+02  0.69772013405E+02 -0.11239690965E+03  0.21636403577E+03  0.17055260202E+03 0.  0.
        -24    2    3    3    0    0  0.71200103086E+02  0.71715624500E+02 -0.90829984777E+02  0.15592251025E+03  0.76479785507E+02 0.  0.
          6    2    1    2  501    0 -0.14966855496E+02 -0.69772013405E+02 -0.64930036382E+02  0.19833065162E+03  0.17328299723E+03 0.  0.
         24    2    5    5    0    0 -0.96761092063E+00 -0.11728947106E+02 -0.99979005398E+02  0.12893687219E+03  0.80563087201E+02 0.  0.
          5    1    5    5  501    0 -0.13999244575E+02 -0.58043066299E+02  0.35048969016E+02  0.69393779427E+02  0.47000000000E+01 0. -1.
        -11    1    6    6    0    0  0.21086604344E+02  0.12051714787E+02 -0.92523069875E+02  0.95657760643E+02  0.00000000000E+00 0.  1.
         12    1    6    6    0    0 -0.22054215265E+02 -0.23780661893E+02 -0.74559355226E+01  0.33279111550E+02  0.00000000000E+00 0. -1.
         -5    1    3    3    0  503 -0.56233247590E+02 -0.19436110950E+01 -0.21566924876E+02  0.60441525520E+02  0.47000000000E+01 0.  1.
         13    1    4    4    0    0  0.16204604239E+02  0.48724432310E+02 -0.80416089037E+02  0.95411775366E+02  0.00000000000E+00 0. -1.
        -14    1    4    4    0    0  0.54995498847E+02  0.22991192190E+02 -0.10413895740E+02  0.60510734884E+02  0.00000000000E+00 0.  1.
</event>
<event>
12    1  0.8313893E-002  0.1745835E+03  0.7818608E-02  0.1173695E+00
         21   -1    0    0  501  502  0.00000000000E+00  0.00000000000E+00  0.70102206918E+02  0.70102206918E+02  0.00000000000E+00 0. -1.
         21   -1    0    0  502  503 -0.00000000000E+00 -0.00000000000E+00 -0.48922089282E+03  0.48922089282E+03  0.00000000000E+00 0. -1.
         -6    2    1    2    0  503  0.20771690984E+02 -0.15338409316E+02 -0.30617085631E+03  0.35138897059E+03  0.17049013300E+03 0.  0.
        -24    2    3    3    0    0  0.78288107706E+02  0.80015286340E+00 -0.21836813785E+03  0.24508751834E+03  0.79079579936E+02 0.  0.
          6    2    1    2  501    0 -0.20771690984E+02  0.15338409316E+02 -0.11294782959E+03  0.20793412915E+03  0.17266342956E+03 0.  0.
         24    2    5    5    0    0 -0.31234291987E+02 -0.51611996184E+02 -0.57297665678E+02  0.12012266316E+03  0.86643248817E+02 0.  0.
          5    1    5    5  501    0  0.10462601003E+02  0.66950405499E+02 -0.55650163908E+02  0.87811465989E+02  0.47000000000E+01 0. -1.
        -13    1    6    6    0    0  0.14154816718E+02  0.11469167492E+02 -0.34697546113E+02  0.39189543829E+02  0.00000000000E+00 0.  1.
         14    1    6    6    0    0 -0.45389108704E+02 -0.63081163675E+02 -0.22600119565E+02  0.80933119327E+02  0.00000000000E+00 0. -1.
         -5    1    3    3    0  503 -0.57516416722E+02 -0.16138562179E+02 -0.87802718458E+02  0.10630145225E+03  0.47000000000E+01 0.  1.
         13    1    4    4    0    0  0.19882384729E+02 -0.16508649288E+01 -0.97788929925E+00  0.19974755192E+02  0.00000000000E+00 0. -1.
        -14    1    4    4    0    0  0.58405722978E+02  0.24510177922E+01 -0.21739024855E+03  0.22511276315E+03  0.00000000000E+00 0.  1.
</event>
<event>
12    1  0.8313893E-002  0.2597357E+03  0.7818608E-02  0.1107315E+00
         21   -1    0    0  503  502  0.00000000000E+00  0.00000000000E+00  0.17648709540E+04  0.17648709540E+04  0.00000000000E+00 0. -1.
         21   -1    0    0  501  503 -0.00000000000E+00 -0.00000000000E+00 -0.39936410818E+03  0.39936410818E+03  0.00000000000E+00 0.  1.
          6    2    1    2  501    0 -0.15833147452E+03  0.11396548127E+03 -0.34630218204E+03  0.43283309552E+03  0.17135431288E+03 0.  0.
         24    2    3    3    0    0 -0.13423864494E+03  0.14790992383E+03 -0.31033972888E+03  0.37762369727E+03  0.79947170394E+02 0.  0.
         -6    2    1    2    0  502  0.15833147452E+03 -0.11396548127E+03  0.17118090278E+04  0.17314019667E+04  0.17148071491E+03 0.  0.
        -24    2    5    5    0    0  0.17724006450E+03 -0.12017377115E+03  0.13659080073E+04  0.13848970119E+04  0.79870354347E+02 0.  0.
          5    1    3    3  501    0 -0.24092829575E+02 -0.33944442557E+02 -0.35962453154E+02  0.55209398243E+02  0.47000000000E+01 0. -1.
        -13    1    4    4    0    0 -0.13315267575E+03  0.12741459452E+03 -0.30510068911E+03  0.35644150215E+03  0.00000000000E+00 0.  1.
         14    1    4    4    0    0 -0.10859691947E+01  0.20495329310E+02 -0.52390397717E+01  0.21182195125E+02  0.00000000000E+00 0. -1.
         -5    1    5    5    0  502 -0.18908589979E+02  0.62082898723E+01  0.34590102058E+03  0.34650495477E+03  0.47000000000E+01 0.  1.
         13    1    6    6    0    0  0.12013054592E+03 -0.97985657474E+02  0.74406087114E+03  0.76003889183E+03  0.00000000000E+00 0. -1.
        -14    1    6    6    0    0  0.57109518580E+02 -0.22188113673E+02  0.62184713612E+03  0.62485812006E+03  0.00000000000E+00 0.  1.
</event>
<event>
12    1  0.8313893E-002  0.1876106E+03  0.7818608E-02  0.1160910E+00
         21   -1    0    0  503  502  0.00000000000E+00  0.00000000000E+00  0.18409212458E+03  0.18409212458E+03  0.00000000000E+00 0. -1.
         21   -1    0    0  501  503 -0.00000000000E+00 -0.00000000000E+00 -0.25780056874E+03  0.25780056874E+03  0.00000000000E+00 0.  1.
          6    2    1    2  501    0 -0.74908606254E+02 -0.10860294667E+02 -0.15026694980E+03  0.24037032644E+03  0.17166389353E+03 0.  0.
         24    2    3    3    0    0 -0.76188540619E+01  0.14587973021E+02 -0.14804194073E+03  0.16824151290E+03  0.78217226692E+02 0.  0.
         -6    2    1    2    0  502  0.74908606254E+02  0.10860294667E+02  0.76558505628E+02  0.20152236688E+03  0.17035496552E+03 0.  0.
        -24    2    5    5    0    0 -0.22110672540E+02  0.11431452177E+02  0.13088949911E+02  0.85489866339E+02  0.80731881545E+02 0.  0.
          5    1    3    3  501    0 -0.67289752192E+02 -0.25448267688E+02 -0.22250090620E+01  0.72128813547E+02  0.47000000000E+01 0. -1.
        -13    1    4    4    0    0 -0.28574015434E+02  0.37242926759E+02 -0.69629962401E+02  0.83975244064E+02  0.00000000000E+00 0.  1.
         14    1    4    4    0    0  0.20955161372E+02 -0.22654953738E+02 -0.78411978332E+02  0.84266268833E+02  0.00000000000E+00 0. -1.
         -5    1    5    5    0  502  0.97019278794E+02 -0.57115751041E+00  0.63469555717E+02  0.11603250054E+03  0.47000000000E+01 0.  1.
         11    1    6    6    0    0  0.17806450903E+01  0.43900951580E+02  0.36562909382E+01  0.44088918223E+02  0.00000000000E+00 0. -1.
        -12    1    6    6    0    0 -0.23891317630E+02 -0.32469499403E+02  0.94326589730E+01  0.41400948116E+02  0.00000000000E+00 0.  1.
</event>
<event>
12    1  0.8313893E-002  0.2733745E+03  0.7818608E-02  0.1099466E+00
         21   -1    0    0  501  502  0.00000000000E+00  0.00000000000E+00  0.42782686424E+03  0.42782686424E+03  0.00000000000E+00 0.  1.
         21   -1    0    0  502  503 -0.00000000000E+00 -0.00000000000E+00 -0.26038039179E+03  0.26038039179E+03  0.00000000000E+00 0. -1.
         -6    2    1    2    0  503  0.43752452634E+02 -0.20632847433E+03 -0.11414712130E+03  0.29624851672E+03  0.17391923966E+03 0.  0.
        -24    2    3    3    0    0  0.75741830631E+02 -0.12441150273E+03 -0.12481921164E+03  0.20753722063E+03  0.79226355674E+02 0.  0.
          6    2    1    2  501    0 -0.43752452634E+02  0.20632847433E+03  0.28159359375E+03  0.39195873932E+03  0.17277437557E+03 0.  0.
         24    2    5    5    0    0 -0.24307924761E+02  0.36266399052E+02  0.49451729842E+02  0.10349533767E+03  0.79747629609E+02 0.  0.
          5    1    5    5  501    0 -0.19444527873E+02  0.17006207528E+03  0.23214186391E+03  0.28846340165E+03  0.47000000000E+01 0. -1.
        -11    1    6    6    0    0  0.34090337493E+01  0.55152270108E+02  0.41281184799E+02  0.68974855039E+02  0.00000000000E+00 0.  1.
         12    1    6    6    0    0 -0.27716958511E+02 -0.18885871057E+02  0.81705450426E+01  0.34520482629E+02  0.00000000000E+00 0. -1.
         -5    1    3    3    0  503 -0.31989377997E+02 -0.81916971600E+02  0.10672090343E+02  0.88711296085E+02  0.47000000000E+01 0.  1.
         11    1    4    4    0    0  0.19201641268E+02 -0.10376247012E+03 -0.76180288228E+02  0.13014910506E+03  0.00000000000E+00 0. -1.
        -12    1    4    4    0    0  0.56540189364E+02 -0.20649032610E+02 -0.48638923411E+02  0.77388115571E+02  0.00000000000E+00 0.  1.
</event>
<event>
12    1  0.8313893E-002  0.2102217E+03  0.7818608E-02  0.1141604E+00
         21   -1    0    0  501  502  0.00000000000E+00  0.00000000000E+00  0.13440471172E+03  0.13440471172E+03  0.00000000000E+00 0.  1.
         21   -1    0    0  502  503 -0.00000000000E+00 -0.00000000000E+00 -0.34240769637E+03  0.34240769637E+03  0.00000000000E+00 0.  1.
         -6    2    1    2    0  503 -0.74054487476E+02  0.94717447254E+02 -0.15411171780E+03  0.25979296572E+03  0.17113299374E+03 0.  0.
        -24    2    3    3    0    0  0.19954200476E+02  0.74531009846E+02 -0.67128678197E+02  0.13004989329E+03  0.80334760614E+02 0.  0.
          6    2    1    2  501    0  0.74054487476E+02 -0.94717447254E+02 -0.53891266856E+02  0.21701944237E+03  0.17244624609E+03 0.  0.
         24    2    5    5    0    0  0.99688009629E+02 -0.39467719252E+02  0.39969283784E+01  0.13286040809E+03  0.78361422112E+02 0.  0.
          5    1    5    5  501    0 -0.25633522153E+02 -0.55249728002E+02 -0.57888195235E+02  0.84159034273E+02  0.47000000000E+01 0. -1.
        -13    1    6    6    0    0  0.28906026813E+02 -0.35735766639E+01 -0.34084432028E+02  0.44833886102E+02  0.00000000000E+00 0.  1.
         14    1    6    6    0    0  0.70781982816E+02 -0.35894142588E+02  0.38081360407E+02  0.88026521991E+02  0.00000000000E+00 0. -1.
         -5    1    3    3    0  503 -0.94008687952E+02  0.20186437408E+02 -0.86983039602E+02  0.12974307243E+03  0.47000000000E+01 0.  1.
         13    1    4    4    0    0  0.29650609057E+02 -0.38578993039E+01 -0.31398759172E+02  0.43358091310E+02  0.00000000000E+00 0. -1.
        -14    1    4    4    0    0 -0.96964085810E+01  0.78388909150E+02 -0.35729919025E+02  0.86691801980E+02  0.00000000000E+00 0.  1.
</event>
<event>
12    1  0.8313893E-002  0.2145684E+03  0.7818608E-02  0.1138013E+00
         21   -1    0    0  503  502  0.00000000000E+00  0.00000000000E+00  0.46471915453E+02  0.46471915453E+02  0.00000000000E+00 0. -1.
         21   -1    0    0  501  503 -0.00000000000E+00 -0.00000000000E+00 -0.10064059503E+04  0.10064059503E+04  0.00000000000E+00 0.  1.
          6    2    1    2  501    0 -0.12622454015E+02 -0.12845435122E+03 -0.54637594015E+03  0.58697026002E+03  0.17131132909E+03 0.  0.
         24    2    3    3    0    0 -0.63030251802E+02 -0.38190066626E+02 -0.32338571956E+03  0.34113430733E+03  0.79768403493E+02 0.  0.
         -6    2    1    2    0  502  0.12622454015E+02  0.12845435122E+03 -0.41355809469E+03  0.46590760573E+03  0.17140522950E+03 0.  0.
        -24    2    5    5    0    0 -0.46854969053E+02  0.12003763106E+03 -0.24209531468E+03  0.28416608608E+03  0.74402971020E+02 0.  0.
          5    1    3    3  501    0  0.50407797788E+02 -0.90264284594E+02 -0.22299022060E+03  0.24583595269E+03  0.47000000000E+01 0. -1.
        -13    1    4    4    0    0 -0.32648803126E+02 -0.24909933392E+02 -0.29392424862E+03  0.29677923285E+03  0.00000000000E+00 0.  1.
         14    1    4    4    0    0 -0.30381448676E+02 -0.13280133234E+02 -0.29461470939E+02  0.44355074482E+02  0.00000000000E+00 0. -1.
         -5    1    5    5    0  502  0.59477423067E+02  0.84167201584E+01 -0.17146278002E+03  0.18174151965E+03  0.47000000000E+01 0.  1.
         11    1    6    6    0    0  0.17696655103E+02  0.45786893016E+02 -0.63476011313E+02  0.80242228197E+02  0.00000000000E+00 0. -1.
        -12    1    6    6    0    0 -0.64551624156E+02  0.74250738046E+02 -0.17861930336E+03  0.20392385789E+03  0.00000000000E+00 0.  1.
</event>
<event>
12    1  0.8313893E-002  0.4173415E+03  0.7818608E-02  0.1037982E+00
         21   -1    0    0  503  502  0.00000000000E+00  0.00000000000E+00  0.79372582578E+03  0.79372582578E+03  0.00000000000E+00 0. -1.
         21   -1    0    0  501  503 -0.00000000000E+00 -0.00000000000E+00 -0.71725176145E+03  0.71725176145E+03  0.00000000000E+00 0.  1.
          6    2    1    2  501    0  0.28983641185E+03  0.24647248644E+03 -0.59135995671E+03  0.72346491261E+03  0.17012069003E+03 0.  0.
         24    2    3    3    0    0  0.40469263195E+02  0.89936525743E+02 -0.17583450637E+03  0.21418014777E+03  0.72311977863E+02 0.  0.
         -6    2    1    2    0  502 -0.28983641185E+03 -0.24647248644E+03  0.66783402104E+03  0.78751267462E+03  0.17152288717E+03 0.  0.
        -24    2    5    5    0    0 -0.56264090683E+02 -0.88180017449E+02  0.16367376098E+03  0.20974784982E+03  0.79143522113E+02 0.  0.
          5    1    3    3  501    0  0.24936714866E+03  0.15653596070E+03 -0.41552545034E+03  0.50928476485E+03  0.47000000000E+01 0. -1.
        -11    1    4    4    0    0  0.51154139805E+02  0.87787036889E+02 -0.11974684782E+03  0.15704336162E+03  0.00000000000E+00 0.  1.
         12    1    4    4    0    0 -0.10684876610E+02  0.21494888543E+01 -0.56087658548E+02  0.57136786153E+02  0.00000000000E+00 0. -1.
         -5    1    5    5    0  502 -0.23357232117E+03 -0.15829246899E+03  0.50416026006E+03  0.57776482480E+03  0.47000000000E+01 0.  1.
         11    1    6    6    0    0 -0.41807039759E+02 -0.32688375489E+01  0.76254001826E+02  0.87024057977E+02  0.00000000000E+00 0. -1.
        -12    1    6    6    0    0 -0.14457050924E+02 -0.84911179900E+02  0.87419759158E+02  0.12272379184E+03  0.00000000000E+00 0.  1.
</event>
<event>
12    1  0.8313893E-002  0.1794986E+03  0.7818608E-02  0.1168602E+00
         21   -1    0    0  501  502  0.00000000000E+00  0.00000000000E+00  0.24983399770E+03  0.24983399770E+03  0.00000000000E+00 0. -1.
         21   -1    0    0  502  503 -0.00000000000E+00 -0.00000000000E+00 -0.12997822909E+03  0.12997822909E+03  0.00000000000E+00 0. -1.
         -6    2    1    2    0  503 -0.13234583130E+02  0.54169456843E+02  0.82880102523E+02  0.19654482643E+03  0.16926686964E+03 0.  0.
        -24    2    3    3    0    0 -0.42959815431E+02  0.24717623712E+02 -0.12568871463E+02  0.92220349221E+02  0.76747049564E+02 0.  0.
          6    2    1    2  501    0  0.13234583130E+02 -0.54169456843E+02  0.36975666082E+02  0.18326740036E+03  0.17061727905E+03 0.  0.
         24    2    5    5    0    0 -0.44012426565E+02 -0.20417401522E+02  0.61080329938E+02  0.11241864471E+03  0.80951720162E+02 0.  0.
          5    1    5    5  501    0  0.57247009695E+02 -0.33752055321E+02 -0.24104663856E+02  0.70848755649E+02  0.47000000000E+01 0. -1.
        -11    1    6    6    0    0 -0.23303259266E+02 -0.47897996828E+02  0.15824780112E+02  0.55566929537E+02  0.00000000000E+00 0.  1.
         12    1    6    6    0    0 -0.20709167299E+02  0.27480595306E+02  0.45255549827E+02  0.56851715178E+02  0.00000000000E+00 0. -1.
         -5    1    3    3    0  503  0.29725232301E+02  0.29451833131E+02  0.95448973986E+02  0.10432447721E+03  0.47000000000E+01 0.  1.
         13    1    4    4    0    0 -0.42777319010E+02  0.24587748573E+00  0.23366186618E+02  0.48743596036E+02  0.00000000000E+00 0. -1.
        -14    1    4    4    0    0 -0.18249642096E+00  0.24471746226E+02 -0.35935058080E+02  0.43476753185E+02  0.00000000000E+00 0.  1.
</event>
<event>
12    1  0.8313893E-002  0.1822834E+03  0.7818608E-02  0.1165998E+00
         21   -1    0    0  501  502  0.00000000000E+00  0.00000000000E+00  0.11568038771E+04  0.11568038771E+04  0.00000000000E+00 0. -1.
         21   -1    0    0  502  503 -0.00000000000E+00 -0.00000000000E+00 -0.48050372294E+03  0.48050372294E+03  0.00000000000E+00 0. -1.
         -6    2    1    2    0  503 -0.51752350538E+02  0.22989766014E+02 -0.45597019430E+03  0.49045826671E+03  0.17156240310E+03 0.  0.
        -24    2    3    3    0    0 -0.95236524575E+02  0.37298680098E+02 -0.37792546336E+03  0.39985645413E+03  0.81217860737E+02 0.  0.
          6    2    1    2  501    0  0.51752350538E+02 -0.22989766014E+02  0.11322703485E+04  0.11468493333E+04  0.17326400730E+03 0.  0.
         24    2    5    5    0    0  0.48597086174E+02 -0.74911006901E+02  0.93368568253E+03  0.94151124507E+03  0.81860461062E+02 0.  0.
          5    1    5    5  501    0  0.31552643631E+01  0.51921240887E+02  0.19858466595E+03  0.20533808828E+03  0.47000000000E+01 0. -1.
        -13    1    6    6    0    0 -0.21656539414E+01  0.16440029881E+02  0.13728605804E+03  0.13828386157E+03  0.00000000000E+00 0.  1.
         14    1    6    6    0    0  0.50762740116E+02 -0.91351036782E+02  0.79639962450E+03  0.80322738350E+03  0.00000000000E+00 0. -1.
         -5    1    3    3    0  503  0.43484174038E+02 -0.14308914084E+02 -0.78044730947E+02  0.90601812579E+02  0.47000000000E+01 0. -1.
         11    1    4    4    0    0 -0.75963332467E+02  0.10093187550E+02 -0.13994792879E+03  0.15955476517E+03  0.00000000000E+00 0. -1.
        -12    1    4    4    0    0 -0.19273192108E+02  0.27205492548E+02 -0.23797753457E+03  0.24030168896E+03  0.00000000000E+00 0.  1.
</event>
<event>
12    1  0.8313893E-002  0.2296037E+03  0.7818608E-02  0.1127672E+00
         21   -1    0    0  501  502  0.00000000000E+00  0.00000000000E+00  0.11374549059E+03  0.11374549059E+03  0.00000000000E+00 0. -1.
         21   -1    0    0  502  503 -0.00000000000E+00 -0.00000000000E+00 -0.75113316236E+03  0.75113316236E+03  0.00000000000E+00 0. -1.
         -6    2    1    2    0  503 -0.15086959235E+03  0.11628123417E+02 -0.58842823600E+03  0.63011304877E+03  0.16702639960E+03 0.  0.
        -24    2    3    3    0    0 -0.15649384056E+03  0.44528896594E+02 -0.40232999674E+03  0.44098680073E+03  0.78273797509E+02 0.  0.
          6    2    1    2  501    0  0.15086959235E+03 -0.11628123417E+02 -0.48959435773E+02  0.23476560418E+03  0.17268762378E+03 0.  0.
         24    2    5    5    0    0  0.17529735080E+03  0.13523494026E+01 -0.63514960036E+02  0.20315609067E+03  0.80667570819E+02 0.  0.
          5    1    5    5  501    0 -0.24427758453E+02 -0.12980472820E+02  0.14555524262E+02  0.31609513508E+02  0.47000000000E+01 0. -1.
        -11    1    6    6    0    0  0.13688596036E+03  0.35578326879E+02 -0.49311987125E+02  0.14978402973E+03  0.00000000000E+00 0.  1.
         12    1    6    6    0    0  0.38411390438E+02 -0.34225977476E+02 -0.14202972910E+02  0.53372060941E+02  0.00000000000E+00 0. -1.
         -5    1    3    3    0  503  0.56242482100E+01 -0.32900773177E+02 -0.18609823925E+03  0.18912624804E+03  0.47000000000E+01 0.  1.
         13    1    4    4    0    0 -0.13698072249E+03  0.39708031957E+02 -0.25400114185E+03  0.29130229349E+03  0.00000000000E+00 0. -1.
        -14    1    4    4    0    0 -0.19513118073E+02  0.48208646369E+01 -0.14832885490E+03  0.14968450724E+03  0.00000000000E+00 0.  1.
</event>
<event>
12    1  0.8313893E-002  0.2230484E+03  0.7818608E-02  0.1131636E+00
         21   -1    0    0  501  502  0.00000000000E+00  0.00000000000E+00  0.18923979440E+03  0.18923979440E+03  0.00000000000E+00 0. -1.
         21   -1    0    0  502  503 -0.00000000000E+00 -0.00000000000E+00 -0.26336456232E+03  0.26336456232E+03  0.00000000000E+00 0. -1.
         -6    2    1    2    0  503 -0.13955752393E+03  0.25602337737E+02 -0.27201969310E+02  0.22467378680E+03  0.17206563037E+03 0.  0.
        -24    2    3    3    0    0 -0.14890162007E+03  0.29267481278E+02 -0.66492226898E+02  0.18385026721E+03  0.79695838014E+02 0.  0.
          6    2    1    2  501    0  0.13955752393E+03 -0.25602337737E+02 -0.46922798609E+02  0.22793056992E+03  0.17210117225E+03 0.  0.
         24    2    5    5    0    0  0.51544079004E+02 -0.25543003313E+02 -0.87412864983E+02  0.13093621192E+03  0.78702258723E+02 0.  0.
          5    1    5    5  501    0  0.88013444930E+02 -0.59334424291E-01  0.40490066373E+02  0.96994358000E+02  0.47000000000E+01 0. -1.
        -11    1    6    6    0    0 -0.24602713170E+01  0.52859917846E+01  0.12191639097E+02  0.13514092939E+02  0.00000000000E+00 0.  1.
         12    1    6    6    0    0  0.54004350321E+02 -0.30828995097E+02 -0.99604504080E+02  0.11742211898E+03  0.00000000000E+00 0. -1.
         -5    1    3    3    0  503  0.93440961372E+01 -0.36651435408E+01  0.39290257589E+02  0.40823519583E+02  0.47000000000E+01 0.  1.
         13    1    4    4    0    0 -0.20450675528E+02  0.18309805144E+02 -0.45637953479E+02  0.53256942193E+02  0.00000000000E+00 0. -1.
        -14    1    4    4    0    0 -0.12845094454E+03  0.10957676134E+02 -0.20854273419E+02  0.13059332502E+03  0.00000000000E+00 0.  1.
</event>
<event>
12    1  0.8313893E-002  0.1959983E+03  0.7818608E-02  0.1153529E+00
         21   -1    0    0  503  502  0.00000000000E+00  0.00000000000E+00  0.54450454193E+03  0.54450454193E+03  0.00000000000E+00 0.  1.
         21   -1    0    0  501  503 -0.00000000000E+00 -0.00000000000E+00 -0.80559849536E+02  0.80559849536E+02  0.00000000000E+00 0.  1.
          6    2    1    2  501    0 -0.85895117406E+02  0.39265290212E+02  0.11763191792E+03  0.22713491123E+03  0.16980360885E+03 0.  0.
         24    2    3    3    0    0 -0.98596180454E+02  0.76526194898E+02  0.11626104857E+03  0.18746551114E+03  0.77776739113E+02 0.  0.
         -6    2    1    2    0  502  0.85895117406E+02 -0.39265290212E+02  0.34631277447E+03  0.39792948023E+03  0.17174282886E+03 0.  0.
        -24    2    5    5    0    0  0.37508114099E+02  0.20258133774E+01  0.31453675570E+03  0.32666895333E+03  0.79801452647E+02 0.  0.
          5    1    3    3  501    0  0.12701063048E+02 -0.37260904686E+02  0.13708693456E+01  0.39669400088E+02  0.47000000000E+01 0. -1.
        -13    1    4    4    0    0 -0.42880020536E+02 -0.31090536362E+01  0.64042339683E+02  0.77134840687E+02  0.00000000000E+00 0.  1.
         14    1    4    4    0    0 -0.55716159918E+02  0.79635248535E+02  0.52218708889E+02  0.11033067046E+03  0.00000000000E+00 0. -1.
         -5    1    5    5    0  502  0.48387003306E+02 -0.41291103589E+02  0.31776018778E+02  0.71260526899E+02  0.47000000000E+01 0.  1.
         13    1    6    6    0    0  0.23701660294E+02 -0.34402777123E+02  0.22760388762E+03  0.23140624329E+03  0.00000000000E+00 0. -1.
        -14    1    6    6    0    0  0.13806453805E+02  0.36428590501E+02  0.86932868078E+02  0.95262710043E+02  0.00000000000E+00 0.  1.
</event>
<event>
12    1  0.8313893E-002  0.1762251E+03  0.7818608E-02  0.1172145E+00
         21   -1    0    0  501  502  0.00000000000E+00  0.00000000000E+00  0.64423076963E+02  0.64423076963E+02  0.00000000000E+00 0.  1.
         21   -1    0    0  502  503 -0.00000000000E+00 -0.00000000000E+00 -0.49526486816E+03  0.49526486816E+03  0.00000000000E+00 0.  1.
         -6    2    1    2    0  503  0.15733729695E+02 -0.24883241641E+02 -0.16048660231E+03  0.23835106403E+03  0.17374853738E+03 0.  0.
        -24    2    3    3    0    0  0.44582426601E+02  0.11051018343E+02 -0.25200594082E+02  0.95354866966E+02  0.79672849478E+02 0.  0.
          6    2    1    2  501    0 -0.15733729695E+02  0.24883241641E+02 -0.27035518889E+03  0.32133688110E+03  0.17116873846E+03 0.  0.
         24    2    5    5    0    0  0.25882495921E+02 -0.42431126292E+02 -0.13806010434E+03  0.16710584090E+03  0.79959149426E+02 0.  0.
          5    1    5    5  501    0 -0.41616225617E+02  0.67314367933E+02 -0.13229508455E+03  0.15423104020E+03  0.47000000000E+01 0. -1.
        -11    1    6    6    0    0 -0.12272461418E+02  0.31944611305E+01 -0.89301640053E+02  0.90197565418E+02  0.00000000000E+00 0.  1.
         12    1    6    6    0    0  0.38154957339E+02 -0.45625587422E+02 -0.48758464291E+02  0.76908275479E+02  0.00000000000E+00 0. -1.
         -5    1    3    3    0  503 -0.28848696906E+02 -0.35934259984E+02 -0.13528600822E+03  0.14299619706E+03  0.47000000000E+01 0.  1.
         13    1    4    4    0    0  0.30406280122E+01  0.10074370622E+02 -0.47185095376E+02  0.48344302537E+02  0.00000000000E+00 0. -1.
        -14    1    4    4    0    0  0.41541798589E+02  0.97664772033E+00  0.21984501294E+02  0.47010564429E+02  0.00000000000E+00 0.  1.
</event>
<event>
12    1  0.8313893E-002  0.2405559E+03  0.7818608E-02  0.1120988E+00
         21   -1    0    0  501  502  0.00000000000E+00  0.00000000000E+00  0.19259089367E+03  0.19259089367E+03  0.00000000000E+00 0. -1.
         21   -1    0    0  502  503 -0.00000000000E+00 -0.00000000000E+00 -0.33639205076E+03  0.33639205076E+03  0.00000000000E+00 0.  1.
         -6    2    1    2    0  503  0.13414869204E+03  0.76063847719E+02  0.28516255320E+02  0.23307679882E+03  0.17242400305E+03 0.  0.
        -24    2    3    3    0    0  0.10365821009E+03 -0.18133960193E+02  0.14983876765E+02  0.13303624817E+03  0.80001635818E+02 0.  0.
          6    2    1    2  501    0 -0.13414869204E+03 -0.76063847719E+02 -0.17231741241E+03  0.29590614560E+03  0.18462279350E+03 0.  0.
         24    2    5    5    0    0 -0.95544851016E+02 -0.58848246250E+02 -0.23098582242E+02  0.14074499469E+03  0.81753742336E+02 0.  0.
          5    1    5    5  501    0 -0.38603841020E+02 -0.17215601469E+02 -0.14921883017E+03  0.15516115092E+03  0.47000000000E+01 0. -1.
        -13    1    6    6    0    0  0.60632052223E+01  0.88587401288E+01  0.95360947767E+01  0.14358859211E+02  0.00000000000E+00 0.  1.
         14    1    6    6    0    0 -0.10160805624E+03 -0.67706986378E+02 -0.32634677019E+02  0.12638613548E+03  0.00000000000E+00 0. -1.
         -5    1    3    3    0  503  0.30490481944E+02  0.94197807912E+02  0.13532378555E+02  0.10004055065E+03  0.47000000000E+01 0.  1.
         11    1    4    4    0    0  0.78471091377E+02 -0.32103267986E+02  0.41042597751E+02  0.94195683698E+02  0.00000000000E+00 0. -1.
        -12    1    4    4    0    0  0.25187118715E+02  0.13969307792E+02 -0.26058720986E+02  0.38840564476E+02  0.00000000000E+00 0.  1.
</event>
<event>
12    1  0.8313893E-002  0.2112269E+03  0.7818608E-02  0.1140713E+00
         21   -1    0    0  501  502  0.00000000000E+00  0.00000000000E+00  0.21600883838E+02  0.21600883838E+02  0.00000000000E+00 0.  1.
         21   -1    0    0  502  503 -0.00000000000E+00 -0.00000000000E+00 -0.21224177036E+04  0.21224177036E+04  0.00000000000E+00 0.  1.
         -6    2    1    2    0  503 -0.68185589874E+02 -0.10287295519E+03 -0.12359367297E+04  0.12538566124E+04  0.17141961705E+03 0.  0.
        -24    2    3    3    0    0 -0.63417072315E+00 -0.11853335424E+03 -0.77545664434E+03  0.78816095929E+03  0.76250457452E+02 0.  0.
          6    2    1    2  501    0  0.68185589874E+02  0.10287295519E+03 -0.86488009006E+03  0.89016197502E+03  0.17070047455E+03 0.  0.
         24    2    5    5    0    0  0.69143416146E+02  0.13901718550E+03 -0.69171460192E+03  0.71319955218E+03  0.77961021360E+02 0.  0.
          5    1    5    5  501    0 -0.95782627258E+00 -0.36144230312E+02 -0.17316548814E+03  0.17696242284E+03  0.47000000000E+01 0. -1.
        -13    1    6    6    0    0  0.71979843911E+02  0.73255309913E+02 -0.50179092541E+03  0.51219290427E+03  0.00000000000E+00 0.  1.
         14    1    6    6    0    0 -0.28364277650E+01  0.65761875584E+02 -0.18992367652E+03  0.20100664791E+03  0.00000000000E+00 0. -1.
         -5    1    3    3    0  503 -0.67551419151E+02  0.15660399057E+02 -0.46048008534E+03  0.46569565310E+03  0.47000000000E+01 0.  1.
         13    1    4    4    0    0  0.39123961053E+01 -0.75587792716E+02 -0.66915428443E+03  0.67342132252E+03  0.00000000000E+00 0. -1.
        -14    1    4    4    0    0 -0.45465668284E+01 -0.42945561526E+02 -0.10630235991E+03  0.11473963677E+03  0.00000000000E+00 0.  1.
</event>
<event>
12    1  0.8313893E-002  0.2510085E+03  0.7818608E-02  0.1112719E+00
         21   -1    0    0  501  502  0.00000000000E+00  0.00000000000E+00  0.62095469123E+02  0.62095469123E+02  0.00000000000E+00 0.  1.
         21   -1    0    0  502  503 -0.00000000000E+00 -0.00000000000E+00 -0.11727547760E+04  0.11727547760E+04  0.00000000000E+00 0. -1.
         -6    2    1    2    0  503 -0.51235479308E+02 -0.17417543833E+03 -0.78264151614E+03  0.82181158896E+03  0.17287101351E+03 0.  0.
        -24    2    3    3    0    0 -0.62231249004E+02 -0.33534239925E+02 -0.27162482810E+03  0.29165972478E+03  0.79297378395E+02 0.  0.
          6    2    1    2  501    0  0.51235479308E+02  0.17417543833E+03 -0.32801779075E+03  0.41303865617E+03  0.17332946312E+03 0.  0.
         24    2    5    5    0    0  0.85620893277E+02  0.10340324373E+03 -0.27967909215E+03  0.32057363573E+03  0.80770620669E+02 0.  0.
          5    1    5    5  501    0 -0.34385413969E+02  0.70772194597E+02 -0.48338698599E+02  0.92465020436E+02  0.47000000000E+01 0. -1.
        -11    1    6    6    0    0  0.36253648275E+02  0.67869624176E+02 -0.76569743791E+02  0.10855200856E+03  0.00000000000E+00 0.  1.
         12    1    6    6    0    0  0.49367245002E+02  0.35533619554E+02 -0.20310934836E+03  0.21202162717E+03  0.00000000000E+00 0. -1.
         -5    1    3    3    0  503  0.10995769696E+02 -0.14064119840E+03 -0.51101668804E+03  0.53015186418E+03  0.47000000000E+01 0.  1.
         13    1    4    4    0    0 -0.20456030181E+01  0.21494447098E+02 -0.32562526723E+02  0.39070627002E+02  0.00000000000E+00 0. -1.
        -14    1    4    4    0    0 -0.60185645986E+02 -0.55028687023E+02 -0.23906230137E+03  0.25258909778E+03  0.00000000000E+00 0.  1.
</event>
<event>
12    1  0.8313893E-002  0.1802397E+03  0.7818608E-02  0.1167870E+00
         21   -1    0    0  503  502  0.00000000000E+00  0.00000000000E+00  0.28084750473E+02  0.28084750473E+02  0.00000000000E+00 0.  1.
         21   -1    0    0  501  503 -0.00000000000E+00 -0.00000000000E+00 -0.11621483899E+04  0.11621483899E+04  0.00000000000E+00 0.  1.
          6    2    1    2  501    0  0.44211045606E+02  0.20938369828E+02 -0.50522484954E+03  0.53641262907E+03  0.17347428672E+03 0.  0.
         24    2    3    3    0    0 -0.30328304252E+02  0.18178565123E+02 -0.15699593538E+03  0.18025367880E+03  0.81199745864E+02 0.  0.
         -6    2    1    2    0  502 -0.44211045606E+02 -0.20938369828E+02 -0.62883878987E+03  0.65382051128E+03  0.17219176938E+03 0.  0.
        -24    2    5    5    0    0 -0.57744089238E+02  0.47277887822E+02 -0.36326205094E+03  0.37924867125E+03  0.79376687216E+02 0.  0.
          5    1    3    3  501    0  0.74539349858E+02  0.27598047045E+01 -0.34822891416E+03  0.35615895027E+03  0.47000000000E+01 0. -1.
        -13    1    4    4    0    0  0.23317084161E+02  0.95814963165E+00 -0.88693127145E+02  0.91711914533E+02  0.00000000000E+00 0.  1.
         14    1    4    4    0    0 -0.53645388413E+02  0.17220415491E+02 -0.68302808232E+02  0.88541764270E+02  0.00000000000E+00 0. -1.
         -5    1    5    5    0  502  0.13533043632E+02 -0.68216257650E+02 -0.26557673893E+03  0.27457184003E+03  0.47000000000E+01 0.  1.
         11    1    6    6    0    0 -0.10641246459E+02 -0.22395342395E+02 -0.77786628744E+02  0.81642801878E+02  0.00000000000E+00 0. -1.
        -12    1    6    6    0    0 -0.47102842779E+02  0.69673230218E+02 -0.28547542220E+03  0.29760586938E+03  0.00000000000E+00 0.  1.
</event>
<event>
12    1  0.8313893E-002  0.1759564E+03  0.7818608E-02  0.1172726E+00
         21   -1    0    0  503  502  0.00000000000E+00  0.00000000000E+00  0.22788134384E+03  0.22788134384E+03  0.00000000000E+00 0.  1.
         21   -1    0    0  501  503 -0.00000000000E+00 -0.00000000000E+00 -0.20748812896E+03  0.20748812896E+03  0.00000000000E+00 0.  1.
          6    2    1    2  501    0 -0.18425032476E+02 -0.22177168461E+02 -0.12032770787E+03  0.21006292006E+03  0.16975383495E+03 0.  0.
         24    2    3    3    0    0 -0.73783345127E+02  0.82519580768E+01 -0.55342741648E+02  0.11931265639E+03  0.75237052655E+02 0.  0.
         -6    2    1    2    0  502  0.18425032476E+02  0.22177168461E+02  0.14072092275E+03  0.22530655274E+03  0.17357809766E+03 0.  0.
        -24    2    5    5    0    0  0.73711344887E+02  0.31190824239E+02  0.62013721665E+02  0.12858666941E+03  0.79262853799E+02 0.  0.
          5    1    3    3  501    0  0.55358312651E+02 -0.30429126538E+02 -0.64984966223E+02  0.90750263671E+02  0.47000000000E+01 0. -1.
        -11    1    4    4    0    0 -0.16727326842E+02  0.37414889049E+02 -0.28059214646E+02  0.49668872671E+02  0.00000000000E+00 0.  1.
         12    1    4    4    0    0 -0.57056018285E+02 -0.29162930972E+02 -0.27283527002E+02  0.69643783722E+02  0.00000000000E+00 0. -1.
         -5    1    5    5    0  502 -0.55286312411E+02 -0.90136557780E+01  0.78707201085E+02  0.96719883339E+02  0.47000000000E+01 0.  1.
         11    1    6    6    0    0  0.84787911002E+02  0.23033135835E+02  0.70303144189E+02  0.11252576275E+03  0.00000000000E+00 0. -1.
        -12    1    6    6    0    0 -0.11076566115E+02  0.81576884037E+01 -0.82894225238E+01  0.16060906661E+02  0.00000000000E+00 0.  1.
</event>
<event>
12    1  0.8313893E-002  0.1754064E+03  0.7818608E-02  0.1174150E+00
         21   -1    0    0  503  502  0.00000000000E+00  0.00000000000E+00  0.45932423379E+02  0.45932423379E+02  0.00000000000E+00 0. -1.
         21   -1    0    0  501  503 -0.00000000000E+00 -0.00000000000E+00 -0.82776753481E+03  0.82776753481E+03  0.00000000000E+00 0. -1.
          6    2    1    2  501    0  0.18194438116E+02  0.26851742041E+02 -0.60364667470E+03  0.62861492404E+03  0.17238144104E+03 0.  0.
         24    2    3    3    0    0  0.50874267188E+02  0.37091352528E+02 -0.57426913109E+03  0.58325028010E+03  0.80199094857E+02 0.  0.
         -6    2    1    2    0  502 -0.18194438116E+02 -0.26851742041E+02 -0.17818843673E+03  0.24508503415E+03  0.16511662954E+03 0.  0.
        -24    2    5    5    0    0 -0.16918765556E+02  0.45519981605E+02 -0.12024257349E+03  0.15224588944E+03  0.79763531887E+02 0.  0.
          5    1    3    3  501    0 -0.32679829072E+02 -0.10239610487E+02 -0.29377543608E+02  0.45364643938E+02  0.47000000000E+01 0. -1.
        -11    1    4    4    0    0 -0.22904256590E+00  0.13524841608E+01  0.26428911550E+01  0.29776748579E+01  0.00000000000E+00 0.  1.
         12    1    4    4    0    0  0.51103309754E+02  0.35738868367E+02 -0.57691202225E+03  0.58027260524E+03  0.00000000000E+00 0. -1.
         -5    1    5    5    0  502 -0.12756725602E+01 -0.72371723646E+02 -0.57945863237E+02  0.92839144709E+02  0.47000000000E+01 0.  1.
         13    1    6    6    0    0  0.63641827071E+01 -0.15567390871E+02 -0.17410866475E+01  0.16907923077E+02  0.00000000000E+00 0. -1.
        -14    1    6    6    0    0 -0.23282948263E+02  0.61087372475E+02 -0.11850148685E+03  0.13533796637E+03  0.00000000000E+00 0.  1.
</event>
<event>
12    1  0.8313893E-002  0.1726347E+03  0.7818608E-02  0.1175189E+00
         21   -1    0    0  501  502  0.00000000000E+00  0.00000000000E+00  0.46370358155E+03  0.46370358155E+03  0.00000000000E+00 0. -1.
         21   -1    0    0  502  503 -0.00000000000E+00 -0.00000000000E+00 -0.82047063172E+02  0.82047063172E+02  0.00000000000E+00 0. -1.
         -6    2    1    2    0  503  0.90071789797E+01  0.14083759501E+01  0.63599429004E+02  0.18397726065E+03  0.17239382899E+03 0.  0.
        -24    2    3    3    0    0 -0.10930497132E+02 -0.65717947346E+02  0.28683487168E+02  0.10558933300E+03  0.76733567856E+02 0.  0.
          6    2    1    2  501    0 -0.90071789797E+01 -0.14083759501E+01  0.31805708937E+03  0.36177338406E+03  0.17215271279E+03 0.  0.
         24    2    5    5    0    0 -0.41381487436E+01 -0.33127072455E+02  0.79060292083E+02  0.12058602478E+03  0.84710875241E+02 0.  0.
          5    1    5    5  501    0 -0.48690302362E+01  0.31718696505E+02  0.23899679729E+03  0.24118735928E+03  0.47000000000E+01 0. -1.
        -13    1    6    6    0    0 -0.42258534038E+02 -0.27466202962E+02  0.57365261247E+02  0.76360652185E+02  0.00000000000E+00 0.  1.
         14    1    6    6    0    0  0.38120385294E+02 -0.56608694931E+01  0.21695030836E+02  0.44225372597E+02  0.00000000000E+00 0. -1.
         -5    1    3    3    0  503  0.19937676112E+02  0.67126323296E+02  0.34915941835E+02  0.78387927656E+02  0.47000000000E+01 0.  1.
         11    1    4    4    0    0 -0.36649547883E+02 -0.26492988440E+02  0.36402560183E+02  0.58053545838E+02  0.00000000000E+00 0. -1.
        -12    1    4    4    0    0  0.25719050751E+02 -0.39224958906E+02 -0.77190730143E+01  0.47535787159E+02  0.00000000000E+00 0.  1.
</event>
<event>
12    1  0.8313893E-002  0.1894375E+03  0.7818608E-02  0.1159152E+00
         21   -1    0    0  501  502  0.00000000000E+00  0.00000000000E+00  0.12998866430E+03  0.12998866430E+03  0.00000000000E+00 0.  1.
         21   -1    0    0  502  503 -0.00000000000E+00 -0.00000000000E+00 -0.36114231842E+03  0.36114231842E+03  0.00000000000E+00 0.  1.
         -6    2    1    2    0  503 -0.49378296270E+02 -0.53308281305E+02 -0.23576253665E+03  0.30244096172E+03  0.17494734247E+03 0.  0.
        -24    2    3    3    0    0 -0.81598432749E+02 -0.23295655516E+02 -0.81829823162E+02  0.14226522952E+03  0.79638456663E+02 0.  0.
          6    2    1    2  501    0  0.49378296270E+02  0.53308281305E+02  0.46088825313E+01  0.18869002100E+03  0.17407668778E+03 0.  0.
         24    2    5    5    0    0 -0.28685440008E+02  0.31480428742E+02  0.41292492513E+02  0.99593560292E+02  0.79999596571E+02 0.  0.
          5    1    5    5  501    0  0.78063736278E+02  0.21827852564E+02 -0.36683609982E+02  0.89096460707E+02  0.47000000000E+01 0. -1.
        -11    1    6    6    0    0  0.87477376088E+01  0.47261250547E+02  0.12084998550E+02  0.49560023270E+02  0.00000000000E+00 0.  1.
         12    1    6    6    0    0 -0.37433177617E+02 -0.15780821806E+02  0.29207493963E+02  0.50033537022E+02  0.00000000000E+00 0. -1.
         -5    1    3    3    0  503  0.32220136478E+02 -0.30012625790E+02 -0.15393271349E+03  0.16017573219E+03  0.47000000000E+01 0.  1.
         11    1    4    4    0    0 -0.83280612883E+02 -0.42519292498E+02 -0.79675172518E+02  0.12284821461E+03  0.00000000000E+00 0. -1.
        -12    1    4    4    0    0  0.16821801339E+01  0.19223636982E+02 -0.21546506445E+01  0.19417014915E+02  0.00000000000E+00 0.  1.
</event>
<event>
12    1  0.8313893E-002  0.1946782E+03  0.7818608E-02  0.1154323E+00
         21   -1    0    0  501  502  0.00000000000E+00  0.00000000000E+00  0.71650427688E+03  0.71650427688E+03  0.00000000000E+00 0.  1.
         21   -1    0    0  502  503 -0.00000000000E+00 -0.00000000000E+00 -0.89422804534E+02  0.89422804534E+02  0.00000000000E+00 0.  1.
         -6    2    1    2    0  503 -0.82174811615E+02 -0.42920277489E+02  0.55896589888E+02  0.20247719262E+03  0.17110737824E+03 0.  0.
        -24    2    3    3    0    0  0.20745336759E+02 -0.28102274498E+02  0.47865857251E+02  0.98080292187E+02  0.78156871713E+02 0.  0.
          6    2    1    2  501    0  0.82174811615E+02  0.42920277489E+02  0.57118488246E+03  0.60344988880E+03  0.17118629750E+03 0.  0.
         24    2    5    5    0    0  0.45400427858E+02  0.52811072592E+02  0.16917735068E+03  0.19961535742E+03  0.79844265256E+02 0.  0.
          5    1    5    5  501    0  0.36774383757E+02 -0.98907951032E+01  0.40200753178E+03  0.40383453138E+03  0.47000000000E+01 0. -1.
        -13    1    6    6    0    0  0.54351089950E+02  0.10443648182E+02  0.12971525063E+03  0.14102892261E+03  0.00000000000E+00 0.  1.
         14    1    6    6    0    0 -0.89506620923E+01  0.42367424410E+02  0.39462100058E+02  0.58586434812E+02  0.00000000000E+00 0. -1.
         -5    1    3    3    0  503 -0.10292014837E+03 -0.14818002991E+02  0.80307326378E+01  0.10439690044E+03  0.47000000000E+01 0.  1.
         13    1    4    4    0    0  0.37758065397E+02 -0.45757765262E+02  0.24414691781E+02  0.64152332453E+02  0.00000000000E+00 0. -1.
        -14    1    4    4    0    0 -0.17012728638E+02  0.17655490764E+02  0.23451165470E+02  0.33927959734E+02  0.00000000000E+00 0.  1.
</event>
<event>
12    1  0.8313893E-002  0.2677178E+03  0.7818608E-02  0.1102650E+00
         21   -1    0    0  501  502  0.00000000000E+00  0.00000000000E+00  0.82037918738E+02  0.82037918738E+02  0.00000000000E+00 0. -1.
         21   -1    0    0  502  503 -0.00000000000E+00 -0.00000000000E+00 -0.14979143361E+04  0.14979143361E+04  0.00000000000E+00 0. -1.
         -6    2    1    2    0  503 -0.19574355094E+03  0.63270201589E+02 -0.12187470330E+04  0.12478049259E+04  0.17133051870E+03 0.  0.
        -24    2    3    3    0    0 -0.15055647072E+03  0.60949380249E+02 -0.58456373659E+03  0.61199221620E+03  0.80234859825E+02 0.  0.
          6    2    1    2  501    0  0.19574355094E+03 -0.63270201589E+02 -0.19712938439E+03  0.33214732892E+03  0.17071378905E+03 0.  0.
         24    2    5    5    0    0  0.10911578189E+03  0.30552408457E+02 -0.84149633135E+02  0.16157896514E+03  0.78656835050E+02 0.  0.
          5    1    5    5  501    0  0.86627769054E+02 -0.93822610046E+02 -0.11297975126E+03  0.17056836378E+03  0.47000000000E+01 0. -1.
        -13    1    6    6    0    0  0.21377619580E+02 -0.11428811472E+02 -0.54896681720E+02  0.60010549193E+02  0.00000000000E+00 0.  1.
         14    1    6    6    0    0  0.87738162306E+02  0.41981219930E+02 -0.29252951414E+02  0.10156841595E+03  0.00000000000E+00 0. -1.
         -5    1    3    3    0  503 -0.45187080223E+02  0.23208213398E+01 -0.63418329637E+03  0.63581270970E+03  0.47000000000E+01 0.  1.
         13    1    4    4    0    0 -0.10180927721E+03  0.68352935441E+02 -0.49272147446E+03  0.50775161654E+03  0.00000000000E+00 0. -1.
        -14    1    4    4    0    0 -0.48747193507E+02 -0.74035551915E+01 -0.91842262127E+02  0.10424059966E+03  0.00000000000E+00 0.  1.
</event>
<event>
12    1  0.8313893E-002  0.1967445E+03  0.7818608E-02  0.1152907E+00
         21   -1    0    0  501  502  0.00000000000E+00  0.00000000000E+00  0.44311613204E+03  0.44311613204E+03  0.00000000000E+00 0. -1.
         21   -1    0    0  502  503 -0.00000000000E+00 -0.00000000000E+00 -0.87158731195E+02  0.87158731195E+02  0.00000000000E+00 0.  1.
         -6    2    1    2    0  503  0.81587261292E+02  0.43837263373E+02  0.19924630849E+03  0.27874602484E+03  0.17152862167E+03 0.  0.
        -24    2    3    3    0    0 -0.21575353720E+02  0.30856761018E+01  0.77505567117E+02  0.11398524337E+03  0.80687703441E+02 0.  0.
          6    2    1    2  501    0 -0.81587261292E+02 -0.43837263373E+02  0.15671109236E+03  0.25152883840E+03  0.17358053812E+03 0.  0.
         24    2    5    5    0    0 -0.30014666006E+02 -0.44406816865E+02  0.96084125178E+01  0.95575815368E+02  0.78546606118E+02 0.  0.
          5    1    5    5  501    0 -0.51572595286E+02  0.56955349184E+00  0.14710267984E+03  0.15595302303E+03  0.47000000000E+01 0. -1.
        -11    1    6    6    0    0 -0.49485199357E+02 -0.51017801554E+02  0.18077785806E+02  0.73337625885E+02  0.00000000000E+00 0.  1.
         12    1    6    6    0    0  0.19470533352E+02  0.66109846897E+01 -0.84693732881E+01  0.22238189482E+02  0.00000000000E+00 0. -1.
         -5    1    3    3    0  503  0.10316261501E+03  0.40751587271E+02  0.12174074137E+03  0.16476078147E+03  0.47000000000E+01 0.  1.
         11    1    4    4    0    0 -0.25357050752E+02  0.38113001048E+02  0.57407593306E+02  0.73424877534E+02  0.00000000000E+00 0. -1.
        -12    1    4    4    0    0  0.37816970320E+01 -0.35027324946E+02  0.20097973811E+02  0.40560365835E+02  0.00000000000E+00 0.  1.
</event>
<event>
12    1  0.8313893E-002  0.2606377E+03  0.7818608E-02  0.1106899E+00
         21   -1    0    0  503  502  0.00000000000E+00  0.00000000000E+00  0.43114921620E+03  0.43114921620E+03  0.00000000000E+00 0.  1.
         21   -1    0    0  501  503 -0.00000000000E+00 -0.00000000000E+00 -0.16214853051E+03  0.16214853051E+03  0.00000000000E+00 0.  1.
          6    2    1    2  501    0  0.21966022367E+02 -0.19408882255E+03  0.18711720636E+03  0.32010016303E+03  0.17116742762E+03 0.  0.
         24    2    3    3    0    0  0.50627809699E+02 -0.18900889120E+03  0.19676542726E+03  0.28907627027E+03  0.80999509892E+02 0.  0.
         -6    2    1    2    0  502 -0.21966022367E+02  0.19408882255E+03  0.81883479329E+02  0.27319758368E+03  0.17256604059E+03 0.  0.
        -24    2    5    5    0    0  0.47358373266E+02  0.12420367471E+03  0.20455188621E+02  0.15707122742E+03  0.81139308678E+02 0.  0.
          5    1    3    3  501    0 -0.28661787332E+02 -0.50799313483E+01 -0.96482208924E+01  0.31023892760E+02  0.47000000000E+01 0. -1.
        -11    1    4    4    0    0  0.59691213040E+02 -0.80165633119E+02  0.71541550292E+02  0.12291364068E+03  0.00000000000E+00 0.  1.
         12    1    4    4    0    0 -0.90634033412E+01 -0.10884325808E+03  0.12522387697E+03  0.16616262959E+03  0.00000000000E+00 0. -1.
         -5    1    5    5    0  502 -0.69324395633E+02  0.69885147839E+02  0.61428290708E+02  0.11612635626E+03  0.47000000000E+01 0.  1.
         13    1    6    6    0    0  0.21510782682E+02  0.21254051853E+02 -0.27243094033E+02  0.40701777163E+02  0.00000000000E+00 0. -1.
        -14    1    6    6    0    0  0.25847590584E+02  0.10294962286E+03  0.47698282654E+02  0.11636945026E+03  0.00000000000E+00 0.  1.
</event>
<event>
12    1  0.8313893E-002  0.1822736E+03  0.7818608E-02  0.1165781E+00
         21   -1    0    0  501  502  0.00000000000E+00  0.00000000000E+00  0.13155640254E+03  0.13155640254E+03  0.00000000000E+00 0. -1.
         21   -1    0    0  502  503 -0.00000000000E+00 -0.00000000000E+00 -0.27818285787E+03  0.27818285787E+03  0.00000000000E+00 0. -1.
         -6    2    1    2    0  503  0.37299174772E+02 -0.44205547148E+02 -0.13675009309E+03  0.22786891780E+03  0.17285339714E+03 0.  0.
        -24    2    3    3    0    0  0.11746858862E+02  0.88078958007E+01 -0.20083949234E+01  0.80760926155E+02  0.79389708537E+02 0.  0.
          6    2    1    2  501    0 -0.37299174772E+02  0.44205547148E+02 -0.98763622379E+01  0.18187034261E+03  0.17214505555E+03 0.  0.
         24    2    5    5    0    0 -0.59704690271E+02  0.43954488586E+02  0.47103005556E+02  0.12046343331E+03  0.82438452952E+02 0.  0.
          5    1    5    5  501    0  0.22405515500E+02  0.25105856213E+00 -0.56979367794E+02  0.61406909297E+02  0.47000000000E+01 0. -1.
        -13    1    6    6    0    0  0.85932132183E+01  0.30893468614E+02  0.38950084017E+02  0.50451548652E+02  0.00000000000E+00 0.  1.
         14    1    6    6    0    0 -0.68297903490E+02  0.13061019972E+02  0.81529215394E+01  0.70011884658E+02  0.00000000000E+00 0. -1.
         -5    1    3    3    0  503  0.25552315909E+02 -0.53013442949E+02 -0.13474169816E+03  0.14710799165E+03  0.47000000000E+01 0.  1.
         13    1    4    4    0    0 -0.29086596880E+02 -0.11731788173E+02 -0.12669537127E+02  0.33825761526E+02  0.00000000000E+00 0. -1.
        -14    1    4    4    0    0  0.40833455743E+02  0.20539683974E+02  0.10661142203E+02  0.46935164629E+02  0.00000000000E+00 0.  1.
</event>
<event>
12    1  0.8313893E-002  0.2425311E+03  0.7818608E-02  0.1118383E+00
         21   -1    0    0  503  502  0.00000000000E+00  0.00000000000E+00  0.48988822867E+03  0.48988822867E+03  0.00000000000E+00 0. -1.
         21   -1    0    0  501  503 -0.00000000000E+00 -0.00000000000E+00 -0.15160071603E+03  0.15160071603E+03  0.00000000000E+00 0.  1.
          6    2    1    2  501    0 -0.14896820914E+03  0.71544665652E+02  0.21479390399E+02  0.24348039769E+03  0.17751386800E+03 0.  0.
         24    2    3    3    0    0 -0.33500448376E+02  0.29300244996E+02 -0.46380506153E+02  0.10296545040E+03  0.80435988386E+02 0.  0.
         -6    2    1    2    0  502  0.14896820914E+03 -0.71544665652E+02  0.31680812224E+03  0.39800854700E+03  0.17530901475E+03 0.  0.
        -24    2    5    5    0    0  0.56982951846E+02  0.90841341312E+00  0.17150359355E+03  0.21133709154E+03  0.10955364734E+03 0.  0.
          5    1    3    3  501    0 -0.11546776076E+03  0.42244420656E+02  0.67859896552E+02  0.14051494729E+03  0.47000000000E+01 0. -1.
        -13    1    4    4    0    0 -0.49476068617E+02 -0.41288086343E+01 -0.43142639584E+02  0.65773974920E+02  0.00000000000E+00 0.  1.
         14    1    4    4    0    0  0.15975620241E+02  0.33429053631E+02 -0.32378665686E+01  0.37191475483E+02  0.00000000000E+00 0. -1.
         -5    1    5    5    0  502  0.91985257291E+02 -0.72453079065E+02  0.14530452869E+03  0.18667145546E+03  0.47000000000E+01 0.  1.
         13    1    6    6    0    0  0.54714673555E+02 -0.25009807680E+02  0.17503156263E+03  0.18508169520E+03  0.00000000000E+00 0. -1.
        -14    1    6    6    0    0  0.22682782908E+01  0.25918221093E+02 -0.35279690838E+01  0.26255396339E+02  0.00000000000E+00 0.  1.
</event>
<event>
12    1  0.8313893E-002  0.2269099E+03  0.7818608E-02  0.1129037E+00
         21   -1    0    0  503  502  0.00000000000E+00  0.00000000000E+00  0.10639938350E+03  0.10639938350E+03  0.00000000000E+00 0.  1.
         21   -1    0    0  501  503 -0.00000000000E+00 -0.00000000000E+00 -0.71462520900E+03  0.71462520900E+03  0.00000000000E+00 0.  1.
          6    2    1    2  501    0  0.14213609325E+03 -0.39205027350E+02 -0.53806424524E+03  0.58351510815E+03  0.17098843894E+03 0.  0.
         24    2    3    3    0    0  0.95895583678E+02 -0.75192658705E+02 -0.25776700876E+03  0.29712040652E+03  0.83587117891E+02 0.  0.
         -6    2    1    2    0  502 -0.14213609325E+03  0.39205027350E+02 -0.70161580250E+02  0.23750948435E+03  0.17247725832E+03 0.  0.
        -24    2    5    5    0    0 -0.24009737553E+02  0.17782536251E+02 -0.92824251356E+02  0.11524564792E+03  0.61420938062E+02 0.  0.
          5    1    3    3  501    0  0.46240509575E+02  0.35987631354E+02 -0.28029723649E+03  0.28639470162E+03  0.47000000000E+01 0. -1.
        -11    1    4    4    0    0  0.10838928693E+03 -0.54932434824E+02 -0.19245883490E+03  0.22760978241E+03  0.00000000000E+00 0.  1.
         12    1    4    4    0    0 -0.12493703249E+02 -0.20260223880E+02 -0.65308173859E+02  0.69510624118E+02  0.00000000000E+00 0. -1.
         -5    1    5    5    0  502 -0.11812635570E+03  0.21422491099E+02  0.22662671107E+02  0.12226383643E+03  0.47000000000E+01 0.  1.
         13    1    6    6    0    0  0.12827490466E+02 -0.11822935461E+02 -0.43824188531E+02  0.47168695286E+02  0.00000000000E+00 0. -1.
        -14    1    6    6    0    0 -0.36837228019E+02  0.29605471712E+02 -0.49000062825E+02  0.68076952637E+02  0.00000000000E+00 0.  1.
</event>
<event>
12    1  0.8313893E-002  0.2004854E+03  0.7818608E-02  0.1149916E+00
         21   -1    0    0  503  502  0.00000000000E+00  0.00000000000E+00  0.17658238514E+04  0.17658238514E+04  0.00000000000E+00 0. -1.
         21   -1    0    0  501  503 -0.00000000000E+00 -0.00000000000E+00 -0.30347092859E+02  0.30347092859E+02  0.00000000000E+00 0. -1.
          6    2    1    2  501    0  0.81228695921E+02  0.52607991084E+02  0.41405829511E+03  0.46004204314E+03  0.17558105803E+03 0.  0.
         24    2    3    3    0    0  0.27257159151E+02 -0.19397036773E+02  0.31216285450E+03  0.32401843623E+03  0.80144254512E+02 0.  0.
         -6    2    1    2    0  502 -0.81228695921E+02 -0.52607991084E+02  0.13214184634E+04  0.13361289011E+04  0.17241804762E+03 0.  0.
        -24    2    5    5    0    0 -0.31936310159E+01  0.21050709542E+01  0.28234014624E+03  0.29267845679E+03  0.77007079469E+02 0.  0.
          5    1    3    3  501    0  0.53971536771E+02  0.72005027856E+02  0.10189544061E+03  0.13602360691E+03  0.47000000000E+01 0. -1.
        -13    1    4    4    0    0 -0.91720563118E+01  0.22253169871E+02  0.43485625047E+02  0.49702412135E+02  0.00000000000E+00 0.  1.
         14    1    4    4    0    0  0.36429215462E+02 -0.41650206644E+02  0.26867722945E+03  0.27431602410E+03  0.00000000000E+00 0. -1.
         -5    1    5    5    0  502 -0.78035064905E+02 -0.54713062038E+02  0.10390783172E+04  0.10434504443E+04  0.47000000000E+01 0.  1.
         13    1    6    6    0    0  0.31317175461E+01  0.22721001994E+02  0.26210537745E+03  0.26310697534E+03  0.00000000000E+00 0. -1.
        -14    1    6    6    0    0 -0.63253485620E+01 -0.20615931040E+02  0.20234768791E+02  0.29571481449E+02  0.00000000000E+00 0.  1.
</event>
<event>
12    1  0.8313893E-002  0.1951127E+03  0.7818608E-02  0.1154009E+00
         21   -1    0    0  503  502  0.00000000000E+00  0.00000000000E+00  0.39194778294E+03  0.39194778294E+03  0.00000000000E+00 0.  1.
         21   -1    0    0  501  503 -0.00000000000E+00 -0.00000000000E+00 -0.10312271385E+03  0.10312271385E+03  0.00000000000E+00 0.  1.
          6    2    1    2  501    0 -0.88511604699E+02  0.26878649426E+02  0.20486774011E+03  0.28266099819E+03  0.17137585302E+03 0.  0.
         24    2    3    3    0    0 -0.90600285008E+02  0.52903933003E+02  0.78700995245E+02  0.15373537824E+03  0.80208990132E+02 0.  0.
         -6    2    1    2    0  502  0.88511604699E+02 -0.26878649426E+02  0.83957328983E+02  0.21240949860E+03  0.17179114076E+03 0.  0.
        -24    2    5    5    0    0  0.98577201407E+02 -0.65411125388E+02  0.94193033862E+02  0.17102196913E+03  0.79875567831E+02 0.  0.
          5    1    3    3  501    0  0.20886803090E+01 -0.26025283578E+02  0.12616674486E+03  0.12892561995E+03  0.47000000000E+01 0. -1.
        -11    1    4    4    0    0 -0.80066865317E+02  0.62686040434E+02  0.89730613085E+02  0.13561646475E+03  0.00000000000E+00 0.  1.
         12    1    4    4    0    0 -0.10533419691E+02 -0.97821074303E+01 -0.11029617840E+02  0.18118913485E+02  0.00000000000E+00 0. -1.
         -5    1    5    5    0  502 -0.10065596708E+02  0.38532475962E+02 -0.10235704879E+02  0.41387529465E+02  0.47000000000E+01 0.  1.
         11    1    6    6    0    0  0.49500013000E+02 -0.10321732427E+02  0.81861566851E+02  0.96219049957E+02  0.00000000000E+00 0. -1.
        -12    1    6    6    0    0  0.49077188406E+02 -0.55089392960E+02  0.12331467012E+02  0.74802919176E+02  0.00000000000E+00 0.  1.
</event>
<event>
12    1  0.8313893E-002  0.3748044E+03  0.7818608E-02  0.1052882E+00
         21   -1    0    0  501  502  0.00000000000E+00  0.00000000000E+00  0.16557249221E+03  0.16557249221E+03  0.00000000000E+00 0. -1.
         21   -1    0    0  502  503 -0.00000000000E+00 -0.00000000000E+00 -0.89705522709E+03  0.89705522709E+03  0.00000000000E+00 0.  1.
         -6    2    1    2    0  503  0.22448702240E+03  0.24588205026E+03 -0.48982977718E+03  0.61677510635E+03  0.17212180377E+03 0.  0.
        -24    2    3    3    0    0  0.11939987734E+03  0.19802022749E+03 -0.24373965303E+03  0.34489921308E+03  0.77962218529E+02 0.  0.
          6    2    1    2  501    0 -0.22448702240E+03 -0.24588205026E+03 -0.24165295769E+03  0.44585261295E+03  0.17186039290E+03 0.  0.
         24    2    5    5    0    0 -0.11244479661E+03 -0.20355342036E+03 -0.20481354691E+03  0.32045562153E+03  0.81641834543E+02 0.  0.
          5    1    5    5  501    0 -0.11204222580E+03 -0.42328629893E+02 -0.36839410781E+02  0.12539699142E+03  0.47000000000E+01 0. -1.
        -13    1    6    6    0    0  0.10871171391E+02 -0.41024649695E+02 -0.34498918228E+02  0.54693506095E+02  0.00000000000E+00 0.  1.
         14    1    6    6    0    0 -0.12331596800E+03 -0.16252877067E+03 -0.17031462868E+03  0.26576211544E+03  0.00000000000E+00 0. -1.
         -5    1    3    3    0  503  0.10508714506E+03  0.47861822763E+02 -0.24609012416E+03  0.27187589328E+03  0.47000000000E+01 0.  1.
         13    1    4    4    0    0  0.37274001082E+01  0.50142131895E+02 -0.23511851129E+02  0.55506162235E+02  0.00000000000E+00 0. -1.
        -14    1    4    4    0    0  0.11567247723E+03  0.14787809560E+03 -0.22022780190E+03  0.28939305084E+03  0.00000000000E+00 0.  1.
</event>
<event>
12    1  0.8313893E-002  0.1931133E+03  0.7818608E-02  0.1155735E+00
         21   -1    0    0  503  502  0.00000000000E+00  0.00000000000E+00  0.61802040874E+03  0.61802040874E+03  0.00000000000E+00 0.  1.
         21   -1    0    0  501  503 -0.00000000000E+00 -0.00000000000E+00 -0.73774615475E+02  0.73774615475E+02  0.00000000000E+00 0.  1.
          6    2    1    2  501    0 -0.78754932975E+02  0.38344475843E+02  0.12398801773E+03  0.22929166014E+03  0.17184003775E+03 0.  0.
         24    2    3    3    0    0 -0.64904139756E+02  0.64424702341E+02  0.26269012560E+02  0.12710009171E+03  0.84269108589E+02 0.  0.
         -6    2    1    2    0  502  0.78754932975E+02 -0.38344475843E+02  0.42025777553E+03  0.46250336408E+03  0.17210498421E+03 0.  0.
        -24    2    5    5    0    0  0.94242464027E+02  0.23579239580E+02  0.32126119377E+03  0.34461857562E+03  0.78202208853E+02 0.  0.
          5    1    3    3  501    0 -0.13850793219E+02 -0.26080226498E+02  0.97719005170E+02  0.10219156843E+03  0.47000000000E+01 0. -1.
        -11    1    4    4    0    0 -0.53187837469E+01  0.63132019866E+02  0.40194623590E+01  0.63483048687E+02  0.00000000000E+00 0.  1.
         12    1    4    4    0    0 -0.59585356010E+02  0.12926824749E+01  0.22249550202E+02  0.63617043023E+02  0.00000000000E+00 0. -1.
         -5    1    5    5    0  502 -0.15487531052E+02 -0.61923715423E+02  0.98996581761E+02  0.11788478846E+03  0.47000000000E+01 0.  1.
         11    1    6    6    0    0 -0.68480665869E+01 -0.62000731369E+01  0.35692399146E+01  0.99033527883E+01  0.00000000000E+00 0. -1.
        -12    1    6    6    0    0  0.10109053061E+03  0.29779312717E+02  0.31769195386E+03  0.33471522283E+03  0.00000000000E+00 0.  1.
</event>
<event>
12    1  0.8313893E-002  0.1732248E+03  0.7818608E-02  0.1174887E+00
         21   -1    0    0  501  502  0.00000000000E+00  0.00000000000E+00  0.88976813627E+02  0.88976813627E+02  0.00000000000E+00 0.  1.
         21   -1    0    0  502  503 -0.00000000000E+00 -0.00000000000E+00 -0.34072938233E+03  0.34072938233E+03  0.00000000000E+00 0.  1.
         -6    2    1    2    0  503 -0.14251548260E+02  0.66465191747E+01 -0.97327331969E+02  0.19869432542E+03  0.17250954339E+03 0.  0.
        -24    2    3    3    0    0 -0.39442918517E+02  0.83568976938E+01  0.68155058548E+01  0.91431325270E+02  0.81778081173E+02 0.  0.
          6    2    1    2  501    0  0.14251548260E+02 -0.66465191747E+01 -0.15442523673E+03  0.23101187054E+03  0.17109075880E+03 0.  0.
         24    2    5    5    0    0 -0.51779436499E+02 -0.26720461283E+02 -0.11429048931E+03  0.15103723674E+03  0.79717236791E+02 0.  0.
          5    1    5    5  501    0  0.66030984759E+02  0.20073942109E+02 -0.40134747425E+02  0.79974633796E+02  0.47000000000E+01 0. -1.
        -13    1    6    6    0    0 -0.46307004300E+02 -0.51398222356E+02 -0.61746837191E+02  0.92729649043E+02  0.00000000000E+00 0.  1.
         14    1    6    6    0    0 -0.54724321991E+01  0.24677761072E+02 -0.52543652116E+02  0.58307587700E+02  0.00000000000E+00 0. -1.
         -5    1    3    3    0  503  0.25191370257E+02 -0.17103785191E+01 -0.10414283782E+03  0.10726300015E+03  0.47000000000E+01 0.  1.
         13    1    4    4    0    0  0.33393161373E+01 -0.20972431179E+02 -0.23240715246E+02  0.31482133774E+02  0.00000000000E+00 0. -1.
        -14    1    4    4    0    0 -0.42782234654E+02  0.29329328873E+02  0.30056221101E+02  0.59949191496E+02  0.00000000000E+00 0.  1.
</event>
<event>
12    1  0.8313893E-002  0.2285939E+03  0.7818608E-02  0.1127709E+00
         21   -1    0    0  503  502  0.00000000000E+00  0.00000000000E+00  0.19448726582E+03  0.19448726582E+03  0.00000000000E+00 0. -1.
         21   -1    0    0  501  503 -0.00000000000E+00 -0.00000000000E+00 -0.76242283690E+03  0.76242283690E+03  0.00000000000E+00 0.  1.
          6    2    1    2  501    0 -0.75490540385E+02  0.13040747964E+03 -0.66928337727E+03  0.70724494443E+03  0.17190183213E+03 0.  0.
         24    2    3    3    0    0 -0.63864691049E+02  0.13740193650E+03 -0.67137595572E+03  0.69273454526E+03  0.78596980533E+02 0.  0.
         -6    2    1    2    0  502  0.75490540385E+02 -0.13040747964E+03  0.10134780619E+03  0.24966515829E+03  0.17133703923E+03 0.  0.
        -24    2    5    5    0    0  0.11031060193E+03 -0.13304918515E+03  0.73088072311E+02  0.20449749450E+03  0.81282497334E+02 0.  0.
          5    1    3    3  501    0 -0.11625849336E+02 -0.69944568567E+01  0.20925784538E+01  0.14510399171E+02  0.47000000000E+01 0. -1.
        -13    1    4    4    0    0 -0.26063929673E+02  0.10312092156E+03 -0.30924069126E+03  0.32702149474E+03  0.00000000000E+00 0.  1.
         14    1    4    4    0    0 -0.37800761376E+02  0.34281014939E+02 -0.36213526447E+03  0.36571305052E+03  0.00000000000E+00 0. -1.
         -5    1    5    5    0  502 -0.34820061546E+02  0.26417055119E+01  0.28259733877E+02  0.45167663797E+02  0.47000000000E+01 0.  1.
         11    1    6    6    0    0  0.29821825820E+02 -0.22787285731E+02  0.55294183586E+02  0.66828500093E+02  0.00000000000E+00 0. -1.
        -12    1    6    6    0    0  0.80488776111E+02 -0.11026189942E+03  0.17793888725E+02  0.13766899440E+03  0.00000000000E+00 0.  1.
</event>
<event>
12    1  0.8313893E-002  0.2089023E+03  0.7818608E-02  0.1143207E+00
         21   -1    0    0  501  502  0.00000000000E+00  0.00000000000E+00  0.70106357850E+03  0.70106357850E+03  0.00000000000E+00 0.  1.
         21   -1    0    0  502  503 -0.00000000000E+00 -0.00000000000E+00 -0.87937772087E+02  0.87937772087E+02  0.00000000000E+00 0.  1.
         -6    2    1    2    0  503 -0.10879952894E+03  0.28832792849E+02  0.86729523049E+02  0.22266820976E+03  0.17143644311E+03 0.  0.
        -24    2    3    3    0    0 -0.11482958773E+03 -0.32372143206E+02  0.55613552919E+02  0.15358348349E+03  0.79127929706E+02 0.  0.
          6    2    1    2  501    0  0.10879952894E+03 -0.28832792849E+02  0.52639628336E+03  0.56633314083E+03  0.17598724902E+03 0.  0.
         24    2    5    5    0    0 -0.10980829398E+02 -0.33779065782E+02  0.24343459466E+03  0.25898772092E+03  0.80948340399E+02 0.  0.
          5    1    5    5  501    0  0.11978035834E+03  0.49462729325E+01  0.28296168870E+03  0.30734541990E+03  0.47000000000E+01 0. -1.
        -11    1    6    6    0    0  0.33140610031E+02 -0.20056277030E+01  0.75697926516E+02  0.82658929672E+02  0.00000000000E+00 0.  1.
         12    1    6    6    0    0 -0.44121439429E+02 -0.31773438079E+02  0.16773666814E+03  0.17632879125E+03  0.00000000000E+00 0. -1.
         -5    1    3    3    0  503  0.60300587829E+01  0.61204936055E+02  0.31115970131E+02  0.69084726269E+02  0.47000000000E+01 0.  1.
         11    1    4    4    0    0  0.90788767664E+01 -0.15675745077E+02  0.62454536109E+01  0.19161437260E+02  0.00000000000E+00 0. -1.
        -12    1    4    4    0    0 -0.12390846449E+03 -0.16696398129E+02  0.49368099308E+02  0.13442204623E+03  0.00000000000E+00 0.  1.
</event>
<event>
12    1  0.8313893E-002  0.2053351E+03  0.7818608E-02  0.1145315E+00
         21   -1    0    0  501  502  0.00000000000E+00  0.00000000000E+00  0.83716910061E+03  0.83716910061E+03  0.00000000000E+00 0.  1.
         21   -1    0    0  502  503 -0.00000000000E+00 -0.00000000000E+00 -0.81878928729E+02  0.81878928729E+02  0.00000000000E+00 0.  1.
         -6    2    1    2    0  503  0.11372947755E+03  0.69606419063E+01  0.92549688462E+02  0.22522867685E+03  0.17082057090E+03 0.  0.
        -24    2    3    3    0    0  0.31989855554E+02  0.52624231539E+02  0.84084097235E+02  0.13109958753E+03  0.79525504326E+02 0.  0.
          6    2    1    2  501    0 -0.11372947755E+03 -0.69606419063E+01  0.66274048342E+03  0.69381935249E+03  0.17081422928E+03 0.  0.
         24    2    5    5    0    0 -0.12175612533E+03 -0.36860126496E+02  0.63308951175E+03  0.65069538729E+03  0.80118251217E+02 0.  0.
          5    1    5    5  501    0  0.80266477782E+01  0.29899484589E+02  0.29650971673E+02  0.43123965198E+02  0.47000000000E+01 0. -1.
        -11    1    6    6    0    0 -0.69078515537E+02  0.23517782775E+01  0.46712441451E+03  0.47221032476E+03  0.00000000000E+00 0.  1.
         12    1    6    6    0    0 -0.52677609790E+02 -0.39211904773E+02  0.16596509723E+03  0.17848506254E+03  0.00000000000E+00 0. -1.
         -5    1    3    3    0  503  0.81739621995E+02 -0.45663589632E+02  0.84655912269E+01  0.94129089323E+02  0.47000000000E+01 0.  1.
         11    1    4    4    0    0 -0.14525243636E+02  0.46050955151E+02  0.21529598582E+02  0.52869620654E+02  0.00000000000E+00 0. -1.
        -12    1    4    4    0    0  0.46515099189E+02  0.65732763875E+01  0.62554498653E+02  0.78229966872E+02  0.00000000000E+00 0.  1.
</event>
<event>
12    1  0.8313893E-002  0.2010755E+03  0.7818608E-02  0.1150553E+00
         21   -1    0    0  501  502  0.00000000000E+00  0.00000000000E+00  0.28105105022E+03  0.28105105022E+03  0.00000000000E+00 0. -1.
         21   -1    0    0  502  503 -0.00000000000E+00 -0.00000000000E+00 -0.16619282523E+03  0.16619282523E+03  0.00000000000E+00 0. -1.
         -6    2    1    2    0  503  0.87918538137E+02  0.14697853008E+02 -0.35348626156E+02  0.19625891445E+03  0.17123767079E+03 0.  0.
        -24    2    3    3    0    0  0.12607264459E+03  0.66999254289E+01 -0.10050067969E+02  0.14954906826E+03  0.79528103442E+02 0.  0.
          6    2    1    2  501    0 -0.87918538137E+02 -0.14697853008E+02  0.15020685114E+03  0.25098496100E+03  0.18023777708E+03 0.  0.
         24    2    5    5    0    0 -0.71846677094E+02 -0.23413938471E+02  0.18276751421E+03  0.21334772356E+03  0.80019556215E+02 0.  0.
          5    1    5    5  501    0 -0.16071861043E+02  0.87160854639E+01 -0.32560663061E+02  0.37637237440E+02  0.47000000000E+01 0. -1.
        -13    1    6    6    0    0  0.89777152720E+01 -0.18132749088E+02  0.10073167709E+02  0.22602315561E+02  0.00000000000E+00 0.  1.
         14    1    6    6    0    0 -0.80824392366E+02 -0.52811893834E+01  0.17269434650E+03  0.19074540800E+03  0.00000000000E+00 0. -1.
         -5    1    3    3    0  503 -0.38154106450E+02  0.79979275787E+01 -0.25298558187E+02  0.46709846188E+02  0.47000000000E+01 0.  1.
         11    1    4    4    0    0  0.78166605456E+02 -0.34713000003E+02 -0.10893183300E+02  0.86218745179E+02  0.00000000000E+00 0. -1.
        -12    1    4    4    0    0  0.47906039130E+02  0.41412925432E+02  0.84311533171E+00  0.63330323080E+02  0.00000000000E+00 0.  1.
</event>
<event>
12    1  0.8313893E-002  0.1939520E+03  0.7818608E-02  0.1155812E+00
         21   -1    0    0  503  502  0.00000000000E+00  0.00000000000E+00  0.11930995440E+03  0.11930995440E+03  0.00000000000E+00 0.  1.
         21   -1    0    0  501  503 -0.00000000000E+00 -0.00000000000E+00 -0.31306573121E+03  0.31306573121E+03  0.00000000000E+00 0. -1.
          6    2    1    2  501    0 -0.89231601352E+02  0.20556894555E+02 -0.73121104581E+02  0.20727781027E+03  0.17097523243E+03 0.  0.
         24    2    3    3    0    0 -0.17774039045E+01  0.19766033893E+02 -0.87598568558E+02  0.11850535354E+03  0.77305590633E+02 0.  0.
         -6    2    1    2    0  502  0.89231601352E+02 -0.20556894555E+02 -0.12063467223E+03  0.22509787534E+03  0.16652766961E+03 0.  0.
        -24    2    5    5    0    0  0.86679701877E+02 -0.64567038192E+02 -0.11979482434E+03  0.18075601838E+03  0.81484140203E+02 0.  0.
          5    1    3    3  501    0 -0.87454197447E+02  0.79086066228E+00  0.14477463977E+02  0.88772456736E+02  0.47000000000E+01 0. -1.
        -11    1    4    4    0    0  0.13912380162E+02 -0.20603446952E+02 -0.51727766244E+01  0.25393187395E+02  0.00000000000E+00 0.  1.
         12    1    4    4    0    0 -0.15689784067E+02  0.40369480845E+02 -0.82425791934E+02  0.93112166142E+02  0.00000000000E+00 0. -1.
         -5    1    5    5    0  502  0.25518994748E+01  0.44010143637E+02 -0.83984789012E+00  0.44341856956E+02  0.47000000000E+01 0.  1.
         11    1    6    6    0    0  0.45136124001E+02 -0.31690761232E+01 -0.90242356192E+02  0.10095046104E+03  0.00000000000E+00 0. -1.
        -12    1    6    6    0    0  0.41543577876E+02 -0.61397962069E+02 -0.29552468146E+02  0.79805557341E+02  0.00000000000E+00 0.  1.
</event>
<event>
12    1  0.8313893E-002  0.2122573E+03  0.7818608E-02  0.1139869E+00
         21   -1    0    0  501  502  0.00000000000E+00  0.00000000000E+00  0.20594318329E+03  0.20594318329E+03  0.00000000000E+00 0.  1.
         21   -1    0    0  502  503 -0.00000000000E+00 -0.00000000000E+00 -0.33347348278E+03  0.33347348278E+03  0.00000000000E+00 0. -1.
         -6    2    1    2    0  503 -0.11594017165E+03  0.43635805887E+02 -0.22227166741E+03  0.30733997548E+03  0.17235706958E+03 0.  0.
        -24    2    3    3    0    0 -0.41405850593E+02 -0.42002711416E+02 -0.93582756515E+02  0.13566514783E+03  0.78540612350E+02 0.  0.
          6    2    1    2  501    0  0.11594017165E+03 -0.43635805887E+02  0.94741367927E+02  0.23207669059E+03  0.17186464605E+03 0.  0.
         24    2    5    5    0    0  0.86368198575E+02 -0.54077078453E+01  0.12631898811E+03  0.17415324829E+03  0.82970826819E+02 0.  0.
          5    1    5    5  501    0  0.29571973079E+02 -0.38228098042E+02 -0.31577620184E+02  0.57923442303E+02  0.47000000000E+01 0. -1.
        -13    1    6    6    0    0  0.28185164942E+02  0.35919156700E+02  0.31462268032E+02  0.55447846221E+02  0.00000000000E+00 0.  1.
         14    1    6    6    0    0  0.58183033633E+02 -0.41326864546E+02  0.94856720079E+02  0.11870540207E+03  0.00000000000E+00 0. -1.
         -5    1    3    3    0  503 -0.74534321061E+02  0.85638517303E+02 -0.12868891090E+03  0.17167482766E+03  0.47000000000E+01 0.  1.
         13    1    4    4    0    0  0.23321047774E+01  0.81363879369E+01 -0.60992421974E+02  0.61576903622E+02  0.00000000000E+00 0. -1.
        -14    1    4    4    0    0 -0.43737955371E+02 -0.50139099353E+02 -0.32590334540E+02  0.74088244205E+02  0.00000000000E+00 0.  1.
</event>
<event>
12    1  0.8313893E-002  0.2932348E+03  0.7818608E-02  0.1088686E+00
         21   -1    0    0  503  502  0.00000000000E+00  0.00000000000E+00  0.22633710629E+03  0.22633710629E+03  0.00000000000E+00 0. -1.
         21   -1    0    0  501  503 -0.00000000000E+00 -0.00000000000E+00 -0.54228741214E+03  0.54228741214E+03  0.00000000000E+00 0.  1.
          6    2    1    2  501    0 -0.21797859983E+03  0.93869996081E+02 -0.36834668056E+03  0.47074526116E+03  0.17203365276E+03 0.  0.
         24    2    3    3    0    0 -0.16762411291E+03  0.21279145759E+02 -0.31784974093E+03  0.36887751939E+03  0.80569977198E+02 0.  0.
         -6    2    1    2    0  502  0.21797859983E+03 -0.93869996081E+02  0.52396374699E+02  0.29787925727E+03  0.17222202438E+03 0.  0.
        -24    2    5    5    0    0  0.16972540396E+03 -0.12685481598E+03  0.69287719493E+02  0.23685650099E+03  0.80008480176E+02 0.  0.
          5    1    3    3  501    0 -0.50354486919E+02  0.72590850322E+02 -0.50496939628E+02  0.10186774178E+03  0.47000000000E+01 0. -1.
        -11    1    4    4    0    0 -0.14985182884E+03  0.43716642117E+02 -0.28760363076E+03  0.32723472284E+03  0.00000000000E+00 0.  1.
         12    1    4    4    0    0 -0.17772284067E+02 -0.22437496359E+02 -0.30246110174E+02  0.41642796549E+02  0.00000000000E+00 0. -1.
         -5    1    5    5    0  502  0.48253195866E+02  0.32984819898E+02 -0.16891344794E+02  0.61022756280E+02  0.47000000000E+01 0.  1.
         11    1    6    6    0    0  0.50004261788E+02 -0.49848746036E+02 -0.13929992344E+02  0.71967828681E+02  0.00000000000E+00 0. -1.
        -12    1    6    6    0    0  0.11972114217E+03 -0.77006069944E+02  0.83217711837E+02  0.16488867231E+03  0.00000000000E+00 0.  1.
</event>
<event>
12    1  0.8313893E-002  0.2614192E+03  0.7818608E-02  0.1106561E+00
         21   -1    0    0  503  502  0.00000000000E+00  0.00000000000E+00  0.62822621623E+02  0.62822621623E+02  0.00000000000E+00 0. -1.
         21   -1    0    0  501  503 -0.00000000000E+00 -0.00000000000E+00 -0.18306389081E+04  0.18306389081E+04  0.00000000000E+00 0.  1.
          6    2    1    2  501    0 -0.15206878687E+03  0.12412783749E+03 -0.14917656941E+04  0.15144982246E+04  0.17264805279E+03 0.  0.
         24    2    3    3    0    0 -0.94430805926E+02  0.14578012698E+03 -0.12971491832E+04  0.13103202757E+04  0.64608040575E+02 0.  0.
         -6    2    1    2    0  502  0.15206878687E+03 -0.12412783749E+03 -0.27605059239E+03  0.37896330517E+03  0.16993122471E+03 0.  0.
        -24    2    5    5    0    0  0.29859345904E+02 -0.10415222293E+03 -0.17170298115E+03  0.21696118602E+03  0.76491675538E+02 0.  0.
          5    1    3    3  501    0 -0.57637980939E+02 -0.21652289486E+02 -0.19461651089E+03  0.20417794885E+03  0.47000000000E+01 0. -1.
        -11    1    4    4    0    0 -0.42085022826E+02  0.44736905259E+02 -0.67990868312E+03  0.68267734488E+03  0.00000000000E+00 0.  1.
         12    1    4    4    0    0 -0.52345783100E+02  0.10104322172E+03 -0.61724050013E+03  0.62764293086E+03  0.00000000000E+00 0. -1.
         -5    1    5    5    0  502  0.12220944096E+03 -0.19975614558E+02 -0.10434761124E+03  0.16200211915E+03  0.47000000000E+01 0.  1.
         11    1    6    6    0    0  0.31910647573E+02 -0.11010172862E+03 -0.12409318128E+03  0.16893725969E+03  0.00000000000E+00 0. -1.
        -12    1    6    6    0    0 -0.20513016692E+01  0.59495056872E+01 -0.47609799870E+02  0.48023926330E+02  0.00000000000E+00 0.  1.
</event>
<event>
12    1  0.8313893E-002  0.2166789E+03  0.7818608E-02  0.1136518E+00
         21   -1    0    0  501  502  0.00000000000E+00  0.00000000000E+00  0.28274049146E+03  0.28274049146E+03  0.00000000000E+00 0.  1.
         21   -1    0    0  502  503 -0.00000000000E+00 -0.00000000000E+00 -0.23517623330E+03  0.23517623330E+03  0.00000000000E+00 0.  1.
         -6    2    1    2    0  503  0.53971329785E+02 -0.11914439848E+03  0.16469565765E+03  0.27160490730E+03  0.17186120532E+03 0.  0.
        -24    2    3    3    0    0  0.72945644275E+02 -0.10480056286E+03  0.56318739895E+02  0.16054899106E+03  0.79372243712E+02 0.  0.
          6    2    1    2  501    0 -0.53971329785E+02  0.11914439848E+03 -0.11713139949E+03  0.24631181746E+03  0.17274679315E+03 0.  0.
         24    2    5    5    0    0 -0.70644737999E+02  0.15561087769E+02 -0.79969741560E+02  0.13490901848E+03  0.81070692871E+02 0.  0.
          5    1    5    5  501    0  0.16673408214E+02  0.10358331072E+03 -0.37161657925E+02  0.11140279898E+03  0.47000000000E+01 0. -1.
        -13    1    6    6    0    0  0.11515208537E+02  0.57144696844E+00 -0.41292117345E+02  0.42871500255E+02  0.00000000000E+00 0.  1.
         14    1    6    6    0    0 -0.82159946536E+02  0.14989640800E+02 -0.38677624215E+02  0.92037518225E+02  0.00000000000E+00 0. -1.
         -5    1    3    3    0  503 -0.18974314490E+02 -0.14343835627E+02  0.10837691776E+03  0.11105591624E+03  0.47000000000E+01 0.  1.
         13    1    4    4    0    0  0.23154842959E+02 -0.70486688602E+02 -0.50882359300E+01  0.74366727556E+02  0.00000000000E+00 0. -1.
        -14    1    4    4    0    0  0.49790801316E+02 -0.34313874256E+02  0.61406975825E+02  0.86182263501E+02  0.00000000000E+00 0.  1.
</event>
<event>
12    1  0.8313893E-002  0.1961851E+03  0.7818608E-02  0.1153106E+00
         21   -1    0    0  501  502  0.00000000000E+00  0.00000000000E+00  0.11119600004E+03  0.11119600004E+03  0.00000000000E+00 0. -1.
         21   -1    0    0  502  503 -0.00000000000E+00 -0.00000000000E+00 -0.40929681907E+03  0.40929681907E+03  0.00000000000E+00 0. -1.
         -6    2    1    2    0  503  0.71113081112E+02 -0.61083386735E+02 -0.45951482593E+02  0.20101220186E+03  0.17177344412E+03 0.  0.
        -24    2    3    3    0    0  0.83999044498E+02 -0.99686685208E+02 -0.27460027262E+02  0.15606460320E+03  0.81294726706E+02 0.  0.
          6    2    1    2  501    0 -0.71113081112E+02  0.61083386735E+02 -0.25214933644E+03  0.31948061724E+03  0.17233782663E+03 0.  0.
         24    2    5    5    0    0 -0.86422440765E+01 -0.30828278993E+02 -0.93977081626E+02  0.12611331916E+03  0.77767642559E+02 0.  0.
          5    1    5    5  501    0 -0.62470837035E+02  0.91911665728E+02 -0.15817225481E+03  0.19336729809E+03  0.47000000000E+01 0. -1.
        -13    1    6    6    0    0 -0.13529796192E+02  0.13901423293E+02 -0.74672514006E+02  0.77151081020E+02  0.00000000000E+00 0.  1.
         14    1    6    6    0    0  0.48875521153E+01 -0.44729702286E+02 -0.19304567620E+02  0.48962238136E+02  0.00000000000E+00 0. -1.
         -5    1    3    3    0  503 -0.12885963386E+02  0.38603298473E+02 -0.18491455331E+02  0.44947598664E+02  0.47000000000E+01 0.  1.
         11    1    4    4    0    0  0.65787037409E+02 -0.68112061559E+02 -0.55782605643E+02  0.10990398679E+03  0.00000000000E+00 0. -1.
        -12    1    4    4    0    0  0.18212007089E+02 -0.31574623649E+02  0.28322578381E+02  0.46160616405E+02  0.00000000000E+00 0.  1.
</event>
<event>
12    1  0.8313893E-002  0.2241048E+03  0.7818608E-02  0.1131189E+00
         21   -1    0    0  503  502  0.00000000000E+00  0.00000000000E+00  0.94330675759E+02  0.94330675759E+02  0.00000000000E+00 0. -1.
         21   -1    0    0  501  503 -0.00000000000E+00 -0.00000000000E+00 -0.70387626293E+03  0.70387626293E+03  0.00000000000E+00 0. -1.
          6    2    1    2  501    0 -0.46978851136E+02  0.13585707342E+03 -0.50512232569E+03  0.55260431606E+03  0.17192675583E+03 0.  0.
         24    2    3    3    0    0 -0.15904581362E+02  0.47041314823E+02 -0.40121813840E+03  0.41234733993E+03  0.81169533449E+02 0.  0.
         -6    2    1    2    0  502  0.46978851136E+02 -0.13585707342E+03 -0.10442326148E+03  0.24560262262E+03  0.16956495466E+03 0.  0.
        -24    2    5    5    0    0  0.68707164069E+02 -0.57380342097E+02 -0.12384368971E+02  0.12262309312E+03  0.82884692909E+02 0.  0.
          5    1    3    3  501    0 -0.31074269774E+02  0.88815758597E+02 -0.10390418729E+03  0.14025697613E+03  0.47000000000E+01 0. -1.
        -11    1    4    4    0    0  0.19535935634E+02  0.52203608219E+02 -0.29595850280E+03  0.30116159262E+03  0.00000000000E+00 0.  1.
         12    1    4    4    0    0 -0.35440516996E+02 -0.51622933967E+01 -0.10525963560E+03  0.11118574731E+03  0.00000000000E+00 0. -1.
         -5    1    5    5    0  502 -0.21728312933E+02 -0.78476731322E+02 -0.92038892508E+02  0.12297952950E+03  0.47000000000E+01 0.  1.
         11    1    6    6    0    0 -0.56277055414E+01  0.12885659230E+02  0.10811892595E+02  0.17737201158E+02  0.00000000000E+00 0. -1.
        -12    1    6    6    0    0  0.74334869611E+02 -0.70266001327E+02 -0.23196261566E+02  0.10488589196E+03  0.00000000000E+00 0.  1.
</event>
<event>
12    1  0.8313893E-002  0.2104971E+03  0.7818608E-02  0.1141369E+00
         21   -1    0    0  503  502  0.00000000000E+00  0.00000000000E+00  0.12550013807E+03  0.12550013807E+03  0.00000000000E+00 0. -1.
         21   -1    0    0  501  503 -0.00000000000E+00 -0.00000000000E+00 -0.38598869937E+03  0.38598869937E+03  0.00000000000E+00 0. -1.
          6    2    1    2  501    0 -0.95812298650E+02 -0.70334939865E+02 -0.20708074385E+03  0.29528204080E+03  0.17372981554E+03 0.  0.
         24    2    3    3    0    0 -0.73602142047E+02  0.10286885840E+02 -0.56919026100E+02  0.12334076794E+03  0.80312353772E+02 0.  0.
         -6    2    1    2    0  502  0.95812298650E+02  0.70334939865E+02 -0.53407817455E+02  0.21620679664E+03  0.17252821105E+03 0.  0.
        -24    2    5    5    0    0  0.12123891217E+03  0.44626933735E+02 -0.79408189036E+02  0.17142372420E+03  0.79937448638E+02 0.  0.
          5    1    3    3  501    0 -0.22210156603E+02 -0.80621825705E+02 -0.15016171775E+03  0.17194127286E+03  0.47000000000E+01 0. -1.
        -13    1    4    4    0    0 -0.79669873296E+00 -0.83720452938E+01 -0.46746614377E+02  0.47497071773E+02  0.00000000000E+00 0.  1.
         14    1    4    4    0    0 -0.72805443314E+02  0.18658931134E+02 -0.10172411722E+02  0.75843696162E+02  0.00000000000E+00 0. -1.
         -5    1    5    5    0  502 -0.25426613521E+02  0.25708006130E+02  0.26000371581E+02  0.44783072434E+02  0.47000000000E+01 0.  1.
         11    1    6    6    0    0  0.95775969477E+02  0.63077045426E+02 -0.41009874775E+02  0.12179310251E+03  0.00000000000E+00 0. -1.
        -12    1    6    6    0    0  0.25462942694E+02 -0.18450111691E+02 -0.38398314261E+02  0.49630621698E+02  0.00000000000E+00 0.  1.
</event>
<event>
12    1  0.8313893E-002  0.2287928E+03  0.7818608E-02  0.1127799E+00
         21   -1    0    0  501  502  0.00000000000E+00  0.00000000000E+00  0.84060841093E+02  0.84060841093E+02  0.00000000000E+00 0. -1.
         21   -1    0    0  502  503 -0.00000000000E+00 -0.00000000000E+00 -0.92325991673E+03  0.92325991673E+03  0.00000000000E+00 0. -1.
         -6    2    1    2    0  503  0.14790379875E+03  0.10430368203E+02 -0.71025736700E+03  0.74619814353E+03  0.17424642255E+03 0.  0.
        -24    2    3    3    0    0  0.30974770531E+02  0.48857027173E+02 -0.39838669692E+03  0.41088573605E+03  0.82272001853E+02 0.  0.
          6    2    1    2  501    0 -0.14790379875E+03 -0.10430368203E+02 -0.12894170863E+03  0.26112261429E+03  0.17197304789E+03 0.  0.
         24    2    5    5    0    0 -0.51516937317E+02  0.47838327907E+02 -0.96903722294E+02  0.14392965131E+03  0.79893132894E+02 0.  0.
          5    1    5    5  501    0 -0.96386861432E+02 -0.58268696109E+02 -0.32037986340E+02  0.11719296298E+03  0.47000000000E+01 0. -1.
        -13    1    6    6    0    0 -0.15827590686E+02 -0.75212157924E+01 -0.71036156768E+02  0.73165681042E+02  0.00000000000E+00 0.  1.
         14    1    6    6    0    0 -0.35689346630E+02  0.55359543699E+02 -0.25867565526E+02  0.70763970265E+02  0.00000000000E+00 0. -1.
         -5    1    3    3    0  503  0.11692902822E+03 -0.38426658970E+02 -0.31187067008E+03  0.33531240749E+03  0.47000000000E+01 0.  1.
         13    1    4    4    0    0  0.39529828933E+02  0.39627915725E+02 -0.39337973388E+03  0.39734191084E+03  0.00000000000E+00 0. -1.
        -14    1    4    4    0    0 -0.85550584023E+01  0.92291114478E+01 -0.50069630402E+01  0.13543825208E+02  0.00000000000E+00 0.  1.
</event>
<event>
12    1  0.8313893E-002  0.2012081E+03  0.7818608E-02  0.1154059E+00
         21   -1    0    0  501  502  0.00000000000E+00  0.00000000000E+00  0.25163112114E+04  0.25163112114E+04  0.00000000000E+00 0.  1.
         21   -1    0    0  502  503 -0.00000000000E+00 -0.00000000000E+00 -0.27730213778E+02  0.27730213778E+02  0.00000000000E+00 0.  1.
         -6    2    1    2    0  503 -0.45110656039E+01 -0.67315472664E+02  0.31771933693E+03  0.36387513410E+03  0.16403601308E+03 0.  0.
        -24    2    3    3    0    0  0.30260318366E+02 -0.69635943651E+02  0.30910193553E+03  0.32767039221E+03  0.77839757625E+02 0.  0.
          6    2    1    2  501    0  0.45110656039E+01  0.67315472664E+02  0.21708616607E+04  0.21801662910E+04  0.18955997549E+03 0.  0.
         24    2    5    5    0    0  0.45228393670E+01 -0.22562749382E+02  0.16101300725E+04  0.16122577606E+04  0.79540572444E+02 0.  0.
          5    1    5    5  501    0 -0.11773763102E-01  0.89878222046E+02  0.56073158819E+03  0.56790853043E+03  0.47000000000E+01 0. -1.
        -11    1    6    6    0    0  0.12068297032E+02  0.27380475915E+02  0.42513998806E+03  0.42619167484E+03  0.00000000000E+00 0.  1.
         12    1    6    6    0    0 -0.75454576647E+01 -0.49943225297E+02  0.11849900844E+04  0.11860660858E+04  0.00000000000E+00 0. -1.
         -5    1    3    3    0  503 -0.34771383970E+02  0.23204709872E+01  0.86174014041E+01  0.36204741896E+02  0.47000000000E+01 0.  1.
         11    1    4    4    0    0  0.23826521340E+02 -0.22844505004E+02  0.24925283747E+03  0.25142901884E+03  0.00000000000E+00 0. -1.
        -12    1    4    4    0    0  0.64337970263E+01 -0.46791438647E+02  0.59849098061E+02  0.76241373371E+02  0.00000000000E+00 0.  1.
</event>
<event>
12    1  0.8313893E-002  0.2461092E+03  0.7818608E-02  0.1116980E+00
         21   -1    0    0  503  502  0.00000000000E+00  0.00000000000E+00  0.32699058581E+03  0.32699058581E+03  0.00000000000E+00 0.  1.
         21   -1    0    0  501  503 -0.00000000000E+00 -0.00000000000E+00 -0.18499536684E+03  0.18499536684E+03  0.00000000000E+00 0.  1.
          6    2    1    2  501    0  0.14539254652E+03  0.82877681134E+02  0.11491323251E+03  0.27161513038E+03  0.18044950938E+03 0.  0.
         24    2    3    3    0    0  0.91195594260E+02 -0.40814478552E+01  0.55046102247E+01  0.12164334511E+03  0.80209151884E+02 0.  0.
         -6    2    1    2    0  502 -0.14539254652E+03 -0.82877681134E+02  0.27081986460E+02  0.24037082227E+03  0.17040245185E+03 0.  0.
        -24    2    5    5    0    0 -0.14889208244E+03 -0.74183713241E+02  0.67559504367E+02  0.19855753150E+03  0.84786385462E+02 0.  0.
          5    1    3    3  501    0  0.54196952256E+02  0.86959128990E+02  0.10940862229E+03  0.14997178528E+03  0.47000000000E+01 0. -1.
        -13    1    4    4    0    0  0.31475102720E+02  0.15166099388E+02  0.37464006320E+02  0.51227379705E+02  0.00000000000E+00 0.  1.
         14    1    4    4    0    0  0.59720491540E+02 -0.19247547243E+02 -0.31959396096E+02  0.70415965402E+02  0.00000000000E+00 0. -1.
         -5    1    5    5    0  502  0.34995359277E+01 -0.86939678933E+01 -0.40477517907E+02  0.41813290774E+02  0.47000000000E+01 0.  1.
         13    1    6    6    0    0 -0.60321091726E+02 -0.75083461052E+02  0.21341780199E+02  0.98649033511E+02  0.00000000000E+00 0. -1.
        -14    1    6    6    0    0 -0.88570990719E+02  0.89974781056E+00  0.46217724168E+02  0.99908497988E+02  0.00000000000E+00 0.  1.
</event>
<event>
12    1  0.8313893E-002  0.2154847E+03  0.7818608E-02  0.1137377E+00
         21   -1    0    0  501  502  0.00000000000E+00  0.00000000000E+00  0.67190834106E+02  0.67190834106E+02  0.00000000000E+00 0. -1.
         21   -1    0    0  502  503 -0.00000000000E+00 -0.00000000000E+00 -0.72093822412E+03  0.72093822412E+03  0.00000000000E+00 0. -1.
         -6    2    1    2    0  503  0.43111018984E+02  0.12009504889E+03 -0.40858567278E+03  0.46172755427E+03  0.17311470661E+03 0.  0.
        -24    2    3    3    0    0  0.53340144462E+02  0.62237063171E+02 -0.11390344156E+03  0.16120818898E+03  0.79343954720E+02 0.  0.
          6    2    1    2  501    0 -0.43111018984E+02 -0.12009504889E+03 -0.24516171724E+03  0.32640150396E+03  0.17364415758E+03 0.  0.
         24    2    5    5    0    0  0.15058956955E+02  0.72790010461E+00 -0.10323109025E+03  0.13108554460E+03  0.79369137481E+02 0.  0.
          5    1    5    5  501    0 -0.58169975939E+02 -0.12082294900E+03 -0.14193062699E+03  0.19531595936E+03  0.47000000000E+01 0. -1.
        -11    1    6    6    0    0  0.32843598483E+02  0.11507846843E+02 -0.10460635787E+03  0.11024346968E+03  0.00000000000E+00 0.  1.
         12    1    6    6    0    0 -0.17784641528E+02 -0.10779946738E+02  0.13752676150E+01  0.20842074920E+02  0.00000000000E+00 0. -1.
         -5    1    3    3    0  503 -0.10229125478E+02  0.57857985721E+02 -0.29468223122E+03  0.30051936529E+03  0.47000000000E+01 0.  1.
         13    1    4    4    0    0 -0.16286762743E+02  0.27303307054E+02 -0.55071037614E+02  0.63588901553E+02  0.00000000000E+00 0. -1.
        -14    1    4    4    0    0  0.69626907204E+02  0.34933756117E+02 -0.58832403949E+02  0.97619287427E+02  0.00000000000E+00 0.  1.
</event>
<event>
12    1  0.8313893E-002  0.2302019E+03  0.7818608E-02  0.1126520E+00
         21   -1    0    0  503  502  0.00000000000E+00  0.00000000000E+00  0.17733921806E+04  0.17733921806E+04  0.00000000000E+00 0. -1.
         21   -1    0    0  501  503 -0.00000000000E+00 -0.00000000000E+00 -0.48643209899E+02  0.48643209899E+02  0.00000000000E+00 0.  1.
          6    2    1    2  501    0  0.61456841854E+02  0.14005697686E+03  0.29649681541E+03  0.37537083129E+03  0.17204650320E+03 0.  0.
         24    2    3    3    0    0  0.25302513635E+02  0.14208838855E+03  0.14566897916E+03  0.22018581826E+03  0.80206082795E+02 0.  0.
         -6    2    1    2    0  502 -0.61456841854E+02 -0.14005697686E+03  0.14282521553E+04  0.14466645592E+04  0.17187561659E+03 0.  0.
        -24    2    5    5    0    0 -0.36335185396E+02 -0.12633356614E+03  0.13919101263E+04  0.14001644227E+04  0.75935467263E+02 0.  0.
          5    1    3    3  501    0  0.36154328220E+02 -0.20314116928E+01  0.15082783625E+03  0.15518501303E+03  0.47000000000E+01 0. -1.
        -11    1    4    4    0    0  0.14109067537E+02  0.17849751001E+02 -0.62693368700E+01  0.23600508095E+02  0.00000000000E+00 0.  1.
         12    1    4    4    0    0  0.11193446098E+02  0.12423863755E+03  0.15193831603E+03  0.19658531016E+03  0.00000000000E+00 0. -1.
         -5    1    5    5    0  502 -0.25121656458E+02 -0.13723410720E+02  0.36342028937E+02  0.46500136476E+02  0.47000000000E+01 0.  1.
         13    1    6    6    0    0 -0.47363335724E+02 -0.32915469075E+02  0.54934463084E+03  0.55236422504E+03  0.00000000000E+00 0. -1.
        -14    1    6    6    0    0  0.11028150328E+02 -0.93418097062E+02  0.84256549550E+03  0.84780019766E+03  0.00000000000E+00 0.  1.
</event>
<event>
12    1  0.8313893E-002  0.1770942E+03  0.7818608E-02  0.1170829E+00
         21   -1    0    0  501  502  0.00000000000E+00  0.00000000000E+00  0.84782299008E+03  0.84782299008E+03  0.00000000000E+00 0.  1.
         21   -1    0    0  502  503 -0.00000000000E+00 -0.00000000000E+00 -0.39183780377E+02  0.39183780377E+02  0.00000000000E+00 0.  1.
         -6    2    1    2    0  503 -0.89386942472E+01  0.43473044585E+02  0.29658130253E+03  0.34543135260E+03  0.17144253989E+03 0.  0.
        -24    2    3    3    0    0 -0.60931807829E+02  0.11997971049E+02  0.12167828929E+03  0.16020954460E+03  0.83695015287E+02 0.  0.
          6    2    1    2  501    0  0.89386942472E+01 -0.43473044585E+02  0.51205790717E+03  0.54157541786E+03  0.17067755293E+03 0.  0.
         24    2    5    5    0    0 -0.29520627815E+02 -0.69674300945E+02  0.45242148156E+03  0.46578479477E+03  0.80896862643E+02 0.  0.
          5    1    5    5  501    0  0.38459322062E+02  0.26201256360E+02  0.59636425612E+02  0.75790623088E+02  0.47000000000E+01 0. -1.
        -13    1    6    6    0    0  0.21257306521E+02  0.25101284743E+01  0.11729753112E+03  0.11923457817E+03  0.00000000000E+00 0.  1.
         14    1    6    6    0    0 -0.50777934335E+02 -0.72184429419E+02  0.33512395044E+03  0.34655021660E+03  0.00000000000E+00 0. -1.
         -5    1    3    3    0  503  0.51993113582E+02  0.31475073535E+02  0.17490301325E+03  0.18522180799E+03  0.47000000000E+01 0.  1.
         11    1    4    4    0    0 -0.77151125667E+01 -0.33251466785E+02  0.35036037443E+02  0.48915303587E+02  0.00000000000E+00 0. -1.
        -12    1    4    4    0    0 -0.53216695263E+02  0.45249437835E+02  0.86642251845E+02  0.11129424102E+03  0.00000000000E+00 0.  1.
</event>
<event>
12    1  0.8313893E-002  0.2859204E+03  0.7818608E-02  0.1092669E+00
         21   -1    0    0  503  502  0.00000000000E+00  0.00000000000E+00  0.99784920118E+03  0.99784920118E+03  0.00000000000E+00 0. -1.
         21   -1    0    0  501  503 -0.00000000000E+00 -0.00000000000E+00 -0.87358649689E+02  0.87358649689E+02  0.00000000000E+00 0.  1.
          6    2    1    2  501    0  0.12416277881E+02 -0.22663352112E+03  0.59407154582E+03  0.65874391660E+03  0.17177202697E+03 0.  0.
         24    2    3    3    0    0 -0.33708550888E+02 -0.13031697422E+03  0.22640752761E+03  0.27585581633E+03  0.81959030465E+02 0.  0.
         -6    2    1    2    0  502 -0.12416277881E+02  0.22663352112E+03  0.31641900567E+03  0.42646393427E+03  0.17387807002E+03 0.  0.
        -24    2    5    5    0    0  0.39775830026E+02  0.11408414353E+03  0.93251066523E+02  0.17108696274E+03  0.77315450941E+02 0.  0.
          5    1    3    3  501    0  0.46124828769E+02 -0.96316546901E+02  0.36766401821E+03  0.38288810026E+03  0.47000000000E+01 0. -1.
        -11    1    4    4    0    0  0.23828987333E+02 -0.69654004753E+02  0.11544113893E+03  0.13691660809E+03  0.00000000000E+00 0.  1.
         12    1    4    4    0    0 -0.57537538222E+02 -0.60662969465E+02  0.11096638868E+03  0.13893920824E+03  0.00000000000E+00 0. -1.
         -5    1    5    5    0  502 -0.52192107907E+02  0.11254937759E+03  0.22316793915E+03  0.25537697153E+03  0.47000000000E+01 0.  1.
         11    1    6    6    0    0  0.26053398770E+01  0.81048206764E+02  0.90159606122E+02  0.12126151158E+03  0.00000000000E+00 0. -1.
        -12    1    6    6    0    0  0.37170490149E+02  0.33035936767E+02  0.30914604011E+01  0.49825451161E+02  0.00000000000E+00 0.  1.
</event>
<event>
12    1  0.8313893E-002  0.2196315E+03  0.7818608E-02  0.1134259E+00
         21   -1    0    0  503  502  0.00000000000E+00  0.00000000000E+00  0.33974398320E+03  0.33974398320E+03  0.00000000000E+00 0. -1.
         21   -1    0    0  501  503 -0.00000000000E+00 -0.00000000000E+00 -0.16263792630E+03  0.16263792630E+03  0.00000000000E+00 0. -1.
          6    2    1    2  501    0 -0.61421482517E+02 -0.12111764731E+03 -0.18142219567E+01  0.21909677152E+03  0.17192446274E+03 0.  0.
         24    2    3    3    0    0  0.12569211833E+02 -0.76919114805E+02 -0.47765367512E+02  0.12131266799E+03  0.79753982807E+02 0.  0.
         -6    2    1    2    0  502  0.61421482517E+02  0.12111764731E+03  0.17892027885E+03  0.28328513797E+03  0.17261494781E+03 0.  0.
        -24    2    5    5    0    0  0.93340344054E+02  0.11096943921E+03  0.18576206651E+03  0.24877861819E+03  0.79728409271E+02 0.  0.
          5    1    3    3  501    0 -0.73990694349E+02 -0.44198532501E+02  0.45951145555E+02  0.97784103531E+02  0.47000000000E+01 0. -1.
        -11    1    4    4    0    0 -0.12091325850E+02 -0.28352197548E+02 -0.58195303894E+02  0.65853934293E+02  0.00000000000E+00 0.  1.
         12    1    4    4    0    0  0.24660537682E+02 -0.48566917257E+02  0.10429936382E+02  0.55458733700E+02  0.00000000000E+00 0. -1.
         -5    1    5    5    0  502 -0.31918861537E+02  0.10148208095E+02 -0.68417876564E+01  0.34506519786E+02  0.47000000000E+01 0.  1.
         11    1    6    6    0    0  0.89907354569E+02  0.67754079543E+02  0.91671227004E+02  0.14518113363E+03  0.00000000000E+00 0. -1.
        -12    1    6    6    0    0  0.34329894851E+01  0.43215359667E+02  0.94090839508E+02  0.10359748456E+03  0.00000000000E+00 0.  1.
</event>
<event>
12    1  0.8313893E-002  0.2397006E+03  0.7818608E-02  0.1120104E+00
         21   -1    0    0  501  502  0.00000000000E+00  0.00000000000E+00  0.24519208809E+03  0.24519208809E+03  0.00000000000E+00 0. -1.
         21   -1    0    0  502  503 -0.00000000000E+00 -0.00000000000E+00 -0.49119284865E+03  0.49119284865E+03  0.00000000000E+00 0.  1.
         -6    2    1    2    0  503  0.33568852742E+02  0.16288956004E+03  0.14351130286E+03  0.27937763937E+03  0.17261661185E+03 0.  0.
        -24    2    3    3    0    0  0.70917082626E+02  0.77935605942E+02  0.36418680283E+02  0.13759264580E+03  0.80636372825E+02 0.  0.
          6    2    1    2  501    0 -0.33568852742E+02 -0.16288956004E+03 -0.38951206342E+03  0.45700729737E+03  0.17168618365E+03 0.  0.
         24    2    5    5    0    0 -0.45199349713E+02 -0.10398500517E+03 -0.36793266323E+03  0.39303249329E+03  0.79020463148E+02 0.  0.
          5    1    5    5  501    0  0.11630496971E+02 -0.58904554868E+02 -0.21579400184E+02  0.63974804074E+02  0.47000000000E+01 0. -1.
        -13    1    6    6    0    0 -0.48156616864E+02 -0.10357719014E+03 -0.24776110090E+03  0.27282385743E+03  0.00000000000E+00 0.  1.
         14    1    6    6    0    0  0.29572671507E+01 -0.40781503094E+00 -0.12017156233E+03  0.12020863586E+03  0.00000000000E+00 0. -1.
         -5    1    3    3    0  503 -0.37348229884E+02  0.84953954098E+02  0.10709262257E+03  0.14178499357E+03  0.47000000000E+01 0.  1.
         13    1    4    4    0    0 -0.12270391683E+02  0.68058788041E+00  0.19157525793E+02  0.22760415340E+02  0.00000000000E+00 0. -1.
        -14    1    4    4    0    0  0.83187474310E+02  0.77255018062E+02  0.17261154490E+02  0.11483223046E+03  0.00000000000E+00 0.  1.
</event>
<event>
12    1  0.8313893E-002  0.1773361E+03  0.7818608E-02  0.1170567E+00
         21   -1    0    0  503  502  0.00000000000E+00  0.00000000000E+00  0.47343412591E+02  0.47343412591E+02  0.00000000000E+00 0.  1.
         21   -1    0    0  501  503 -0.00000000000E+00 -0.00000000000E+00 -0.69699687795E+03  0.69699687795E+03  0.00000000000E+00 0.  1.
          6    2    1    2  501    0  0.21382533714E+02 -0.28631723056E+02 -0.24179155604E+03  0.29985206563E+03  0.17369834880E+03 0.  0.
         24    2    3    3    0    0  0.75921717857E+02  0.32375261079E+01 -0.12420170669E+03  0.16628697169E+03  0.80316275996E+02 0.  0.
         -6    2    1    2    0  502 -0.21382533714E+02  0.28631723056E+02 -0.40786190931E+03  0.44448822491E+03  0.17303599828E+03 0.  0.
        -24    2    5    5    0    0  0.10293552523E+02  0.79858687872E+02 -0.29372921417E+03  0.31535287551E+03  0.81775409412E+02 0.  0.
          5    1    3    3  501    0 -0.54539184143E+02 -0.31869249164E+02 -0.11758984935E+03  0.13356509394E+03  0.47000000000E+01 0. -1.
        -11    1    4    4    0    0 -0.15957732805E+02  0.44244229104E+01 -0.32469263750E+02  0.36448289985E+02  0.00000000000E+00 0.  1.
         12    1    4    4    0    0  0.91879450662E+02 -0.11868968025E+01 -0.91732442943E+02  0.12983868170E+03  0.00000000000E+00 0. -1.
         -5    1    5    5    0  502 -0.31676086238E+02 -0.51226964816E+02 -0.11413269514E+03  0.12913534939E+03  0.47000000000E+01 0.  1.
         13    1    6    6    0    0 -0.27729206417E+02  0.81551222935E+01 -0.42970800256E+02  0.51787108268E+02  0.00000000000E+00 0. -1.
        -14    1    6    6    0    0  0.38022758940E+02  0.71703565579E+02 -0.25075841392E+03  0.26356576725E+03  0.00000000000E+00 0.  1.
</event>
<event>
12    1  0.8313893E-002  0.2092326E+03  0.7818608E-02  0.1142286E+00
         21   -1    0    0  501  502  0.00000000000E+00  0.00000000000E+00  0.11215365889E+03  0.11215365889E+03  0.00000000000E+00 0.  1.
         21   -1    0    0  502  503 -0.00000000000E+00 -0.00000000000E+00 -0.43209737411E+03  0.43209737411E+03  0.00000000000E+00 0.  1.
         -6    2    1    2    0  503 -0.87616385360E+02 -0.80955898163E+02 -0.24541556970E+03  0.32214135402E+03  0.17121846188E+03 0.  0.
        -24    2    3    3    0    0 -0.96033129721E+02  0.22190777991E+01 -0.14165883123E+03  0.18881292873E+03  0.79723342129E+02 0.  0.
          6    2    1    2  501    0  0.87616385360E+02  0.80955898163E+02 -0.74528145516E+02  0.22210967898E+03  0.17189466714E+03 0.  0.
         24    2    5    5    0    0 -0.62295993005E+01 -0.59873265015E+01 -0.30375715601E+02  0.86692840223E+02  0.80736041900E+02 0.  0.
          5    1    5    5  501    0  0.93845984661E+02  0.86943224664E+02 -0.44152429915E+02  0.13541683876E+03  0.47000000000E+01 0. -1.
        -11    1    6    6    0    0 -0.30032887634E+02  0.19063717299E+02  0.64940458988E+01  0.36160369039E+02  0.00000000000E+00 0.  1.
         12    1    6    6    0    0  0.23803288334E+02 -0.25051043800E+02 -0.36869761499E+02  0.50532471184E+02  0.00000000000E+00 0. -1.
         -5    1    3    3    0  503  0.84167443610E+01 -0.83174975962E+02 -0.10375673848E+03  0.13332842529E+03  0.47000000000E+01 0.  1.
         13    1    4    4    0    0 -0.60458203047E+02 -0.22790999920E+02 -0.34673335390E+02  0.73327103994E+02  0.00000000000E+00 0. -1.
        -14    1    4    4    0    0 -0.35574926675E+02  0.25010077719E+02 -0.10698549584E+03  0.11548582474E+03  0.00000000000E+00 0.  1.
</event>
<event>
12    1  0.8313893E-002  0.1964488E+03  0.7818608E-02  0.1157560E+00
         21   -1    0    0  501  502  0.00000000000E+00  0.00000000000E+00  0.46597262575E+02  0.46597262575E+02  0.00000000000E+00 0.  1.
         21   -1    0    0  502  503 -0.00000000000E+00 -0.00000000000E+00 -0.93188381530E+03  0.93188381530E+03  0.00000000000E+00 0.  1.
         -6    2    1    2    0  503  0.20719412543E+02  0.25087680309E+02 -0.68274665831E+03  0.71044712226E+03  0.19373545966E+03 0.  0.
        -24    2    3    3    0    0  0.83852560254E+02 -0.20568635789E+02 -0.38862723587E+03  0.40614691162E+03  0.80435469264E+02 0.  0.
          6    2    1    2  501    0 -0.20719412543E+02 -0.25087680309E+02 -0.20253989441E+03  0.26803395562E+03  0.17251407704E+03 0.  0.
         24    2    5    5    0    0 -0.67239370078E+02 -0.71358458700E+01 -0.18853060927E+03  0.21602698609E+03  0.80943282026E+02 0.  0.
          5    1    5    5  501    0  0.46519957536E+02 -0.17951834439E+02 -0.14009285147E+02  0.52006969525E+02  0.47000000000E+01 0. -1.
        -11    1    6    6    0    0 -0.68229135269E+01  0.23199512392E+02 -0.10897789820E+03  0.11162863351E+03  0.00000000000E+00 0.  1.
         12    1    6    6    0    0 -0.60416456551E+02 -0.30335358262E+02 -0.79552711068E+02  0.10439835258E+03  0.00000000000E+00 0. -1.
         -5    1    3    3    0  503 -0.63133147711E+02  0.45656316098E+02 -0.29411942244E+03  0.30430021064E+03  0.47000000000E+01 0.  1.
         13    1    4    4    0    0  0.18228455582E+02 -0.36758561420E+02 -0.23135566946E+03  0.23496577245E+03  0.00000000000E+00 0. -1.
        -14    1    4    4    0    0  0.65624104672E+02  0.16189925631E+02 -0.15727156642E+03  0.17118113917E+03  0.00000000000E+00 0.  1.
</event>
<event>
12    1  0.8313893E-002  0.1872115E+03  0.7818608E-02  0.1161024E+00
         21   -1    0    0  501  502  0.00000000000E+00  0.00000000000E+00  0.12152769722E+03  0.12152769722E+03  0.00000000000E+00 0.  1.
         21   -1    0    0  502  503 -0.00000000000E+00 -0.00000000000E+00 -0.32931203616E+03  0.32931203616E+03  0.00000000000E+00 0. -1.
         -6    2    1    2    0  503  0.51746185620E+02 -0.54202288860E+02 -0.18352769400E+03  0.26216512328E+03  0.17155926543E+03 0.  0.
        -24    2    3    3    0    0  0.25512838989E+02 -0.10240244822E+03 -0.12980334118E+03  0.18522462729E+03  0.79511564036E+02 0.  0.
          6    2    1    2  501    0 -0.51746185620E+02  0.54202288860E+02 -0.24256644948E+02  0.18867461010E+03  0.17144727420E+03 0.  0.
         24    2    5    5    0    0 -0.78689781080E+00  0.35290791726E+02  0.45470440346E+02  0.10013958787E+03  0.81940935586E+02 0.  0.
          5    1    5    5  501    0 -0.50959287809E+02  0.18911497133E+02 -0.69727085295E+02  0.88535022231E+02  0.47000000000E+01 0. -1.
        -13    1    6    6    0    0  0.15144405799E+02  0.36912515225E+02 -0.11045158820E+02  0.41399062074E+02  0.00000000000E+00 0.  1.
         14    1    6    6    0    0 -0.15931303610E+02 -0.16217234986E+01  0.56515599166E+02  0.58740525797E+02  0.00000000000E+00 0. -1.
         -5    1    3    3    0  503  0.26233346631E+02  0.48200159364E+02 -0.53724352818E+02  0.76940495994E+02  0.47000000000E+01 0.  1.
         13    1    4    4    0    0  0.22476250738E+02 -0.82667756283E+02 -0.42432996744E+02  0.95601772937E+02  0.00000000000E+00 0. -1.
        -14    1    4    4    0    0  0.30365882506E+01 -0.19734691941E+02 -0.87370344438E+02  0.89622854348E+02  0.00000000000E+00 0.  1.
</event>
<event>
12    1  0.8313893E-002  0.1857632E+03  0.7818608E-02  0.1162775E+00
         21   -1    0    0  501  502  0.00000000000E+00  0.00000000000E+00  0.35203976660E+03  0.35203976660E+03  0.00000000000E+00 0. -1.
         21   -1    0    0  502  503 -0.00000000000E+00 -0.00000000000E+00 -0.11732731142E+03  0.11732731142E+03  0.00000000000E+00 0. -1.
         -6    2    1    2    0  503  0.25133240220E+02 -0.63066688479E+02  0.20259645880E+02  0.18686470800E+03  0.17291292284E+03 0.  0.
        -24    2    3    3    0    0  0.23787427902E+02 -0.10315022044E+03 -0.14746229807E+02  0.13342313169E+03  0.79865330861E+02 0.  0.
          6    2    1    2  501    0 -0.25133240220E+02  0.63066688479E+02  0.21445280930E+03  0.28250237002E+03  0.17090492880E+03 0.  0.
         24    2    5    5    0    0  0.46718881371E+02  0.40173065895E+02  0.83476291465E+02  0.13129462036E+03  0.80457796379E+02 0.  0.
          5    1    5    5  501    0 -0.71852121591E+02  0.22893622584E+02  0.13097651784E+03  0.15120774966E+03  0.47000000000E+01 0. -1.
        -11    1    6    6    0    0  0.38128115051E+02  0.11870474982E+02 -0.28569555958E+01  0.40035278554E+02  0.00000000000E+00 0.  1.
         12    1    6    6    0    0  0.85907663200E+01  0.28302590913E+02  0.86333247061E+02  0.91259341803E+02  0.00000000000E+00 0. -1.
         -5    1    3    3    0  503  0.13458123180E+01  0.40083531963E+02  0.35005875687E+02  0.53441576306E+02  0.47000000000E+01 0.  1.
         13    1    4    4    0    0  0.51802321251E+02 -0.78356238592E+02 -0.21764273708E+01  0.93956997874E+02  0.00000000000E+00 0. -1.
        -14    1    4    4    0    0 -0.28014893348E+02 -0.24793981849E+02 -0.12569802436E+02  0.39466133818E+02  0.00000000000E+00 0.  1.
</event>
<event>
12    1  0.8313893E-002  0.1938380E+03  0.7818608E-02  0.1155827E+00
         21   -1    0    0  501  502  0.00000000000E+00  0.00000000000E+00  0.35968161887E+03  0.35968161887E+03  0.00000000000E+00 0. -1.
         21   -1    0    0  502  503 -0.00000000000E+00 -0.00000000000E+00 -0.40308627087E+03  0.40308627087E+03  0.00000000000E+00 0. -1.
         -6    2    1    2    0  503 -0.40604033451E+02  0.86458205298E+02 -0.35095177499E+03  0.39923193571E+03  0.16460644377E+03 0.  0.
        -24    2    3    3    0    0  0.12437857468E+02  0.90096070620E+02 -0.15827346402E+03  0.19929770209E+03  0.79981762958E+02 0.  0.
          6    2    1    2  501    0  0.40604033451E+02 -0.86458205298E+02  0.30754712298E+03  0.36353595403E+03  0.16866964227E+03 0.  0.
         24    2    5    5    0    0  0.70336165419E+02 -0.52848376566E+02  0.11856799058E+03  0.16924539137E+03  0.82737579347E+02 0.  0.
          5    1    5    5  501    0 -0.29732131968E+02 -0.33609828731E+02  0.18897913240E+03  0.19429056266E+03  0.47000000000E+01 0. -1.
        -13    1    6    6    0    0 -0.29584811086E+01 -0.46875122377E+02  0.40805138488E+02  0.62218076436E+02  0.00000000000E+00 0.  1.
         14    1    6    6    0    0  0.73294646528E+02 -0.59732541894E+01  0.77762852094E+02  0.10702731493E+03  0.00000000000E+00 0. -1.
         -5    1    3    3    0  503 -0.53041890920E+02 -0.36378653224E+01 -0.19267831097E+03  0.19993423362E+03  0.47000000000E+01 0.  1.
         11    1    4    4    0    0 -0.22382653175E+02  0.63348903341E+02 -0.13203852256E+03  0.14814937785E+03  0.00000000000E+00 0. -1.
        -12    1    4    4    0    0  0.34820510644E+02  0.26747167278E+02 -0.26234941455E+02  0.51148324235E+02  0.00000000000E+00 0.  1.
</event>
<event>
12    1  0.8313893E-002  0.2287508E+03  0.7818608E-02  0.1128301E+00
         21   -1    0    0  501  502  0.00000000000E+00  0.00000000000E+00  0.40336893229E+02  0.40336893229E+02  0.00000000000E+00 0.  1.
         21   -1    0    0  502  503 -0.00000000000E+00 -0.00000000000E+00 -0.20505369023E+04  0.20505369023E+04  0.00000000000E+00 0. -1.
         -6    2    1    2    0  503 -0.78833358610E+02  0.13068376884E+03 -0.16549497738E+04  0.16706841979E+04  0.17039363074E+03 0.  0.
        -24    2    3    3    0    0 -0.94789091071E+02  0.67657170290E+02 -0.73431325226E+03  0.74774290381E+03  0.79630605116E+02 0.  0.
          6    2    1    2  501    0  0.78833358610E+02 -0.13068376884E+03 -0.35525023529E+03  0.42018959766E+03  0.16451025026E+03 0.  0.
         24    2    5    5    0    0  0.41415910175E+02 -0.13706459865E+03 -0.34232058363E+03  0.37981576544E+03  0.81084227056E+02 0.  0.
          5    1    5    5  501    0  0.37417448435E+02  0.63808298093E+01 -0.12929651655E+02  0.40373832223E+02  0.47000000000E+01 0. -1.
        -11    1    6    6    0    0  0.57043076382E+02 -0.13529147842E+03 -0.32369672299E+03  0.35543953799E+03  0.00000000000E+00 0.  1.
         12    1    6    6    0    0 -0.15627166207E+02 -0.17731202272E+01 -0.18623860647E+02  0.24376227444E+02  0.00000000000E+00 0. -1.
         -5    1    3    3    0  503  0.15955732461E+02  0.63026598551E+02 -0.92063652154E+03  0.92294129408E+03  0.47000000000E+01 0.  1.
         13    1    4    4    0    0 -0.21905372871E+02  0.64049958748E+02 -0.38207469445E+03  0.38802488929E+03  0.00000000000E+00 0. -1.
        -14    1    4    4    0    0 -0.72883718199E+02  0.36072115426E+01 -0.35223855781E+03  0.35971801451E+03  0.00000000000E+00 0.  1.
</event>
<event>
12    1  0.8313893E-002  0.2085429E+03  0.7818608E-02  0.1143298E+00
         21   -1    0    0  501  502  0.00000000000E+00  0.00000000000E+00  0.43290633418E+03  0.43290633418E+03  0.00000000000E+00 0.  1.
         21   -1    0    0  502  503 -0.00000000000E+00 -0.00000000000E+00 -0.10023112351E+03  0.10023112351E+03  0.00000000000E+00 0. -1.
         -6    2    1    2    0  503  0.10699810083E+03  0.47116820495E+02  0.19359781378E+03  0.28247300602E+03  0.16924035356E+03 0.  0.
        -24    2    3    3    0    0  0.77808485567E+02  0.88551131645E+02  0.94900379190E+02  0.17142297507E+03  0.80525095895E+02 0.  0.
          6    2    1    2  501    0 -0.10699810083E+03 -0.47116820495E+02  0.13907739689E+03  0.25066445167E+03  0.17268919088E+03 0.  0.
         24    2    5    5    0    0  0.34704830856E+00 -0.34373125394E+01  0.25353728406E+02  0.88226638233E+02  0.84434546187E+02 0.  0.
          5    1    5    5  501    0 -0.10734514914E+03 -0.43679507956E+02  0.11372366848E+03  0.16243781343E+03  0.47000000000E+01 0. -1.
        -13    1    6    6    0    0 -0.42000560344E+02 -0.22872526608E+01  0.10722657083E+02  0.43407994296E+02  0.00000000000E+00 0.  1.
         14    1    6    6    0    0  0.42347608652E+02 -0.11500598786E+01  0.14631071323E+02  0.44818643937E+02  0.00000000000E+00 0. -1.
         -5    1    3    3    0  503  0.29189615268E+02 -0.41434311150E+02  0.98697434588E+02  0.11105003095E+03  0.47000000000E+01 0.  1.
         13    1    4    4    0    0  0.60480687351E+02  0.40991287396E+02  0.96185647115E+02  0.12078856691E+03  0.00000000000E+00 0. -1.
        -14    1    4    4    0    0  0.17327798216E+02  0.47559844249E+02 -0.12852679251E+01  0.50634408159E+02  0.00000000000E+00 0.  1.
</event>
<event>
12    1  0.8313893E-002  0.1853001E+03  0.7818608E-02  0.1162869E+00
         21   -1    0    0  503  502  0.00000000000E+00  0.00000000000E+00  0.48615880105E+03  0.48615880105E+03  0.00000000000E+00 0. -1.
         21   -1    0    0  501  503 -0.00000000000E+00 -0.00000000000E+00 -0.70493690004E+02  0.70493690004E+02  0.00000000000E+00 0.  1.
          6    2    1    2  501    0 -0.30024283237E+02 -0.64279821009E+02  0.21319783289E+03  0.28219099879E+03  0.17071933363E+03 0.  0.
         24    2    3    3    0    0 -0.63169069954E+02  0.11006603253E+02  0.13064731837E+03  0.16555781306E+03  0.78925223826E+02 0.  0.
         -6    2    1    2    0  502  0.30024283237E+02  0.64279821009E+02  0.20246727815E+03  0.27446149226E+03  0.17118048673E+03 0.  0.
        -24    2    5    5    0    0 -0.27715693927E+02  0.30511246333E+02  0.18572838790E+03  0.20534924989E+03  0.77292849059E+02 0.  0.
          5    1    3    3  501    0  0.33144786718E+02 -0.75286424262E+02  0.82550514527E+02  0.11663318573E+03  0.47000000000E+01 0. -1.
        -11    1    4    4    0    0 -0.65644521964E+01 -0.12820789830E+02 -0.61078627988E+01  0.15645148528E+02  0.00000000000E+00 0.  1.
         12    1    4    4    0    0 -0.56604617758E+02  0.23827393083E+02  0.13675518116E+03  0.14991266453E+03  0.00000000000E+00 0. -1.
         -5    1    5    5    0  502  0.57739977164E+02  0.33768574676E+02  0.16738890252E+02  0.69112242370E+02  0.47000000000E+01 0.  1.
         13    1    6    6    0    0 -0.36878775141E+02  0.28029177313E+02  0.45941335401E+02  0.65240211030E+02  0.00000000000E+00 0. -1.
        -14    1    6    6    0    0  0.91630812139E+01  0.24820690193E+01  0.13978705250E+03  0.14010903886E+03  0.00000000000E+00 0.  1.
</event>
<event>
12    1  0.8313893E-002  0.1820723E+03  0.7818608E-02  0.1166904E+00
         21   -1    0    0  503  502  0.00000000000E+00  0.00000000000E+00  0.51637036990E+03  0.51637036990E+03  0.00000000000E+00 0. -1.
         21   -1    0    0  501  503 -0.00000000000E+00 -0.00000000000E+00 -0.88989632752E+02  0.88989632752E+02  0.00000000000E+00 0. -1.
          6    2    1    2  501    0 -0.64842959654E+01 -0.58030310615E+02  0.47028817408E+02  0.18367538457E+03  0.16767639723E+03 0.  0.
         24    2    3    3    0    0 -0.42961745952E+02 -0.80897987117E+02  0.14002913073E+02  0.12921131070E+03  0.90051570239E+02 0.  0.
         -6    2    1    2    0  502  0.64842959654E+01  0.58030310615E+02  0.38035191974E+03  0.42168461808E+03  0.17245512816E+03 0.  0.
        -24    2    5    5    0    0 -0.28351814195E+02  0.96746140118E+02  0.29481370040E+03  0.32142821183E+03  0.78976809403E+02 0.  0.
          5    1    3    3  501    0  0.36477449986E+02  0.22867676502E+02  0.33025904335E+02  0.54464073877E+02  0.47000000000E+01 0. -1.
        -13    1    4    4    0    0 -0.15948987432E+02 -0.14732213097E+02  0.46031527793E+02  0.50895086736E+02  0.00000000000E+00 0.  1.
         14    1    4    4    0    0 -0.27012758520E+02 -0.66165774020E+02 -0.32028614721E+02  0.78316223960E+02  0.00000000000E+00 0. -1.
         -5    1    5    5    0  502  0.34836110160E+02 -0.38715829503E+02  0.85538219340E+02  0.10025640624E+03  0.47000000000E+01 0.  1.
         13    1    6    6    0    0  0.14769583031E+02  0.27448795061E+02  0.16623642458E+03  0.16913345556E+03  0.00000000000E+00 0. -1.
        -14    1    6    6    0    0 -0.43121397226E+02  0.69297345057E+02  0.12857727582E+03  0.15229475627E+03  0.00000000000E+00 0.  1.
</event>
<event>
12    1  0.8313893E-002  0.1861111E+03  0.7818608E-02  0.1162047E+00
         21   -1    0    0  501  502  0.00000000000E+00  0.00000000000E+00  0.50306822110E+03  0.50306822110E+03  0.00000000000E+00 0.  1.
         21   -1    0    0  502  503 -0.00000000000E+00 -0.00000000000E+00 -0.13092881392E+03  0.13092881392E+03  0.00000000000E+00 0.  1.
         -6    2    1    2    0  503 -0.62263262595E+02 -0.36619159907E+02 -0.32325690058E+02  0.18876747150E+03  0.17137832803E+03 0.  0.
        -24    2    3    3    0    0 -0.26225154220E+02  0.43131004550E+02  0.25070655540E+01  0.94458167352E+02  0.79799860491E+02 0.  0.
          6    2    1    2  501    0  0.62263262595E+02  0.36619159907E+02  0.40446509724E+03  0.44522956352E+03  0.17152163890E+03 0.  0.
         24    2    5    5    0    0  0.35493915250E+02 -0.41725177570E+01  0.38117733304E+03  0.39096199600E+03  0.79233169611E+02 0.  0.
          5    1    5    5  501    0  0.26769347344E+02  0.40791677664E+02  0.23287764195E+02  0.54267567525E+02  0.47000000000E+01 0. -1.
        -11    1    6    6    0    0  0.45582526214E+02  0.25524109524E+02  0.18272140393E+03  0.19004304333E+03  0.00000000000E+00 0.  1.
         12    1    6    6    0    0 -0.10088610964E+02 -0.29696627281E+02  0.19845592911E+03  0.20091895267E+03  0.00000000000E+00 0. -1.
         -5    1    3    3    0  503 -0.36038108375E+02 -0.79750164457E+02 -0.34832755612E+02  0.94309304152E+02  0.47000000000E+01 0.  1.
         11    1    4    4    0    0 -0.21526013824E+02  0.66290006767E+02 -0.44066535395E+01  0.69836615494E+02  0.00000000000E+00 0. -1.
        -12    1    4    4    0    0 -0.46991403953E+01 -0.23159002217E+02  0.69137190935E+01  0.24621551857E+02  0.00000000000E+00 0.  1.
</event>
<event>
12    1  0.8313893E-002  0.1884103E+03  0.7818608E-02  0.1162329E+00
         21   -1    0    0  503  502  0.00000000000E+00  0.00000000000E+00  0.31122789338E+03  0.31122789338E+03  0.00000000000E+00 0. -1.
         21   -1    0    0  501  503 -0.00000000000E+00 -0.00000000000E+00 -0.13845848462E+03  0.13845848462E+03  0.00000000000E+00 0. -1.
          6    2    1    2  501    0  0.80911629011E+01 -0.35854921003E+02 -0.21118782695E+02  0.17933278191E+03  0.17425039858E+03 0.  0.
         24    2    3    3    0    0 -0.56413606286E+02  0.11430307766E+02 -0.11404798211E+02  0.98628323528E+02  0.79273765332E+02 0.  0.
         -6    2    1    2    0  502 -0.80911629011E+01  0.35854921003E+02  0.19388819146E+03  0.27035359609E+03  0.18479013463E+03 0.  0.
        -24    2    5    5    0    0  0.23356445250E+02  0.68110846806E+02  0.54335589581E+02  0.12363476465E+03  0.84549321392E+02 0.  0.
          5    1    3    3  501    0  0.64504769187E+02 -0.47285228769E+02 -0.97139844842E+01  0.80704458379E+02  0.47000000000E+01 0. -1.
        -13    1    4    4    0    0  0.15596834987E+02  0.19129186769E+02  0.27589987401E+01  0.24835440848E+02  0.00000000000E+00 0.  1.
         14    1    4    4    0    0 -0.72010441273E+02 -0.76988790023E+01 -0.14163796951E+02  0.73792882681E+02  0.00000000000E+00 0. -1.
         -5    1    5    5    0  502 -0.31447608151E+02 -0.32255925803E+02  0.13955260188E+03  0.14671883144E+03  0.47000000000E+01 0.  1.
         13    1    6    6    0    0  0.49952858239E+02  0.16240594551E+02  0.21730535166E+02  0.56844182782E+02  0.00000000000E+00 0. -1.
        -14    1    6    6    0    0 -0.26596412989E+02  0.51870252255E+02  0.32605054415E+02  0.66790581868E+02  0.00000000000E+00 0.  1.
</event>
<event>
12    1  0.8313893E-002  0.2583174E+03  0.7818608E-02  0.1108225E+00
         21   -1    0    0  503  502  0.00000000000E+00  0.00000000000E+00  0.85667445345E+03  0.85667445345E+03  0.00000000000E+00 0.  1.
         21   -1    0    0  501  503 -0.00000000000E+00 -0.00000000000E+00 -0.99983894980E+02  0.99983894980E+02  0.00000000000E+00 0.  1.
          6    2    1    2  501    0  0.12852477894E+03 -0.14280360724E+03  0.15257942360E+03  0.29963618103E+03  0.17201706727E+03 0.  0.
         24    2    3    3    0    0  0.13881142797E+03 -0.83356294292E+02  0.62394034091E+02  0.19103004563E+03  0.79891041492E+02 0.  0.
         -6    2    1    2    0  502 -0.12852477894E+03  0.14280360724E+03  0.60411113487E+03  0.65702216740E+03  0.17267419073E+03 0.  0.
        -24    2    5    5    0    0 -0.13249936595E+03  0.63034237055E+02  0.49556362184E+03  0.52217557921E+03  0.74529425173E+02 0.  0.
          5    1    3    3  501    0 -0.10286649025E+02 -0.59447312948E+02  0.90185389510E+02  0.10860613540E+03  0.47000000000E+01 0. -1.
        -13    1    4    4    0    0  0.16708943610E+02 -0.34778838619E+02 -0.11508431921E+02  0.40264133141E+02  0.00000000000E+00 0.  1.
         14    1    4    4    0    0  0.12210248436E+03 -0.48577455672E+02  0.73902466013E+02  0.15076591249E+03  0.00000000000E+00 0. -1.
         -5    1    5    5    0  502  0.39745870099E+01  0.79769370184E+02  0.10854751303E+03  0.13484658819E+03  0.47000000000E+01 0.  1.
         11    1    6    6    0    0 -0.25913230528E+02  0.27185914822E+02  0.24060686336E+03  0.24352049642E+03  0.00000000000E+00 0. -1.
        -12    1    6    6    0    0 -0.10658613542E+03  0.35848322233E+02  0.25495675848E+03  0.27865508280E+03  0.00000000000E+00 0.  1.
</event>
<event>
12    1  0.8313893E-002  0.1864882E+03  0.7818608E-02  0.1162176E+00
         21   -1    0    0  503  502  0.00000000000E+00  0.00000000000E+00  0.22976670814E+04  0.22976670814E+04  0.00000000000E+00 0. -1.
         21   -1    0    0  501  503 -0.00000000000E+00 -0.00000000000E+00 -0.26800823223E+02  0.26800823223E+02  0.00000000000E+00 0. -1.
          6    2    1    2  501    0  0.42964745320E+02 -0.51656855341E+02  0.35914660559E+03  0.40367382549E+03  0.17161548017E+03 0.  0.
         24    2    3    3    0    0  0.66173115603E+02 -0.56430088869E+02  0.36074098478E+03  0.37946547456E+03  0.79352077006E+02 0.  0.
         -6    2    1    2    0  502 -0.42964745320E+02  0.51656855341E+02  0.19117196526E+04  0.19207940791E+04  0.17396397417E+03 0.  0.
        -24    2    5    5    0    0 -0.85748208799E+02  0.30253524520E+02  0.89559226832E+03  0.90353035798E+03  0.77547183450E+02 0.  0.
          5    1    3    3  501    0 -0.23208370283E+02  0.47732335287E+01 -0.15943791923E+01  0.24208350925E+02  0.47000000000E+01 0. -1.
        -13    1    4    4    0    0 -0.47842973378E+01  0.12592934896E+02  0.93773835340E+02  0.94736496160E+02  0.00000000000E+00 0.  1.
         14    1    4    4    0    0  0.70957412941E+02 -0.69023023766E+02  0.26696714944E+03  0.28472897840E+03  0.00000000000E+00 0. -1.
         -5    1    5    5    0  502  0.42783463480E+02  0.21403330820E+02  0.10161273843E+04  0.10172637212E+04  0.47000000000E+01 0.  1.
         11    1    6    6    0    0 -0.75198140233E+01  0.37915326403E+02  0.38313733651E+03  0.38508224862E+03  0.00000000000E+00 0. -1.
        -12    1    6    6    0    0 -0.78228394776E+02 -0.76618018825E+01  0.51245493181E+03  0.51844810936E+03  0.00000000000E+00 0.  1.
</event>
<event>
12    1  0.8313893E-002  0.2383493E+03  0.7818608E-02  0.1121217E+00
         21   -1    0    0  503  502  0.00000000000E+00  0.00000000000E+00  0.37193303376E+03  0.37193303376E+03  0.00000000000E+00 0. -1.
         21   -1    0    0  501  503 -0.00000000000E+00 -0.00000000000E+00 -0.15508361535E+03  0.15508361535E+03  0.00000000000E+00 0.  1.
          6    2    1    2  501    0  0.11992910587E+03 -0.11156841365E+03  0.68973683657E+02  0.24812852829E+03  0.17314703623E+03 0.  0.
         24    2    3    3    0    0 -0.50588122786E+01 -0.58340959719E+02  0.49892098925E+02  0.11086477338E+03  0.79828048198E+02 0.  0.
         -6    2    1    2    0  502 -0.11992910587E+03  0.11156841365E+03  0.14787573476E+03  0.27888812082E+03  0.17053108117E+03 0.  0.
        -24    2    5    5    0    0 -0.48425552135E+02 -0.88332356606E+01  0.41716634530E+02  0.10310086328E+03  0.80414241650E+02 0.  0.
          5    1    3    3  501    0  0.12498791815E+03 -0.53227453928E+02  0.19081584732E+02  0.13726375491E+03  0.47000000000E+01 0. -1.
        -13    1    4    4    0    0 -0.31088298572E+02 -0.54851188150E+01  0.40266727016E+02  0.51166181616E+02  0.00000000000E+00 0.  1.
         14    1    4    4    0    0  0.26029486294E+02 -0.52855840904E+02  0.96253719091E+01  0.59698591765E+02  0.00000000000E+00 0. -1.
         -5    1    5    5    0  502 -0.71503553738E+02  0.12040164931E+03  0.10615910023E+03  0.17578725754E+03  0.47000000000E+01 0.  1.
         11    1    6    6    0    0  0.16110971645E+02  0.15719046318E+02  0.21562945089E+02  0.31170698186E+02  0.00000000000E+00 0. -1.
        -12    1    6    6    0    0 -0.64536523779E+02 -0.24552281979E+02  0.20153689441E+02  0.71930165091E+02  0.00000000000E+00 0.  1.
</event>
<event>
12    1  0.8313893E-002  0.3309862E+03  0.7818608E-02  0.1071023E+00
         21   -1    0    0  501  502  0.00000000000E+00  0.00000000000E+00  0.73880253788E+02  0.73880253788E+02  0.00000000000E+00 0.  1.
         21   -1    0    0  502  503 -0.00000000000E+00 -0.00000000000E+00 -0.14774195214E+04  0.14774195214E+04  0.00000000000E+00 0.  1.
         -6    2    1    2    0  503 -0.27755582194E+03  0.44103158259E+02 -0.75417362049E+03  0.82244613807E+03  0.16928519523E+03 0.  0.
        -24    2    3    3    0    0 -0.28683764589E+03  0.16481106586E+02 -0.69547303643E+03  0.75674242004E+03  0.80180321247E+02 0.  0.
          6    2    1    2  501    0  0.27755582194E+03 -0.44103158259E+02 -0.64936564707E+03  0.72885363707E+03  0.17484152196E+03 0.  0.
         24    2    5    5    0    0  0.26688517843E+03 -0.36735317401E+02 -0.46070909621E+03  0.53969356756E+03  0.80243962542E+02 0.  0.
          5    1    5    5  501    0  0.10670643513E+02 -0.73678408574E+01 -0.18865655086E+03  0.18916006951E+03  0.47000000000E+01 0. -1.
        -13    1    6    6    0    0  0.97372829371E+02 -0.33010112271E+01 -0.24266445006E+03  0.26149263832E+03  0.00000000000E+00 0.  1.
         14    1    6    6    0    0  0.16951234906E+03 -0.33434306174E+02 -0.21804464615E+03  0.27820092924E+03  0.00000000000E+00 0. -1.
         -5    1    3    3    0  503  0.92818239427E+01  0.27622051673E+02 -0.58700584059E+02  0.65703718032E+02  0.47000000000E+01 0.  1.
         11    1    4    4    0    0 -0.97347104804E+02 -0.16797221230E+02 -0.16323002070E+03  0.19079477223E+03  0.00000000000E+00 0. -1.
        -12    1    4    4    0    0 -0.18949054108E+03  0.33278327816E+02 -0.53224301573E+03  0.56594764781E+03  0.00000000000E+00 0.  1.
</event>
<event>
12    1  0.8313893E-002  0.4008653E+03  0.7818608E-02  0.1043649E+00
         21   -1    0    0  501  502  0.00000000000E+00  0.00000000000E+00  0.27912715026E+03  0.27912715026E+03  0.00000000000E+00 0.  1.
         21   -1    0    0  502  503 -0.00000000000E+00 -0.00000000000E+00 -0.63780796923E+03  0.63780796923E+03  0.00000000000E+00 0.  1.
         -6    2    1    2    0  503 -0.35984899991E+03 -0.28363226204E+02 -0.32519338488E+03  0.51467347023E+03  0.16983011528E+03 0.  0.
        -24    2    3    3    0    0 -0.88828494510E+02 -0.45541932729E+02 -0.10525112102E+03  0.16518253797E+03  0.79012045286E+02 0.  0.
          6    2    1    2  501    0  0.35984899991E+03  0.28363226204E+02 -0.33487434086E+02  0.40226164926E+03  0.17434807395E+03 0.  0.
         24    2    5    5    0    0  0.30089440395E+03 -0.35560012221E+02 -0.13916169483E+02  0.31300388101E+03  0.77303382560E+02 0.  0.
          5    1    5    5  501    0  0.58954595953E+02  0.63923238425E+02 -0.19571264602E+02  0.89257768249E+02  0.47000000000E+01 0. -1.
        -13    1    6    6    0    0  0.18924366354E+02  0.14140374307E+02  0.10077950439E+02  0.25683592282E+02  0.00000000000E+00 0.  1.
         14    1    6    6    0    0  0.28197003760E+03 -0.49700386528E+02 -0.23994119922E+02  0.28732028873E+03  0.00000000000E+00 0. -1.
         -5    1    3    3    0  503 -0.27102050540E+03  0.17178706525E+02 -0.21994226386E+03  0.34949093227E+03  0.47000000000E+01 0.  1.
         11    1    4    4    0    0 -0.26391862055E+02  0.15730451690E+02 -0.33865111466E+01  0.30910288754E+02  0.00000000000E+00 0. -1.
        -12    1    4    4    0    0 -0.62436632456E+02 -0.61272384419E+02 -0.10186460987E+03  0.13427224921E+03  0.00000000000E+00 0.  1.
</event>
<event>
12    1  0.8313893E-002  0.1893760E+03  0.7818608E-02  0.1160264E+00
         21   -1    0    0  501  502  0.00000000000E+00  0.00000000000E+00  0.40884647088E+03  0.40884647088E+03  0.00000000000E+00 0. -1.
         21   -1    0    0  502  503 -0.00000000000E+00 -0.00000000000E+00 -0.13125677957E+03  0.13125677957E+03  0.00000000000E+00 0. -1.
         -6    2    1    2    0  503 -0.42095049807E+02  0.55077379972E+02 -0.19791102315E+02  0.19040737545E+03  0.17623214773E+03 0.  0.
        -24    2    3    3    0    0 -0.91542203345E+02  0.19041907097E+02  0.72192245112E+01  0.12336094338E+03  0.80145092985E+02 0.  0.
          6    2    1    2  501    0  0.42095049807E+02 -0.55077379972E+02  0.29738079362E+03  0.34969587501E+03  0.17042991984E+03 0.  0.
         24    2    5    5    0    0  0.18595974865E+02 -0.41362076773E+02  0.51936678482E+02  0.10270352751E+03  0.76118094529E+02 0.  0.
          5    1    5    5  501    0  0.23499074942E+02 -0.13715303198E+02  0.24544411514E+03  0.24699234750E+03  0.47000000000E+01 0. -1.
        -11    1    6    6    0    0  0.24148828908E+02  0.16550283075E+02  0.98127876936E+01  0.30876667725E+02  0.00000000000E+00 0.  1.
         12    1    6    6    0    0 -0.55528540428E+01 -0.57912359848E+02  0.42123890788E+02  0.71826859784E+02  0.00000000000E+00 0. -1.
         -5    1    3    3    0  503  0.49447153537E+02  0.36035472875E+02 -0.27010326826E+02  0.67046432072E+02  0.47000000000E+01 0.  1.
         13    1    4    4    0    0 -0.59980625346E+02 -0.24090144477E+02 -0.13512074114E+02  0.66034738015E+02  0.00000000000E+00 0. -1.
        -14    1    4    4    0    0 -0.31561577999E+02  0.43132051573E+02  0.20731298625E+02  0.57326205363E+02  0.00000000000E+00 0.  1.
</event>
<event>
12    1  0.8313893E-002  0.2660968E+03  0.7818608E-02  0.1103538E+00
         21   -1    0    0  503  502  0.00000000000E+00  0.00000000000E+00  0.14983269025E+03  0.14983269025E+03  0.00000000000E+00 0. -1.
         21   -1    0    0  501  503 -0.00000000000E+00 -0.00000000000E+00 -0.59656535132E+03  0.59656535132E+03  0.00000000000E+00 0. -1.
          6    2    1    2  501    0 -0.10073994561E+03  0.17540281913E+03 -0.39354399005E+03  0.47506251283E+03  0.17289544062E+03 0.  0.
         24    2    3    3    0    0  0.12217548331E+02  0.57195768205E+02 -0.96903976034E+02  0.13631527632E+03  0.75966108223E+02 0.  0.
         -6    2    1    2    0  502  0.10073994561E+03 -0.17540281913E+03 -0.53188671020E+02  0.27133552874E+03  0.17285615069E+03 0.  0.
        -24    2    5    5    0    0  0.28866681255E+02 -0.17356611275E+03 -0.42023321677E+02  0.19842534670E+03  0.81536359166E+02 0.  0.
          5    1    3    3  501    0 -0.11295749394E+03  0.11820705092E+03 -0.29664001402E+03  0.33874723651E+03  0.47000000000E+01 0. -1.
        -11    1    4    4    0    0  0.21925518216E+02  0.10029164364E+02 -0.82649636481E+02  0.86094569500E+02  0.00000000000E+00 0.  1.
         12    1    4    4    0    0 -0.97079698849E+01  0.47166603841E+02 -0.14254339553E+02  0.50220706818E+02  0.00000000000E+00 0. -1.
         -5    1    5    5    0  502  0.71873264357E+02 -0.18367063821E+01 -0.11165349343E+02  0.72910182044E+02  0.47000000000E+01 0.  1.
         13    1    6    6    0    0  0.34629751744E+02 -0.27102692673E+02  0.55454582469E+01  0.44322993616E+02  0.00000000000E+00 0. -1.
        -14    1    6    6    0    0 -0.57630704884E+01 -0.14646342008E+03 -0.47568779924E+02  0.15410235308E+03  0.00000000000E+00 0.  1.
</event>
<event>
12    1  0.8313893E-002  0.1721967E+03  0.7818608E-02  0.1175640E+00
         21   -1    0    0  501  502  0.00000000000E+00  0.00000000000E+00  0.15435529957E+03  0.15435529957E+03  0.00000000000E+00 0. -1.
         21   -1    0    0  502  503 -0.00000000000E+00 -0.00000000000E+00 -0.19658017362E+03  0.19658017362E+03  0.00000000000E+00 0. -1.
         -6    2    1    2    0  503  0.58651275057E+01  0.85301631652E+00 -0.48387813031E+02  0.17862856586E+03  0.17184777198E+03 0.  0.
        -24    2    3    3    0    0 -0.74274259878E+01 -0.50402565501E+02 -0.74184063396E+02  0.11954080758E+03  0.78683823935E+02 0.  0.
          6    2    1    2  501    0 -0.58651275057E+01 -0.85301631652E+00  0.61629389768E+01  0.17230690733E+03  0.17209462845E+03 0.  0.
         24    2    5    5    0    0  0.64577101487E+02  0.28135241653E+01  0.48286245022E+01  0.10160031966E+03  0.78238043090E+02 0.  0.
          5    1    5    5  501    0 -0.70442228993E+02 -0.36665404819E+01  0.13343144746E+01  0.70706587669E+02  0.47000000000E+01 0. -1.
        -11    1    6    6    0    0  0.74457795954E+02 -0.65970106564E+01  0.23606412679E+02  0.78388434399E+02  0.00000000000E+00 0.  1.
         12    1    6    6    0    0 -0.98806944665E+01  0.94105348217E+01 -0.18777788177E+02  0.23211885266E+02  0.00000000000E+00 0. -1.
         -5    1    3    3    0  503  0.13292553494E+02  0.51255581818E+02  0.25796250365E+02  0.59087758282E+02  0.47000000000E+01 0.  1.
         13    1    4    4    0    0  0.20839005812E+02 -0.53573681901E+02 -0.70335780586E+02  0.90837908310E+02  0.00000000000E+00 0. -1.
        -14    1    4    4    0    0 -0.28266431800E+02  0.31711163996E+01 -0.38482828104E+01  0.28702899270E+02  0.00000000000E+00 0.  1.
</event>
<event>
12    1  0.8313893E-002  0.2497106E+03  0.7818608E-02  0.1113685E+00
         21   -1    0    0  503  502  0.00000000000E+00  0.00000000000E+00  0.28798691847E+03  0.28798691847E+03  0.00000000000E+00 0.  1.
         21   -1    0    0  501  503 -0.00000000000E+00 -0.00000000000E+00 -0.21582165499E+03  0.21582165499E+03  0.00000000000E+00 0. -1.
          6    2    1    2  501    0  0.16877994108E+03  0.65398171874E+02  0.46661838337E+02  0.25403287057E+03  0.17202262286E+03 0.  0.
         24    2    3    3    0    0  0.45791079166E+02  0.73291252308E+02  0.55679157363E+02  0.13037219405E+03  0.80176741145E+02 0.  0.
         -6    2    1    2    0  502 -0.16877994108E+03 -0.65398171874E+02  0.25503425146E+02  0.24977570290E+03  0.17021717795E+03 0.  0.
        -24    2    5    5    0    0 -0.17866345161E+03 -0.54529299663E+02 -0.19043169483E+02  0.20263437011E+03  0.76183805256E+02 0.  0.
          5    1    3    3  501    0  0.12298886192E+03 -0.78930804342E+01 -0.90173190253E+01  0.12366067652E+03  0.47000000000E+01 0. -1.
        -13    1    4    4    0    0 -0.57148357770E+01  0.53551388291E+02  0.52360389753E+02  0.75113387295E+02  0.00000000000E+00 0.  1.
         14    1    4    4    0    0  0.51505914943E+02  0.19739864017E+02  0.33187676098E+01  0.55258806755E+02  0.00000000000E+00 0. -1.
         -5    1    5    5    0  502  0.98835105337E+01 -0.10868872211E+02  0.44546594629E+02  0.47141332784E+02  0.47000000000E+01 0.  1.
         13    1    6    6    0    0 -0.11785319886E+03 -0.71654736079E+02 -0.20500263695E+02  0.13944188214E+03  0.00000000000E+00 0. -1.
        -14    1    6    6    0    0 -0.60810252755E+02  0.17125436416E+02  0.14570942121E+01  0.63192487972E+02  0.00000000000E+00 0.  1.
</event>
<event>
12    1  0.8313893E-002  0.3629877E+03  0.7818608E-02  0.1057419E+00
         21   -1    0    0  501  502  0.00000000000E+00  0.00000000000E+00  0.83322110886E+02  0.83322110886E+02  0.00000000000E+00 0. -1.
         21   -1    0    0  502  503 -0.00000000000E+00 -0.00000000000E+00 -0.18015669376E+04  0.18015669376E+04  0.00000000000E+00 0. -1.
         -6    2    1    2    0  503  0.19101243635E+03  0.25601987316E+03 -0.11889137999E+04  0.12430546403E+04  0.17215367840E+03 0.  0.
        -24    2    3    3    0    0  0.20727590151E+03  0.26069498335E+03 -0.10888255718E+04  0.11414372188E+04  0.80078867333E+02 0.  0.
          6    2    1    2  501    0 -0.19101243635E+03 -0.25601987316E+03 -0.52933102682E+03  0.64183440815E+03  0.17241851767E+03 0.  0.
         24    2    5    5    0    0 -0.17428691292E+02 -0.12146998345E+03 -0.19893351195E+03  0.24507302243E+03  0.73671758392E+02 0.  0.
          5    1    5    5  501    0 -0.17358374506E+03 -0.13454988972E+03 -0.33039751487E+03  0.39676138573E+03  0.47000000000E+01 0. -1.
        -13    1    6    6    0    0 -0.21092268853E+01 -0.97023907780E+02 -0.89901963708E+02  0.13228926864E+03  0.00000000000E+00 0.  1.
         14    1    6    6    0    0 -0.15319464407E+02 -0.24446075665E+02 -0.10903154824E+03  0.11278375378E+03  0.00000000000E+00 0. -1.
         -5    1    3    3    0  503 -0.16263465156E+02 -0.46751101860E+01 -0.10008822811E+03  0.10161742154E+03  0.47000000000E+01 0.  1.
         13    1    4    4    0    0  0.47420695098E+02  0.60612897016E+02 -0.38129276169E+03  0.38898176786E+03  0.00000000000E+00 0. -1.
        -14    1    4    4    0    0  0.15985520641E+03  0.20008208633E+03 -0.70753281009E+03  0.75245545093E+03  0.00000000000E+00 0.  1.
</event>
<event>
12    1  0.8313893E-002  0.1768853E+03  0.7818608E-02  0.1170937E+00
         21   -1    0    0  501  502  0.00000000000E+00  0.00000000000E+00  0.36626829130E+03  0.36626829130E+03  0.00000000000E+00 0. -1.
         21   -1    0    0  502  503 -0.00000000000E+00 -0.00000000000E+00 -0.86344006653E+02  0.86344006653E+02  0.00000000000E+00 0. -1.
         -6    2    1    2    0  503  0.30509796316E+02 -0.34755647036E+02  0.11447194245E+03  0.21040810266E+03  0.17037881730E+03 0.  0.
        -24    2    3    3    0    0  0.51096101280E+02  0.28104367342E+02  0.31226005386E+02  0.10397900233E+03  0.80224076701E+02 0.  0.
          6    2    1    2  501    0 -0.30509796316E+02  0.34755647036E+02  0.16545234219E+03  0.24220419529E+03  0.17073251596E+03 0.  0.
         24    2    5    5    0    0 -0.32609895346E+02 -0.38846747094E+02  0.52386412791E+02  0.10719413186E+03  0.78573345512E+02 0.  0.
          5    1    5    5  501    0  0.21000990302E+01  0.73602394129E+02  0.11306592940E+03  0.13501006343E+03  0.47000000000E+01 0. -1.
        -11    1    6    6    0    0  0.10561221025E+02 -0.45736826556E+02  0.13914666154E+02  0.48959316041E+02  0.00000000000E+00 0.  1.
         12    1    6    6    0    0 -0.43171116371E+02  0.68900794628E+01  0.38471746637E+02  0.58234815815E+02  0.00000000000E+00 0. -1.
         -5    1    3    3    0  503 -0.20586304964E+02 -0.62860014378E+02  0.83245937066E+02  0.10642910033E+03  0.47000000000E+01 0.  1.
         13    1    4    4    0    0  0.51018114316E+02 -0.10009561950E+02  0.39109307634E+02  0.65058260524E+02  0.00000000000E+00 0. -1.
        -14    1    4    4    0    0  0.77986963957E-01  0.38113929292E+02 -0.78833022482E+01  0.38920741802E+02  0.00000000000E+00 0.  1.
</event>
<event>
12    1  0.8313893E-002  0.1842432E+03  0.7818608E-02  0.1163947E+00
         21   -1    0    0  501  502  0.00000000000E+00  0.00000000000E+00  0.48009389651E+02  0.48009389651E+02  0.00000000000E+00 0. -1.
         21   -1    0    0  502  503 -0.00000000000E+00 -0.00000000000E+00 -0.12097985816E+04  0.12097985816E+04  0.00000000000E+00 0. -1.
         -6    2    1    2    0  503 -0.50732402890E+02  0.42480113343E+02 -0.98680678342E+03  0.10037127380E+04  0.17109440651E+03 0.  0.
        -24    2    3    3    0    0 -0.88111370411E+01  0.27877615511E+02 -0.91659497244E+03  0.92051169311E+03  0.79628111096E+02 0.  0.
          6    2    1    2  501    0  0.50732402890E+02 -0.42480113343E+02 -0.17498240856E+03  0.25409523326E+03  0.17195117774E+03 0.  0.
         24    2    5    5    0    0  0.79622458427E+01 -0.52720515145E+02 -0.26792188848E+02  0.99445359730E+02  0.79553177890E+02 0.  0.
          5    1    5    5  501    0  0.42770157047E+02  0.10240401802E+02 -0.14819021972E+03  0.15464987353E+03  0.47000000000E+01 0. -1.
        -11    1    6    6    0    0  0.12532596151E+02  0.13847672579E+02  0.12061105761E+02  0.22232729799E+02  0.00000000000E+00 0.  1.
         12    1    6    6    0    0 -0.45703503088E+01 -0.66568187724E+02 -0.38853294608E+02  0.77212629930E+02  0.00000000000E+00 0. -1.
         -5    1    3    3    0  503 -0.41921265848E+02  0.14602497832E+02 -0.70211810979E+02  0.83201044910E+02  0.47000000000E+01 0.  1.
         11    1    4    4    0    0 -0.25627635235E+02  0.22514617525E+02 -0.15488000481E+03  0.15859224313E+03  0.00000000000E+00 0. -1.
        -12    1    4    4    0    0  0.16816498194E+02  0.53629979864E+01 -0.76171496763E+03  0.76191944999E+03  0.00000000000E+00 0.  1.
</event>
<event>
12    1  0.8313893E-002  0.1947280E+03  0.7818608E-02  0.1154444E+00
         21   -1    0    0  503  502  0.00000000000E+00  0.00000000000E+00  0.69408522129E+03  0.69408522129E+03  0.00000000000E+00 0.  1.
         21   -1    0    0  501  503 -0.00000000000E+00 -0.00000000000E+00 -0.66296313951E+02  0.66296313951E+02  0.00000000000E+00 0.  1.
          6    2    1    2  501    0 -0.59987214347E+02  0.65811708300E+02  0.15340087868E+03  0.24789280084E+03  0.17317437540E+03 0.  0.
         24    2    3    3    0    0 -0.10452587816E+03  0.68610569700E+02  0.12374336240E+03  0.19410447059E+03  0.82043014853E+02 0.  0.
         -6    2    1    2    0  502  0.59987214347E+02 -0.65811708300E+02  0.47438802866E+03  0.51248873440E+03  0.17225287898E+03 0.  0.
        -24    2    5    5    0    0  0.95035664498E+02 -0.14833272419E+02  0.25055668769E+03  0.28021787100E+03  0.80570453556E+02 0.  0.
          5    1    3    3  501    0  0.44538663812E+02 -0.27988614001E+01  0.29657516283E+02  0.53788330253E+02  0.47000000000E+01 0. -1.
        -11    1    4    4    0    0 -0.79267971403E+02  0.50394801699E+02  0.35310668746E+02  0.10034884482E+03  0.00000000000E+00 0.  1.
         12    1    4    4    0    0 -0.25257906756E+02  0.18215768001E+02  0.88432693656E+02  0.93755625776E+02  0.00000000000E+00 0. -1.
         -5    1    5    5    0  502 -0.35048450152E+02 -0.50978435881E+02  0.22383134097E+03  0.23227086339E+03  0.47000000000E+01 0.  1.
         11    1    6    6    0    0  0.34633966885E+02 -0.21196463703E+02  0.27502925645E+02  0.49042967434E+02  0.00000000000E+00 0. -1.
        -12    1    6    6    0    0  0.60401697613E+02  0.63631912835E+01  0.22305376204E+03  0.23117490357E+03  0.00000000000E+00 0.  1.
</event>
<event>
12    1  0.8313893E-002  0.1723149E+03  0.7818608E-02  0.1175723E+00
         21   -1    0    0  503  502  0.00000000000E+00  0.00000000000E+00  0.11963661939E+03  0.11963661939E+03  0.00000000000E+00 0.  1.
         21   -1    0    0  501  503 -0.00000000000E+00 -0.00000000000E+00 -0.35135830054E+03  0.35135830054E+03  0.00000000000E+00 0.  1.
          6    2    1    2  501    0  0.71859524008E+00 -0.81800427803E+01 -0.24414808822E+03  0.29823249643E+03  0.17107572437E+03 0.  0.
         24    2    3    3    0    0 -0.17069743389E+02  0.43493192302E+02 -0.70741835124E+02  0.11635790550E+03  0.79697685160E+02 0.  0.
         -6    2    1    2    0  502 -0.71859524008E+00  0.81800427803E+01  0.12426407060E+02  0.17276242349E+03  0.17211917354E+03 0.  0.
        -24    2    5    5    0    0 -0.54198865326E+02  0.23678291104E+02  0.44350014650E+02  0.10840761240E+03  0.79291286749E+02 0.  0.
          5    1    3    3  501    0  0.17788338630E+02 -0.51673235082E+02 -0.17340625309E+03  0.18187459093E+03  0.47000000000E+01 0. -1.
        -11    1    4    4    0    0  0.26360608707E+02  0.27696929224E+02 -0.90788158635E+01  0.39299191816E+02  0.00000000000E+00 0.  1.
         12    1    4    4    0    0 -0.43430352097E+02  0.15796263077E+02 -0.61663019261E+02  0.77058713685E+02  0.00000000000E+00 0. -1.
         -5    1    5    5    0  502  0.53480270086E+02 -0.15498248323E+02 -0.31923607590E+02  0.64354811095E+02  0.47000000000E+01 0.  1.
         13    1    6    6    0    0 -0.52372368409E+02  0.17716456231E+02 -0.78449065588E+01  0.55841564744E+02  0.00000000000E+00 0. -1.
        -14    1    6    6    0    0 -0.18264969174E+01  0.59618348721E+01  0.52194921209E+02  0.52566047655E+02  0.00000000000E+00 0.  1.
</event>
<event>
12    1  0.8313893E-002  0.1727080E+03  0.7818608E-02  0.1175078E+00
         21   -1    0    0  501  502  0.00000000000E+00  0.00000000000E+00  0.48238424478E+02  0.48238424478E+02  0.00000000000E+00 0.  1.
         21   -1    0    0  502  503 -0.00000000000E+00 -0.00000000000E+00 -0.83838945544E+03  0.83838945544E+03  0.00000000000E+00 0.  1.
         -6    2    1    2    0  503 -0.87753890316E+01  0.12232622349E+02 -0.62228795987E+03  0.64578337723E+03  0.17195121638E+03 0.  0.
        -24    2    3    3    0    0  0.54009447711E+02  0.32294314397E+02 -0.29628060487E+03  0.31314649906E+03  0.79489558208E+02 0.  0.
          6    2    1    2  501    0  0.87753890316E+01 -0.12232622349E+02 -0.16786307110E+03  0.24084450269E+03  0.17205063015E+03 0.  0.
         24    2    5    5    0    0 -0.88395479795E+01  0.18361204080E+02 -0.15430700221E+02  0.84307012248E+02  0.80338623221E+02 0.  0.
          5    1    5    5  501    0  0.17614937011E+02 -0.30593826430E+02 -0.15243237088E+03  0.15653749044E+03  0.47000000000E+01 0. -1.
        -13    1    6    6    0    0 -0.41788476422E+02  0.66187960237E+01 -0.23516668881E+02  0.48405773806E+02  0.00000000000E+00 0.  1.
         14    1    6    6    0    0  0.32948928443E+02  0.11742408057E+02  0.80859686599E+01  0.35901238442E+02  0.00000000000E+00 0. -1.
         -5    1    3    3    0  503 -0.62784836743E+02 -0.20061692047E+02 -0.32600735499E+03  0.33263687818E+03  0.47000000000E+01 0.  1.
         11    1    4    4    0    0  0.28272453476E+02 -0.23838484772E+02 -0.14737936603E+03  0.15194828895E+03  0.00000000000E+00 0. -1.
        -12    1    4    4    0    0  0.25736994235E+02  0.56132799169E+02 -0.14890123884E+03  0.16119821011E+03  0.00000000000E+00 0.  1.
</event>
<event>
12    1  0.8313893E-002  0.1727273E+03  0.7818608E-02  0.1175065E+00
         21   -1    0    0  501  502  0.00000000000E+00  0.00000000000E+00  0.16228866707E+04  0.16228866707E+04  0.00000000000E+00 0. -1.
         21   -1    0    0  502  503 -0.00000000000E+00 -0.00000000000E+00 -0.18760360380E+02  0.18760360380E+02  0.00000000000E+00 0.  1.
         -6    2    1    2    0  503 -0.13436373098E+02 -0.17075312249E+02  0.68404055603E+03  0.70551131605E+03  0.17135528114E+03 0.  0.
        -24    2    3    3    0    0  0.53892559134E+02 -0.35703689385E+02  0.42533204589E+03  0.43749567328E+03  0.79472973483E+02 0.  0.
          6    2    1    2  501    0  0.13436373098E+02  0.17075312249E+02  0.92008575427E+03  0.93613571500E+03  0.17123136189E+03 0.  0.
         24    2    5    5    0    0 -0.54221846573E+02  0.31120990493E+01  0.34866816106E+03  0.36053797192E+03  0.73948961163E+02 0.  0.
          5    1    5    5  501    0  0.67658219671E+02  0.13963213200E+02  0.57141759321E+03  0.57559774308E+03  0.47000000000E+01 0. -1.
        -13    1    6    6    0    0 -0.34414129163E+01  0.64748457342E+01 -0.80689149321E+00  0.73768573271E+01  0.00000000000E+00 0.  1.
         14    1    6    6    0    0 -0.50780433657E+02 -0.33627466849E+01  0.34947505255E+03  0.35316111460E+03  0.00000000000E+00 0. -1.
         -5    1    3    3    0  503 -0.67328932232E+02  0.18628377136E+02  0.25870851014E+03  0.26801564277E+03  0.47000000000E+01 0.  1.
         13    1    4    4    0    0 -0.75529903039E+01 -0.19490827410E+02  0.25227679812E+03  0.25314131011E+03  0.00000000000E+00 0. -1.
        -14    1    4    4    0    0  0.61445549438E+02 -0.16212861975E+02  0.17305524777E+03  0.18435436317E+03  0.00000000000E+00 0.  1.
</event>
<event>
12    1  0.8313893E-002  0.1878841E+03  0.7818608E-02  0.1160732E+00
         21   -1    0    0  503  502  0.00000000000E+00  0.00000000000E+00  0.15041348943E+03  0.15041348943E+03  0.00000000000E+00 0. -1.
         21   -1    0    0  501  503 -0.00000000000E+00 -0.00000000000E+00 -0.23685977211E+03  0.23685977211E+03  0.00000000000E+00 0. -1.
          6    2    1    2  501    0  0.10622587456E+02  0.72907744236E+02 -0.68751125584E+02  0.20006791551E+03  0.17283539861E+03 0.  0.
         24    2    3    3    0    0 -0.56857734090E+02  0.33707499913E+02 -0.59712524008E+02  0.12136569655E+03  0.82432089008E+02 0.  0.
         -6    2    1    2    0  502 -0.10622587456E+02 -0.72907744236E+02 -0.17695157097E+02  0.18720534603E+03  0.17118511753E+03 0.  0.
        -24    2    5    5    0    0 -0.68065938783E+02 -0.19106305400E+02 -0.21397922453E+02  0.10827414875E+03  0.79166895063E+02 0.  0.
          5    1    3    3  501    0  0.67480321546E+02  0.39200244322E+02 -0.90386015761E+01  0.78702218961E+02  0.47000000000E+01 0. -1.
        -13    1    4    4    0    0  0.97480521775E+01 -0.11883562203E+02  0.67709259306E+01  0.16795505645E+02  0.00000000000E+00 0.  1.
         14    1    4    4    0    0 -0.66605786268E+02  0.45591062117E+02 -0.66483449939E+02  0.10457019090E+03  0.00000000000E+00 0. -1.
         -5    1    5    5    0  502  0.57443351328E+02 -0.53801438835E+02  0.37027653562E+01  0.78931197278E+02  0.47000000000E+01 0.  1.
         13    1    6    6    0    0 -0.55056313956E+01  0.10579913520E+02 -0.35636225983E+02  0.37579078614E+02  0.00000000000E+00 0. -1.
        -14    1    6    6    0    0 -0.62560307388E+02 -0.29686218921E+02  0.14238303530E+02  0.70695070137E+02  0.00000000000E+00 0.  1.
</event>
<event>
12    1  0.8313893E-002  0.2253474E+03  0.7818608E-02  0.1130008E+00
         21   -1    0    0  501  502  0.00000000000E+00  0.00000000000E+00  0.86382053172E+03  0.86382053172E+03  0.00000000000E+00 0. -1.
         21   -1    0    0  502  503 -0.00000000000E+00 -0.00000000000E+00 -0.25255745759E+03  0.25255745759E+03  0.00000000000E+00 0. -1.
         -6    2    1    2    0  503 -0.40530988698E+02  0.13901865776E+03 -0.18343027448E+03  0.29035197550E+03  0.17230396348E+03 0.  0.
        -24    2    3    3    0    0 -0.48801905943E+02  0.15635839749E+03 -0.19419305776E+03  0.26783526727E+03  0.84824596794E+02 0.  0.
          6    2    1    2  501    0  0.40530988698E+02 -0.13901865776E+03  0.79469334862E+03  0.82602601381E+03  0.17266299226E+03 0.  0.
         24    2    5    5    0    0  0.22934704951E+02 -0.16920805299E+03  0.65280800454E+03  0.67982557041E+03  0.82747504521E+02 0.  0.
          5    1    5    5  501    0  0.17596283747E+02  0.30189395222E+02  0.14188534408E+03  0.14620044340E+03  0.47000000000E+01 0. -1.
        -13    1    6    6    0    0  0.69484566087E+01 -0.14722187347E+03  0.41355774041E+03  0.43903595039E+03  0.00000000000E+00 0.  1.
         14    1    6    6    0    0  0.15986248342E+02 -0.21986179519E+02  0.23925026412E+03  0.24078962002E+03  0.00000000000E+00 0. -1.
         -5    1    3    3    0  503  0.82709172451E+01 -0.17339739726E+02  0.10762783279E+02  0.22516708235E+02  0.47000000000E+01 0.  1.
         13    1    4    4    0    0  0.20995103168E+02  0.14820429589E+02 -0.37369356383E+02  0.45353150791E+02  0.00000000000E+00 0. -1.
        -14    1    4    4    0    0 -0.69797009111E+02  0.14153796790E+03 -0.15682370138E+03  0.22248211648E+03  0.00000000000E+00 0.  1.
</event>
<event>
12    1  0.8313893E-002  0.1821173E+03  0.7818608E-02  0.1166104E+00
         21   -1    0    0  503  502  0.00000000000E+00  0.00000000000E+00  0.67086999657E+02  0.67086999657E+02  0.00000000000E+00 0.  1.
         21   -1    0    0  501  503 -0.00000000000E+00 -0.00000000000E+00 -0.69377246046E+03  0.69377246046E+03  0.00000000000E+00 0.  1.
          6    2    1    2  501    0  0.55064845220E+02 -0.22470401282E+02 -0.52006641775E+03  0.55103156898E+03  0.17213266693E+03 0.  0.
         24    2    3    3    0    0  0.53835145080E+02  0.38395468817E+02 -0.42629845156E+03  0.43913568974E+03  0.82081358015E+02 0.  0.
         -6    2    1    2    0  502 -0.55064845220E+02  0.22470401282E+02 -0.10661904305E+03  0.20982789114E+03  0.17065481958E+03 0.  0.
        -24    2    5    5    0    0 -0.88225788758E+02 -0.24479118392E+02 -0.83518110476E+02  0.14770182045E+03  0.80358795079E+02 0.  0.
          5    1    3    3  501    0  0.12297001395E+01 -0.60865870100E+02 -0.93767966190E+02  0.11189587923E+03  0.47000000000E+01 0. -1.
        -11    1    4    4    0    0  0.11664149085E+02  0.47372365696E+01 -0.31694903447E+03  0.31719896632E+03  0.00000000000E+00 0.  1.
         12    1    4    4    0    0  0.42170995995E+02  0.33658232248E+02 -0.10934941709E+03  0.12193672343E+03  0.00000000000E+00 0. -1.
         -5    1    5    5    0  502  0.33160943538E+02  0.46949519674E+02 -0.23100932574E+02  0.62126070693E+02  0.47000000000E+01 0.  1.
         11    1    6    6    0    0  0.14945584062E+02 -0.87562198338E+01 -0.95015919958E+01  0.19756571544E+02  0.00000000000E+00 0. -1.
        -12    1    6    6    0    0 -0.10317137282E+03 -0.15722898558E+02 -0.74016518481E+02  0.12794524890E+03  0.00000000000E+00 0.  1.
</event>
<event>
12    1  0.8313893E-002  0.2022774E+03  0.7818608E-02  0.1148499E+00
         21   -1    0    0  501  502  0.00000000000E+00  0.00000000000E+00  0.28542656642E+04  0.28542656642E+04  0.00000000000E+00 0.  1.
         21   -1    0    0  502  503 -0.00000000000E+00 -0.00000000000E+00 -0.15287754895E+02  0.15287754895E+02  0.00000000000E+00 0.  1.
         -6    2    1    2    0  503 -0.27013737163E+02 -0.99155957621E+02  0.10109191376E+04  0.10303375469E+04  0.17051777598E+03 0.  0.
        -24    2    3    3    0    0 -0.39791790147E+02 -0.11360620412E+03  0.99338313899E+03  0.10038481243E+04  0.80070217374E+02 0.  0.
          6    2    1    2  501    0  0.27013737163E+02  0.99155957621E+02  0.18280587717E+04  0.18392158722E+04  0.17422544496E+03 0.  0.
         24    2    5    5    0    0 -0.29929078258E+02  0.81216305372E+02  0.74101982444E+03  0.75052855331E+03  0.81797867574E+02 0.  0.
          5    1    5    5  501    0  0.56942815421E+02  0.17939652250E+02  0.10870389473E+04  0.10886873189E+04  0.47000000000E+01 0. -1.
        -11    1    6    6    0    0 -0.52231465208E+02  0.50845979340E+02  0.60537019500E+03  0.60974298894E+03  0.00000000000E+00 0.  1.
         12    1    6    6    0    0  0.22302386950E+02  0.30370326031E+02  0.13564962944E+03  0.14078556436E+03  0.00000000000E+00 0. -1.
         -5    1    3    3    0  503  0.12778052984E+02  0.14450246499E+02  0.17535998569E+02  0.26489422564E+02  0.47000000000E+01 0.  1.
         13    1    4    4    0    0 -0.38906032596E+02 -0.29347712451E+02  0.57515255146E+03  0.57721350040E+03  0.00000000000E+00 0. -1.
        -14    1    4    4    0    0 -0.88575755092E+00 -0.84258491670E+02  0.41823058753E+03  0.42663462393E+03  0.00000000000E+00 0.  1.
</event>
<event>
12    1  0.8313893E-002  0.2507729E+03  0.7818608E-02  0.1113225E+00
         21   -1    0    0  503  502  0.00000000000E+00  0.00000000000E+00  0.54546932952E+03  0.54546932952E+03  0.00000000000E+00 0.  1.
         21   -1    0    0  501  503 -0.00000000000E+00 -0.00000000000E+00 -0.46579367877E+03  0.46579367877E+03  0.00000000000E+00 0.  1.
          6    2    1    2  501    0 -0.15439407405E+03  0.96572137538E+02 -0.39946467296E+03  0.47165564613E+03  0.17240451193E+03 0.  0.
         24    2    3    3    0    0 -0.18066658530E+03  0.71146133268E+02 -0.36454927037E+03  0.42088260330E+03  0.80893806367E+02 0.  0.
         -6    2    1    2    0  502  0.15439407405E+03 -0.96572137538E+02  0.47914032371E+03  0.53960736215E+03  0.16863258175E+03 0.  0.
        -24    2    5    5    0    0  0.37306748299E+02 -0.90992157385E+02  0.29811471035E+03  0.32389240967E+03  0.79765571143E+02 0.  0.
          5    1    3    3  501    0  0.26272511251E+02  0.25426004269E+02 -0.34915402590E+02  0.50773042833E+02  0.47000000000E+01 0. -1.
        -11    1    4    4    0    0 -0.15414658090E+03  0.81514442058E+02 -0.34431229895E+03  0.38594913120E+03  0.00000000000E+00 0.  1.
         12    1    4    4    0    0 -0.26520004402E+02 -0.10368308789E+02 -0.20236971426E+02  0.34933472102E+02  0.00000000000E+00 0. -1.
         -5    1    5    5    0  502  0.11708732575E+03 -0.55799801531E+01  0.18102561336E+03  0.21571495248E+03  0.47000000000E+01 0.  1.
         13    1    6    6    0    0  0.19220731499E+02 -0.41358903278E+02  0.40743268958E+02  0.61155615974E+02  0.00000000000E+00 0. -1.
        -14    1    6    6    0    0  0.18086016800E+02 -0.49633254106E+02  0.25737144139E+03  0.26273679370E+03  0.00000000000E+00 0.  1.
</event>
<event>
12    1  0.8313893E-002  0.2509882E+03  0.7818608E-02  0.1112738E+00
         21   -1    0    0  503  502  0.00000000000E+00  0.00000000000E+00  0.66082692210E+03  0.66082692210E+03  0.00000000000E+00 0.  1.
         21   -1    0    0  501  503 -0.00000000000E+00 -0.00000000000E+00 -0.10308894790E+03  0.10308894790E+03  0.00000000000E+00 0. -1.
          6    2    1    2  501    0 -0.89259988392E+02  0.15914761971E+03  0.17297515561E+03  0.30452769242E+03  0.17181792865E+03 0.  0.
         24    2    3    3    0    0 -0.97249584804E+02  0.13230938043E+03  0.19537579725E+03  0.26836136161E+03  0.82963030088E+02 0.  0.
         -6    2    1    2    0  502  0.89259988392E+02 -0.15914761971E+03  0.38476281860E+03  0.45938817758E+03  0.17233618524E+03 0.  0.
        -24    2    5    5    0    0  0.11907327627E+03 -0.16355762027E+03  0.31192196655E+03  0.38041881666E+03  0.80583016683E+02 0.  0.
          5    1    3    3  501    0  0.79895964116E+01  0.26838239277E+02 -0.22400641638E+02  0.36166330808E+02  0.47000000000E+01 0. -1.
        -11    1    4    4    0    0  0.40630188106E-01  0.32624576960E+02  0.83684209275E+02  0.89818770614E+02  0.00000000000E+00 0.  1.
         12    1    4    4    0    0 -0.97290214992E+02  0.99684803471E+02  0.11169158797E+03  0.17854259100E+03  0.00000000000E+00 0. -1.
         -5    1    5    5    0  502 -0.29813287878E+02  0.44100005607E+01  0.72840852042E+02  0.78969360927E+02  0.47000000000E+01 0.  1.
         13    1    6    6    0    0  0.26164419271E+02 -0.10530742903E+01  0.17382499278E+02  0.31429875634E+02  0.00000000000E+00 0. -1.
        -14    1    6    6    0    0  0.92908857000E+02 -0.16250454598E+03  0.29453946728E+03  0.34898894102E+03  0.00000000000E+00 0.  1.
</event>
<event>
12    1  0.8313893E-002  0.1909715E+03  0.7818608E-02  0.1158888E+00
         21   -1    0    0  503  502  0.00000000000E+00  0.00000000000E+00  0.35342605112E+03  0.35342605112E+03  0.00000000000E+00 0. -1.
         21   -1    0    0  501  503 -0.00000000000E+00 -0.00000000000E+00 -0.13319771271E+03  0.13319771271E+03  0.00000000000E+00 0. -1.
          6    2    1    2  501    0  0.21280706811E+01  0.68443506417E+02 -0.12368769879E+02  0.18567274569E+03  0.17214046523E+03 0.  0.
         24    2    3    3    0    0 -0.42831899648E+02  0.98539338800E+02 -0.12487143580E+02  0.13136563685E+03  0.74541457400E+02 0.  0.
         -6    2    1    2    0  502 -0.21280706811E+01 -0.68443506417E+02  0.23259710829E+03  0.30095101813E+03  0.17827242713E+03 0.  0.
        -24    2    5    5    0    0  0.63718323542E+02 -0.17144520694E+02  0.98101804540E+02  0.14258937410E+03  0.79710765947E+02 0.  0.
          5    1    3    3  501    0  0.44959970329E+02 -0.30095832383E+02  0.11837370168E+00  0.54307108846E+02  0.47000000000E+01 0. -1.
        -13    1    4    4    0    0 -0.19171520876E+01  0.46821215594E+02  0.27412326619E+02  0.54289385266E+02  0.00000000000E+00 0.  1.
         14    1    4    4    0    0 -0.40914747561E+02  0.51718123205E+02 -0.39899470200E+02  0.77076251583E+02  0.00000000000E+00 0. -1.
         -5    1    5    5    0  502 -0.65846394224E+02 -0.51298985723E+02  0.13449530375E+03  0.15836164403E+03  0.47000000000E+01 0.  1.
         13    1    6    6    0    0  0.17750080946E+02 -0.23992937831E+02  0.90755405155E+02  0.95536746879E+02  0.00000000000E+00 0. -1.
        -14    1    6    6    0    0  0.45968242596E+02  0.68484171372E+01  0.73463993853E+01  0.47052627223E+02  0.00000000000E+00 0.  1.
</event>
<event>
12    1  0.8313893E-002  0.2866555E+03  0.7818608E-02  0.1092174E+00
         21   -1    0    0  501  502  0.00000000000E+00  0.00000000000E+00  0.17738569080E+03  0.17738569080E+03  0.00000000000E+00 0.  1.
         21   -1    0    0  502  503 -0.00000000000E+00 -0.00000000000E+00 -0.47350776531E+03  0.47350776531E+03  0.00000000000E+00 0. -1.
         -6    2    1    2    0  503 -0.69556587868E+02 -0.21801323213E+03 -0.19769447659E+03  0.34781038191E+03  0.17181695898E+03 0.  0.
        -24    2    3    3    0    0 -0.44706895032E+02 -0.45145432271E+02 -0.33364250066E+02  0.10796189472E+03  0.80658421815E+02 0.  0.
          6    2    1    2  501    0  0.69556587868E+02  0.21801323213E+03 -0.98427597923E+02  0.30308307420E+03  0.17263681395E+03 0.  0.
         24    2    5    5    0    0  0.52864194520E+02  0.15271617876E+03  0.39870915287E+01  0.18039159205E+03  0.80052328306E+02 0.  0.
          5    1    5    5  501    0  0.16692393349E+02  0.65297053371E+02 -0.10241468945E+03  0.12269148214E+03  0.47000000000E+01 0. -1.
        -13    1    6    6    0    0  0.60183535394E+02  0.15246653089E+03  0.17677524895E+02  0.16486538709E+03  0.00000000000E+00 0.  1.
         14    1    6    6    0    0 -0.73193408745E+01  0.24964787497E+00 -0.13690433366E+02  0.15526204966E+02  0.00000000000E+00 0. -1.
         -5    1    3    3    0  503 -0.24849692836E+02 -0.17286779986E+03 -0.16433022652E+03  0.23984848720E+03  0.47000000000E+01 0.  1.
         13    1    4    4    0    0 -0.60181401464E+02 -0.12031863224E+02 -0.36281833712E+02  0.71294728222E+02  0.00000000000E+00 0. -1.
        -14    1    4    4    0    0  0.15474506431E+02 -0.33113569047E+02  0.29175836457E+01  0.36667166493E+02  0.00000000000E+00 0.  1.
</event>
<event>
12    1  0.8313893E-002  0.1857445E+03  0.7818608E-02  0.1163000E+00
         21   -1    0    0  503  502  0.00000000000E+00  0.00000000000E+00  0.58092085406E+03  0.58092085406E+03  0.00000000000E+00 0. -1.
         21   -1    0    0  501  503 -0.00000000000E+00 -0.00000000000E+00 -0.66546552090E+02  0.66546552090E+02  0.00000000000E+00 0. -1.
          6    2    1    2  501    0  0.14411384674E+02 -0.68549672843E+02  0.37134068682E+03  0.41520466952E+03  0.17202984116E+03 0.  0.
         24    2    3    3    0    0 -0.30834384044E+02 -0.42294006187E+01  0.98019672125E+02  0.13075652999E+03  0.80751265895E+02 0.  0.
         -6    2    1    2    0  502 -0.14411384674E+02  0.68549672843E+02  0.14303361515E+03  0.23226273663E+03  0.16905803178E+03 0.  0.
        -24    2    5    5    0    0 -0.86541260952E+01 -0.64873045076E+01  0.12546660111E+02  0.81555638485E+02  0.79855647706E+02 0.  0.
          5    1    3    3  501    0  0.45245768718E+02 -0.64320272224E+02  0.27332101470E+03  0.28444813953E+03  0.47000000000E+01 0. -1.
        -13    1    4    4    0    0 -0.93902870045E+01  0.31047429857E+02  0.10676398045E+02  0.34148292285E+02  0.00000000000E+00 0.  1.
         14    1    4    4    0    0 -0.21444097039E+02 -0.35276830476E+02  0.87343274080E+02  0.96608237710E+02  0.00000000000E+00 0. -1.
         -5    1    5    5    0  502 -0.57572585787E+01  0.75036977350E+02  0.13048695504E+03  0.15070709815E+03  0.47000000000E+01 0.  1.
         13    1    6    6    0    0 -0.61147979676E+01  0.21469636317E+02 -0.25745483320E+02  0.34075885156E+02  0.00000000000E+00 0. -1.
        -14    1    6    6    0    0 -0.25393281276E+01 -0.27956940825E+02  0.38292143431E+02  0.47479753329E+02  0.00000000000E+00 0.  1.
</event>
<event>
12    1  0.8313893E-002  0.2638880E+03  0.7818608E-02  0.1105662E+00
         21   -1    0    0  501  502  0.00000000000E+00  0.00000000000E+00  0.39093613233E+03  0.39093613233E+03  0.00000000000E+00 0. -1.
         21   -1    0    0  502  503 -0.00000000000E+00 -0.00000000000E+00 -0.96107609219E+03  0.96107609219E+03  0.00000000000E+00 0. -1.
         -6    2    1    2    0  503 -0.86457089061E+02  0.16849303558E+03 -0.89612205516E+03  0.93260647090E+03  0.17565693987E+03 0.  0.
        -24    2    3    3    0    0 -0.98513317997E+02  0.19228858503E+03 -0.78155954185E+03  0.81488544353E+03  0.80766297780E+02 0.  0.
          6    2    1    2  501    0  0.86457089061E+02 -0.16849303558E+03  0.32598209530E+03  0.41940575363E+03  0.18377194681E+03 0.  0.
         24    2    5    5    0    0  0.51389629019E+02 -0.10216697668E+03  0.78812410015E+02  0.16105750772E+03  0.81542257303E+02 0.  0.
          5    1    5    5  501    0  0.35067460042E+02 -0.66326058908E+02  0.24716968528E+03  0.25834824592E+03  0.47000000000E+01 0. -1.
        -13    1    6    6    0    0  0.19714024324E+02 -0.42908526649E+02 -0.11394136980E+02  0.48575824973E+02  0.00000000000E+00 0.  1.
         14    1    6    6    0    0  0.31675604695E+02 -0.59258450027E+02  0.90206546995E+02  0.11248168275E+03  0.00000000000E+00 0. -1.
         -5    1    3    3    0  503  0.12056228936E+02 -0.23795549444E+02 -0.11456251331E+03  0.11772102737E+03  0.47000000000E+01 0.  1.
         11    1    4    4    0    0 -0.61017403406E+02  0.12472838242E+03 -0.62572934066E+03  0.64095046662E+03  0.00000000000E+00 0. -1.
        -12    1    4    4    0    0 -0.37495914591E+02  0.67560202608E+02 -0.15583020119E+03  0.17393497690E+03  0.00000000000E+00 0.  1.
</event>
<event>
12    1  0.8313893E-002  0.3458387E+03  0.7818608E-02  0.1064420E+00
         21   -1    0    0  503  502  0.00000000000E+00  0.00000000000E+00  0.31372380850E+03  0.31372380850E+03  0.00000000000E+00 0.  1.
         21   -1    0    0  501  503 -0.00000000000E+00 -0.00000000000E+00 -0.92346541909E+03  0.92346541909E+03  0.00000000000E+00 0. -1.
          6    2    1    2  501    0  0.37038687801E+02 -0.29740972194E+03 -0.77941295267E+03  0.85269511690E+03  0.17256883990E+03 0.  0.
         24    2    3    3    0    0 -0.35048466389E+02 -0.10512258657E+03 -0.27271550311E+03  0.30594536096E+03  0.83364651120E+02 0.  0.
         -6    2    1    2    0  502 -0.37038687801E+02  0.29740972194E+03  0.16967134208E+03  0.38449411068E+03  0.17094721329E+03 0.  0.
        -24    2    5    5    0    0 -0.87384729719E+02  0.19753365936E+03  0.11185373649E+03  0.25849840708E+03  0.87490173874E+02 0.  0.
          5    1    3    3  501    0  0.72087154189E+02 -0.19228713537E+03 -0.50669744956E+03  0.54674975594E+03  0.47000000000E+01 0. -1.
        -13    1    4    4    0    0 -0.98449600601E+01 -0.11169594707E+03 -0.23080331902E+03  0.25659906450E+03  0.00000000000E+00 0.  1.
         14    1    4    4    0    0 -0.25203506329E+02  0.65733605069E+01 -0.41912184091E+02  0.49346296466E+02  0.00000000000E+00 0. -1.
         -5    1    5    5    0  502  0.50346041919E+02  0.99876062573E+02  0.57817605589E+02  0.12599570361E+03  0.47000000000E+01 0.  1.
         13    1    6    6    0    0  0.15175369192E+02  0.11577855416E+02  0.14280444607E+01  0.19140999899E+02  0.00000000000E+00 0. -1.
        -14    1    6    6    0    0 -0.10256009891E+03  0.18595580395E+03  0.11042569203E+03  0.23935740718E+03  0.00000000000E+00 0.  1.
</event>
<event>
12    1  0.8313893E-002  0.2193398E+03  0.7818608E-02  0.1136407E+00
         21   -1    0    0  503  502  0.00000000000E+00  0.00000000000E+00  0.13021234537E+03  0.13021234537E+03  0.00000000000E+00 0.  1.
         21   -1    0    0  501  503 -0.00000000000E+00 -0.00000000000E+00 -0.38279346184E+03  0.38279346184E+03  0.00000000000E+00 0.  1.
          6    2    1    2  501    0 -0.11596586564E+03  0.13813470481E+02 -0.19629628182E+03  0.28655952191E+03  0.17304691671E+03 0.  0.
         24    2    3    3    0    0 -0.13546462636E+03 -0.45852710532E+01 -0.20585675569E+03  0.25771150603E+03  0.75276336084E+02 0.  0.
         -6    2    1    2    0  502  0.11596586564E+03 -0.13813470481E+02 -0.56284834662E+02  0.22644628530E+03  0.18566379171E+03 0.  0.
        -24    2    5    5    0    0  0.17795652370E+02  0.32844638321E+02 -0.74725255549E+02  0.11609906506E+03  0.80620553097E+02 0.  0.
          5    1    3    3  501    0  0.19498760717E+02  0.18398741534E+02  0.95604738733E+01  0.28848015880E+02  0.47000000000E+01 0. -1.
        -13    1    4    4    0    0 -0.10851803256E+03  0.23978890701E+02 -0.12149311388E+03  0.16465639165E+03  0.00000000000E+00 0.  1.
         14    1    4    4    0    0 -0.26946593796E+02 -0.28564161754E+02 -0.84363641808E+02  0.93055114384E+02  0.00000000000E+00 0. -1.
         -5    1    5    5    0  502  0.98170213272E+02 -0.46658108802E+02  0.18440420887E+02  0.11034722023E+03  0.47000000000E+01 0.  1.
         13    1    6    6    0    0 -0.10815507636E+02 -0.83072145236E+01 -0.63220920455E+02  0.64675109600E+02  0.00000000000E+00 0. -1.
        -14    1    6    6    0    0  0.28611160006E+02  0.41151852845E+02 -0.11504335094E+02  0.51423955462E+02  0.00000000000E+00 0.  1.
</event>
<event>
12    1  0.8313893E-002  0.2108633E+03  0.7818608E-02  0.1141907E+00
         21   -1    0    0  503  502  0.00000000000E+00  0.00000000000E+00  0.11903670604E+03  0.11903670604E+03  0.00000000000E+00 0.  1.
         21   -1    0    0  501  503 -0.00000000000E+00 -0.00000000000E+00 -0.51810430754E+03  0.51810430754E+03  0.00000000000E+00 0.  1.
          6    2    1    2  501    0  0.90032379829E+02  0.69263969000E+02 -0.37470936422E+03  0.42996562131E+03  0.17765134690E+03 0.  0.
         24    2    3    3    0    0  0.11536476640E+03  0.24400214568E+02 -0.18935181757E+03  0.23752343163E+03  0.81601899228E+02 0.  0.
         -6    2    1    2    0  502 -0.90032379829E+02 -0.69263969000E+02 -0.24358237276E+02  0.20717539227E+03  0.17153714647E+03 0.  0.
        -24    2    5    5    0    0 -0.67844123032E+02 -0.42591541006E+01  0.42682710209E+02  0.11107896497E+03  0.76783834784E+02 0.  0.
          5    1    3    3  501    0 -0.25332386569E+02  0.44863754432E+02 -0.18535754665E+03  0.19244218968E+03  0.47000000000E+01 0. -1.
        -13    1    4    4    0    0  0.51371117051E+02  0.22996609765E+02 -0.25844610700E+02  0.61933671214E+02  0.00000000000E+00 0.  1.
         14    1    4    4    0    0  0.63993649347E+02  0.14036048028E+01 -0.16350720687E+03  0.17558976042E+03  0.00000000000E+00 0. -1.
         -5    1    5    5    0  502 -0.22188256797E+02 -0.65004814900E+02 -0.67040947485E+02  0.96096427298E+02  0.47000000000E+01 0.  1.
         11    1    6    6    0    0  0.22379895160E+01  0.40499779235E+01  0.40196774549E+02  0.40462224388E+02  0.00000000000E+00 0. -1.
        -12    1    6    6    0    0 -0.70082112548E+02 -0.83091320241E+01  0.24859356598E+01  0.70616740581E+02  0.00000000000E+00 0.  1.
</event>
<event>
12    1  0.8313893E-002  0.2168798E+03  0.7818608E-02  0.1136866E+00
         21   -1    0    0  503  502  0.00000000000E+00  0.00000000000E+00  0.75620007573E+02  0.75620007573E+02  0.00000000000E+00 0. -1.
         21   -1    0    0  501  503 -0.00000000000E+00 -0.00000000000E+00 -0.92048273063E+03  0.92048273063E+03  0.00000000000E+00 0. -1.
          6    2    1    2  501    0 -0.88259466169E+02  0.90144909967E+02 -0.71266325509E+03  0.74493339107E+03  0.17641146168E+03 0.  0.
         24    2    3    3    0    0 -0.37994579859E+02  0.12473992377E+03 -0.45185959505E+03  0.47704533075E+03  0.79946965321E+02 0.  0.
         -6    2    1    2    0  502  0.88259466169E+02 -0.90144909967E+02 -0.13219946797E+03  0.25116934714E+03  0.17231802996E+03 0.  0.
        -24    2    5    5    0    0  0.12328302513E+03 -0.62071947225E+02 -0.12973339022E+03  0.20597075802E+03  0.80879970961E+02 0.  0.
          5    1    3    3  501    0 -0.50264886310E+02 -0.34595013799E+02 -0.26080366003E+03  0.26788806032E+03  0.47000000000E+01 0. -1.
        -11    1    4    4    0    0  0.24449347404E+02  0.48644096827E+02 -0.16813402474E+03  0.17672880076E+03  0.00000000000E+00 0.  1.
         12    1    4    4    0    0 -0.62443927263E+02  0.76095826939E+02 -0.28372557032E+03  0.30031652998E+03  0.00000000000E+00 0. -1.
         -5    1    5    5    0  502 -0.35023558957E+02 -0.28072962742E+02 -0.24660777478E+01  0.45198589122E+02  0.47000000000E+01 0.  1.
         13    1    6    6    0    0  0.83110379164E+01 -0.25901628277E+02  0.21765045078E+01  0.27289281238E+02  0.00000000000E+00 0. -1.
        -14    1    6    6    0    0  0.11497198721E+03 -0.36170318948E+02 -0.13190989473E+03  0.17868147678E+03  0.00000000000E+00 0.  1.
</event>
<event>
12    1  0.8313893E-002  0.1779542E+03  0.7818608E-02  0.1169851E+00
         21   -1    0    0  501  502  0.00000000000E+00  0.00000000000E+00  0.63129196669E+03  0.63129196669E+03  0.00000000000E+00 0. -1.
         21   -1    0    0  502  503 -0.00000000000E+00 -0.00000000000E+00 -0.57268366178E+02  0.57268366178E+02  0.00000000000E+00 0. -1.
         -6    2    1    2    0  503 -0.13539472304E+02  0.41724185555E+02  0.40895233570E+03  0.44599293334E+03  0.17246291993E+03 0.  0.
        -24    2    3    3    0    0 -0.65347742547E+01  0.44936161864E+02  0.42107018200E+03  0.43088284447E+03  0.79359722593E+02 0.  0.
          6    2    1    2  501    0  0.13539472304E+02 -0.41724185555E+02  0.16507126481E+03  0.24256739952E+03  0.17223877576E+03 0.  0.
         24    2    5    5    0    0 -0.22774273658E+02 -0.70809807964E+02  0.51738938345E+02  0.11996655206E+03  0.78627981195E+02 0.  0.
          5    1    5    5  501    0  0.36313745962E+02  0.29085622408E+02  0.11333232647E+03  0.12260084747E+03  0.47000000000E+01 0. -1.
        -11    1    6    6    0    0  0.14937636975E+02 -0.55217725535E+02  0.54574381372E+02  0.79060061433E+02  0.00000000000E+00 0.  1.
         12    1    6    6    0    0 -0.37711910633E+02 -0.15592082429E+02 -0.28354430267E+01  0.40906490624E+02  0.00000000000E+00 0. -1.
         -5    1    3    3    0  503 -0.70046980497E+01 -0.32119763091E+01 -0.12117846307E+02  0.15110088871E+02  0.47000000000E+01 0.  1.
         11    1    4    4    0    0 -0.39370029347E+02  0.43348204513E+02  0.26882213514E+03  0.27512616448E+03  0.00000000000E+00 0. -1.
        -12    1    4    4    0    0  0.32835255092E+02  0.15879573513E+01  0.15224804687E+03  0.15575667999E+03  0.00000000000E+00 0.  1.
</event>
<event>
12    1  0.8313893E-002  0.2110461E+03  0.7818608E-02  0.1142728E+00
         21   -1    0    0  501  502  0.00000000000E+00  0.00000000000E+00  0.12912018488E+04  0.12912018488E+04  0.00000000000E+00 0. -1.
         21   -1    0    0  502  503 -0.00000000000E+00 -0.00000000000E+00 -0.33483321035E+02  0.33483321035E+02  0.00000000000E+00 0. -1.
         -6    2    1    2    0  503 -0.94045212827E+02 -0.70261879804E+02  0.70118690899E+03  0.72948108011E+03  0.16339623951E+03 0.  0.
        -24    2    3    3    0    0 -0.11883449171E+03 -0.68532430946E+02  0.67569288695E+03  0.69357099098E+03  0.75243016617E+02 0.  0.
          6    2    1    2  501    0  0.94045212827E+02  0.70261879804E+02  0.55653161878E+03  0.59520408974E+03  0.17538310045E+03 0.  0.
         24    2    5    5    0    0  0.39564151976E+02  0.88142507588E+02  0.20824013396E+03  0.24219282753E+03  0.77194485241E+02 0.  0.
          5    1    5    5  501    0  0.54481060851E+02 -0.17880627783E+02  0.34829148482E+03  0.35301126220E+03  0.47000000000E+01 0. -1.
        -11    1    6    6    0    0  0.14066057087E+01  0.11352772061E+02 -0.49045457689E+01  0.12446627747E+02  0.00000000000E+00 0.  1.
         12    1    6    6    0    0  0.38157546267E+02  0.76789735527E+02  0.21314467973E+03  0.22974619979E+03  0.00000000000E+00 0. -1.
         -5    1    3    3    0  503  0.24789278888E+02 -0.17294488586E+01  0.25494022047E+02  0.35910089129E+02  0.47000000000E+01 0.  1.
         11    1    4    4    0    0 -0.43753150883E+02 -0.68613438893E+02  0.35336770124E+03  0.36261670465E+03  0.00000000000E+00 0. -1.
        -12    1    4    4    0    0 -0.75081340832E+02  0.81007947736E-01  0.32232518570E+03  0.33095428633E+03  0.00000000000E+00 0.  1.
</event>
<event>
12    1  0.8313893E-002  0.1881116E+03  0.7818608E-02  0.1160416E+00
         21   -1    0    0  503  502  0.00000000000E+00  0.00000000000E+00  0.23458774984E+03  0.23458774984E+03  0.00000000000E+00 0.  1.
         21   -1    0    0  501  503 -0.00000000000E+00 -0.00000000000E+00 -0.15388603349E+03  0.15388603349E+03  0.00000000000E+00 0.  1.
          6    2    1    2  501    0 -0.75729715486E+02  0.29932367235E+02  0.93939572321E+01  0.18730030813E+03  0.16841087429E+03 0.  0.
         24    2    3    3    0    0  0.12282578155E+02  0.50237030815E+02  0.16269833551E+02  0.96593026893E+02  0.79943007007E+02 0.  0.
         -6    2    1    2    0  502  0.75729715486E+02 -0.29932367235E+02  0.71307759114E+02  0.20117347520E+03  0.16957309397E+03 0.  0.
        -24    2    5    5    0    0  0.99664877122E+02 -0.55072654681E+02  0.86839168148E+02  0.16285584633E+03  0.77555789824E+02 0.  0.
          5    1    3    3  501    0 -0.88012293641E+02 -0.20304663580E+02 -0.68758763190E+01  0.90707281241E+02  0.47000000000E+01 0. -1.
        -11    1    4    4    0    0  0.25234037354E+02  0.41455643089E+02 -0.23451379781E+02  0.53900781059E+02  0.00000000000E+00 0.  1.
         12    1    4    4    0    0 -0.12951459199E+02  0.87813877258E+01  0.39721213332E+02  0.42692245834E+02  0.00000000000E+00 0. -1.
         -5    1    5    5    0  502 -0.23935161637E+02  0.25140287446E+02 -0.15531409034E+02  0.38317628867E+02  0.47000000000E+01 0.  1.
         13    1    6    6    0    0  0.87182937163E+02 -0.65511413025E+01  0.50523852874E+02  0.10097743161E+03  0.00000000000E+00 0. -1.
        -14    1    6    6    0    0  0.12481939959E+02 -0.48521513379E+02  0.36315315273E+02  0.61878414727E+02  0.00000000000E+00 0.  1.
</event>
<event>
12    1  0.8313893E-002  0.2272995E+03  0.7818608E-02  0.1128755E+00
         21   -1    0    0  503  502  0.00000000000E+00  0.00000000000E+00  0.59637517044E+03  0.59637517044E+03  0.00000000000E+00 0. -1.
         21   -1    0    0  501  503 -0.00000000000E+00 -0.00000000000E+00 -0.11871122925E+03  0.11871122925E+03  0.00000000000E+00 0. -1.
          6    2    1    2  501    0  0.18329429842E+02 -0.14696779054E+03  0.52168610819E+02  0.23320939168E+03  0.17242261150E+03 0.  0.
         24    2    3    3    0    0  0.70678460068E+02 -0.83868630673E+02  0.67033323178E+02  0.14975296823E+03  0.76831589520E+02 0.  0.
         -6    2    1    2    0  502 -0.18329429842E+02  0.14696779054E+03  0.42549533037E+03  0.48187700802E+03  0.17094933528E+03 0.  0.
        -24    2    5    5    0    0  0.52085373901E+02  0.96293495793E+02  0.21577030485E+03  0.25486862697E+03  0.80099120181E+02 0.  0.
          5    1    3    3  501    0 -0.52349030227E+02 -0.63099159864E+02 -0.14864712359E+02  0.83456423448E+02  0.47000000000E+01 0. -1.
        -11    1    4    4    0    0  0.33130349657E+02 -0.35629589458E+01  0.49049068433E+02  0.59296929592E+02  0.00000000000E+00 0.  1.
         12    1    4    4    0    0  0.37548110411E+02 -0.80305671727E+02  0.17984254745E+02  0.90456038636E+02  0.00000000000E+00 0. -1.
         -5    1    5    5    0  502 -0.70414803743E+02  0.50674294745E+02  0.20972502552E+03  0.22700838104E+03  0.47000000000E+01 0.  1.
         13    1    6    6    0    0  0.50602600537E+01  0.86230956154E+02  0.15417580131E+03  0.17672453632E+03  0.00000000000E+00 0. -1.
        -14    1    6    6    0    0  0.47025113848E+02  0.10062539638E+02  0.61594503545E+02  0.78144090649E+02  0.00000000000E+00 0.  1.
</event>
<event>
12    1  0.8313893E-002  0.1963120E+03  0.7818608E-02  0.1153079E+00
         21   -1    0    0  501  502  0.00000000000E+00  0.00000000000E+00  0.76659334084E+03  0.76659334084E+03  0.00000000000E+00 0.  1.
         21   -1    0    0  502  503 -0.00000000000E+00 -0.00000000000E+00 -0.99546104203E+02  0.99546104203E+02  0.00000000000E+00 0.  1.
         -6    2    1    2    0  503 -0.17007964279E+02 -0.92926003806E+02  0.28519348298E+02  0.19837275924E+03  0.17208685409E+03 0.  0.
        -24    2    3    3    0    0 -0.52786361976E+02 -0.19664320637E+02  0.56955943704E+02  0.11189676303E+03  0.78126951410E+02 0.  0.
          6    2    1    2  501    0  0.17007964279E+02  0.92926003806E+02  0.63852788834E+03  0.66776668580E+03  0.17108468502E+03 0.  0.
         24    2    5    5    0    0  0.49270383870E+02  0.31764476415E+02  0.53028510670E+03  0.53923581042E+03  0.78335254880E+02 0.  0.
          5    1    5    5  501    0 -0.32262419590E+02  0.61161527391E+02  0.10824278164E+03  0.12853087538E+03  0.47000000000E+01 0. -1.
        -13    1    6    6    0    0  0.55200430320E+02  0.34514168523E+02  0.23424358345E+03  0.24312213335E+03  0.00000000000E+00 0.  1.
         14    1    6    6    0    0 -0.59300464508E+01 -0.27496921078E+01  0.29604152325E+03  0.29611367707E+03  0.00000000000E+00 0. -1.
         -5    1    3    3    0  503  0.35778397696E+02 -0.73261683170E+02 -0.28436595407E+02  0.86475996212E+02  0.47000000000E+01 0.  1.
         11    1    4    4    0    0  0.15981265481E+02 -0.10455326435E+02  0.33675289635E+02  0.38713561309E+02  0.00000000000E+00 0. -1.
        -12    1    4    4    0    0 -0.68767627456E+02 -0.92089942011E+01  0.23280654069E+02  0.73183201721E+02  0.00000000000E+00 0.  1.
</event>
<event>
12    1  0.8313893E-002  0.1881925E+03  0.7818608E-02  0.1160858E+00
         21   -1    0    0  503  502  0.00000000000E+00  0.00000000000E+00  0.37854136300E+02  0.37854136300E+02  0.00000000000E+00 0. -1.
         21   -1    0    0  501  503 -0.00000000000E+00 -0.00000000000E+00 -0.95388968103E+03  0.95388968103E+03  0.00000000000E+00 0. -1.
          6    2    1    2  501    0  0.40048705714E+02  0.52724323466E+02 -0.36756193411E+03  0.41293846728E+03  0.17616086183E+03 0.  0.
         24    2    3    3    0    0  0.77797854465E+02  0.39251302827E+02 -0.34882677295E+03  0.36844558268E+03  0.80491359368E+02 0.  0.
         -6    2    1    2    0  502 -0.40048705714E+02 -0.52724323466E+02 -0.54847361062E+03  0.57880535005E+03  0.17265161044E+03 0.  0.
        -24    2    5    5    0    0 -0.27363252196E+02  0.36142030006E+02 -0.32449214648E+03  0.33745925875E+03  0.80799778967E+02 0.  0.
          5    1    3    3  501    0 -0.37749148751E+02  0.13473020639E+02 -0.18735161154E+02  0.44492884600E+02  0.47000000000E+01 0. -1.
        -13    1    4    4    0    0  0.61325308614E+02 -0.80486110694E+01 -0.13005305950E+03  0.14401170751E+03  0.00000000000E+00 0.  1.
         14    1    4    4    0    0  0.16472545851E+02  0.47299913897E+02 -0.21877371346E+03  0.22443387516E+03  0.00000000000E+00 0. -1.
         -5    1    5    5    0  502 -0.12685453518E+02 -0.88866353473E+02 -0.22398146414E+03  0.24134609131E+03  0.47000000000E+01 0.  1.
         11    1    6    6    0    0 -0.15746037368E+02  0.46755727354E+02 -0.31550288210E+03  0.31933697617E+03  0.00000000000E+00 0. -1.
        -12    1    6    6    0    0 -0.11617214828E+02 -0.10613697347E+02 -0.89892643787E+01  0.18122282577E+02  0.00000000000E+00 0.  1.
</event>
<event>
12    1  0.8313893E-002  0.1790669E+03  0.7818608E-02  0.1168718E+00
         21   -1    0    0  501  502  0.00000000000E+00  0.00000000000E+00  0.34182831133E+02  0.34182831133E+02  0.00000000000E+00 0.  1.
         21   -1    0    0  502  503 -0.00000000000E+00 -0.00000000000E+00 -0.12977869784E+04  0.12977869784E+04  0.00000000000E+00 0.  1.
         -6    2    1    2    0  503 -0.21767054403E+02 -0.45998579946E+02 -0.98248712690E+03  0.99866552226E+03  0.17164555572E+03 0.  0.
        -24    2    3    3    0    0 -0.69491404934E+02 -0.26269110728E+02 -0.43426311007E+03  0.44799454225E+03  0.81212927418E+02 0.  0.
          6    2    1    2  501    0  0.21767054403E+02  0.45998579946E+02 -0.28111702038E+03  0.33330428729E+03  0.17168370559E+03 0.  0.
         24    2    5    5    0    0 -0.17794687659E+02  0.87310244283E+02 -0.21167439410E+03  0.24321459093E+03  0.80047226431E+02 0.  0.
          5    1    5    5  501    0  0.39561742063E+02 -0.41311664337E+02 -0.69442626278E+02  0.90089696357E+02  0.47000000000E+01 0. -1.
        -11    1    6    6    0    0 -0.99128157753E+01  0.59716545226E+02 -0.48585410103E+02  0.77620047444E+02  0.00000000000E+00 0.  1.
         12    1    6    6    0    0 -0.78818718838E+01  0.27593699057E+02 -0.16308898400E+03  0.16559454349E+03  0.00000000000E+00 0. -1.
         -5    1    3    3    0  503  0.47724350530E+02 -0.19729469218E+02 -0.54822401683E+03  0.55067098001E+03  0.47000000000E+01 0.  1.
         11    1    4    4    0    0 -0.31023249775E+02 -0.54074783252E+02 -0.26163649299E+03  0.26896129587E+03  0.00000000000E+00 0. -1.
        -12    1    4    4    0    0 -0.38468155159E+02  0.27805672524E+02 -0.17262661708E+03  0.17903324638E+03  0.00000000000E+00 0.  1.
</event>
<event>
12    1  0.8313893E-002  0.2613801E+03  0.7818608E-02  0.1106329E+00
         21   -1    0    0  503  502  0.00000000000E+00  0.00000000000E+00  0.87314736481E+03  0.87314736481E+03  0.00000000000E+00 0.  1.
         21   -1    0    0  501  503 -0.00000000000E+00 -0.00000000000E+00 -0.19284880363E+03  0.19284880363E+03  0.00000000000E+00 0.  1.
          6    2    1    2  501    0 -0.18137220604E+03 -0.74217201133E+02 -0.70796020923E+02  0.27072098062E+03  0.17284010733E+03 0.  0.
         24    2    3    3    0    0 -0.71965349754E+02 -0.79308078516E+02 -0.87987816320E+02  0.15975510720E+03  0.79442152360E+02 0.  0.
         -6    2    1    2    0  502  0.18137220604E+03  0.74217201133E+02  0.75109458211E+03  0.79527518782E+03  0.17296092917E+03 0.  0.
        -24    2    5    5    0    0  0.19945674009E+03  0.38975516599E+02  0.67301942074E+03  0.70760051917E+03  0.80257535305E+02 0.  0.
          5    1    3    3  501    0 -0.10940685629E+03  0.50908773830E+01  0.17191795397E+02  0.11096587342E+03  0.47000000000E+01 0. -1.
        -13    1    4    4    0    0 -0.63332884002E+02 -0.77769760321E+02 -0.35275023168E+02  0.10631799977E+03  0.00000000000E+00 0.  1.
         14    1    4    4    0    0 -0.86324657520E+01 -0.15383181951E+01 -0.52712793153E+02  0.53437107423E+02  0.00000000000E+00 0. -1.
         -5    1    5    5    0  502 -0.18084534044E+02  0.35241684535E+02  0.78075161366E+02  0.87674668649E+02  0.47000000000E+01 0.  1.
         13    1    6    6    0    0  0.55592647865E+02  0.31392940305E+02  0.11772295550E+03  0.13392069836E+03  0.00000000000E+00 0. -1.
        -14    1    6    6    0    0  0.14386409222E+03  0.75825762939E+01  0.55529646524E+03  0.57367982081E+03  0.00000000000E+00 0.  1.
</event>
<event>
12    1  0.8313893E-002  0.2144244E+03  0.7818608E-02  0.1138110E+00
         21   -1    0    0  501  502  0.00000000000E+00  0.00000000000E+00  0.29542609594E+04  0.29542609594E+04  0.00000000000E+00 0. -1.
         21   -1    0    0  502  503 -0.00000000000E+00 -0.00000000000E+00 -0.36343598937E+02  0.36343598937E+02  0.00000000000E+00 0.  1.
         -6    2    1    2    0  503 -0.19147040425E+02 -0.12598027412E+03  0.32826663739E+03  0.39209177193E+03  0.17245096048E+03 0.  0.
        -24    2    3    3    0    0  0.54456136048E+02 -0.87293185537E+02  0.20659053855E+03  0.24464252155E+03  0.81146421592E+02 0.  0.
          6    2    1    2  501    0  0.19147040425E+02  0.12598027412E+03  0.25896507231E+04  0.25985127864E+04  0.17245345736E+03 0.  0.
         24    2    5    5    0    0  0.63508254117E+01  0.16836273668E+02  0.16651854362E+04  0.16675271192E+04  0.86489092638E+02 0.  0.
          5    1    5    5  501    0  0.12796215014E+02  0.10914400046E+03  0.92446528686E+03  0.93098566722E+03  0.47000000000E+01 0. -1.
        -13    1    6    6    0    0 -0.26137614126E+00 -0.28202236240E+02  0.24594172923E+03  0.24755356718E+03  0.00000000000E+00 0.  1.
         14    1    6    6    0    0  0.66122015530E+01  0.45038509908E+02  0.14192437070E+04  0.14199735520E+04  0.00000000000E+00 0. -1.
         -5    1    3    3    0  503 -0.73603176474E+02 -0.38687088587E+02  0.12167609884E+03  0.14744925039E+03  0.47000000000E+01 0.  1.
         11    1    4    4    0    0  0.27175728050E+02 -0.10571758130E+01  0.11351662484E+02  0.29470291089E+02  0.00000000000E+00 0. -1.
        -12    1    4    4    0    0  0.27280407998E+02 -0.86236009724E+02  0.19523887606E+03  0.21517223046E+03  0.00000000000E+00 0.  1.
</event>
<event>
12    1  0.8313893E-002  0.2002608E+03  0.7818608E-02  0.1150179E+00
         21   -1    0    0  503  502  0.00000000000E+00  0.00000000000E+00  0.19500406928E+04  0.19500406928E+04  0.00000000000E+00 0. -1.
         21   -1    0    0  501  503 -0.00000000000E+00 -0.00000000000E+00 -0.22163990901E+02  0.22163990901E+02  0.00000000000E+00 0. -1.
          6    2    1    2  501    0 -0.99815941990E+02 -0.49384736406E+02  0.66714764585E+03  0.69566947983E+03  0.16268979479E+03 0.  0.
         24    2    3    3    0    0 -0.76334540577E+02 -0.60906971110E+02  0.65366117010E+03  0.66586825279E+03  0.81061603454E+02 0.  0.
         -6    2    1    2    0  502  0.99815941990E+02  0.49384736406E+02  0.12607290560E+04  0.12765352038E+04  0.16644007783E+03 0.  0.
        -24    2    5    5    0    0  0.61810908362E+02  0.93907639934E+02  0.98643497700E+03  0.99602494859E+03  0.79827947093E+02 0.  0.
          5    1    3    3  501    0 -0.23481401412E+02  0.11522234704E+02  0.13486475752E+02  0.29801227040E+02  0.47000000000E+01 0. -1.
        -13    1    4    4    0    0 -0.20830409452E+02 -0.18715263602E+02  0.44474309420E+03  0.44562381769E+03  0.00000000000E+00 0.  1.
         14    1    4    4    0    0 -0.55504131125E+02 -0.42191707509E+02  0.20891807590E+03  0.22024443510E+03  0.00000000000E+00 0. -1.
         -5    1    5    5    0  502  0.38005033627E+02 -0.44522903528E+02  0.27429407902E+03  0.28051025526E+03  0.47000000000E+01 0.  1.
         11    1    6    6    0    0  0.25665658688E+02  0.35043085813E+02  0.70123341168E+03  0.70257742744E+03  0.00000000000E+00 0. -1.
        -12    1    6    6    0    0  0.36145249675E+02  0.58864554121E+02  0.28520156532E+03  0.29344752115E+03  0.00000000000E+00 0.  1.
</event>
<event>
12    1  0.8313893E-002  0.1902094E+03  0.7818608E-02  0.1158409E+00
         21   -1    0    0  501  502  0.00000000000E+00  0.00000000000E+00  0.10010195375E+03  0.10010195375E+03  0.00000000000E+00 0.  1.
         21   -1    0    0  502  503 -0.00000000000E+00 -0.00000000000E+00 -0.17136114929E+04  0.17136114929E+04  0.00000000000E+00 0.  1.
         -6    2    1    2    0  503 -0.81028101125E+02 -0.85378666687E+01 -0.16123911951E+04  0.16235007649E+04  0.17120431975E+03 0.  0.
        -24    2    3    3    0    0 -0.65235612501E+02  0.59212890748E+02 -0.96845498224E+03  0.97580059961E+03  0.80745934862E+02 0.  0.
          6    2    1    2  501    0  0.81028101125E+02  0.85378666687E+01 -0.11183440087E+01  0.19021268175E+03  0.17187543532E+03 0.  0.
         24    2    5    5    0    0 -0.10883089126E+02 -0.34722062472E+02  0.11719323796E+02  0.87713978940E+02  0.78945147412E+02 0.  0.
          5    1    5    5  501    0  0.91911190251E+02  0.43259929141E+02 -0.12837667804E+02  0.10249870281E+03  0.47000000000E+01 0. -1.
        -13    1    6    6    0    0 -0.66656044893E+01 -0.39078937542E+02  0.41459017875E+02  0.57362390168E+02  0.00000000000E+00 0.  1.
         14    1    6    6    0    0 -0.42174846364E+01  0.43568750699E+01 -0.29739694079E+02  0.30351588772E+02  0.00000000000E+00 0. -1.
         -5    1    3    3    0  503 -0.15792488624E+02 -0.67750757417E+02 -0.64393621286E+03  0.64770016525E+03  0.47000000000E+01 0.  1.
         11    1    4    4    0    0 -0.22581896868E+01  0.12723624842E+02 -0.18167410331E+02  0.22294502639E+02  0.00000000000E+00 0. -1.
        -12    1    4    4    0    0 -0.62977422814E+02  0.46489265906E+02 -0.95028757191E+03  0.95350609697E+03  0.00000000000E+00 0.  1.
</event>
<event>
12    1  0.8313893E-002  0.1738101E+03  0.7818608E-02  0.1174009E+00
         21   -1    0    0  503  502  0.00000000000E+00  0.00000000000E+00  0.76220524924E+03  0.76220524924E+03  0.00000000000E+00 0. -1.
         21   -1    0    0  501  503 -0.00000000000E+00 -0.00000000000E+00 -0.38733433100E+03  0.38733433100E+03  0.00000000000E+00 0. -1.
          6    2    1    2  501    0  0.14100199401E+02  0.98066915225E+01 -0.35720491336E+03  0.39711352998E+03  0.17265230594E+03 0.  0.
         24    2    3    3    0    0  0.48607274908E+02  0.54817652308E+01 -0.34911250174E+03  0.36109936092E+03  0.78233577580E+02 0.  0.
         -6    2    1    2    0  502 -0.14100199401E+02 -0.98066915225E+01  0.73207583160E+03  0.75242605026E+03  0.17295939140E+03 0.  0.
        -24    2    5    5    0    0  0.31185118814E+02 -0.79560995151E+01  0.66928671430E+03  0.67484545998E+03  0.80223922650E+02 0.  0.
          5    1    3    3  501    0 -0.34507075508E+02  0.43249262916E+01 -0.80924116175E+01  0.36014169063E+02  0.47000000000E+01 0. -1.
        -11    1    4    4    0    0  0.77055176129E+01  0.46285004240E+01  0.59365391356E+00  0.90083540576E+01  0.00000000000E+00 0.  1.
         12    1    4    4    0    0  0.40901757295E+02  0.85326480683E+00 -0.34970615566E+03  0.35209100686E+03  0.00000000000E+00 0. -1.
         -5    1    5    5    0  502 -0.45285318214E+02 -0.18505920074E+01  0.62789117306E+02  0.77580590283E+02  0.47000000000E+01 0.  1.
         13    1    6    6    0    0 -0.26402885139E+02  0.19725062841E+01  0.27171774462E+03  0.27300464440E+03  0.00000000000E+00 0. -1.
        -14    1    6    6    0    0  0.57588003953E+02 -0.99286057992E+01  0.39756896968E+03  0.40184081558E+03  0.00000000000E+00 0.  1.
</event>
<event>
12    1  0.8313893E-002  0.2009631E+03  0.7818608E-02  0.1148982E+00
         21   -1    0    0  503  502  0.00000000000E+00  0.00000000000E+00  0.86220606180E+02  0.86220606180E+02  0.00000000000E+00 0.  1.
         21   -1    0    0  501  503 -0.00000000000E+00 -0.00000000000E+00 -0.81387069010E+03  0.81387069010E+03  0.00000000000E+00 0.  1.
          6    2    1    2  501    0  0.49233191492E+02  0.91603209532E+02 -0.65741987072E+03  0.68744966121E+03  0.17196248180E+03 0.  0.
         24    2    3    3    0    0  0.73214002155E+02  0.10124657665E+03 -0.36779411199E+03  0.39663486804E+03  0.80221881910E+02 0.  0.
         -6    2    1    2    0  502 -0.49233191492E+02 -0.91603209532E+02 -0.70230213201E+02  0.21264163507E+03  0.17166574200E+03 0.  0.
        -24    2    5    5    0    0 -0.84908477116E+02 -0.10575390808E+03 -0.33355767079E+02  0.15921146521E+03  0.76435233344E+02 0.  0.
          5    1    3    3  501    0 -0.23980810663E+02 -0.96433671142E+01 -0.28962575873E+03  0.29081479318E+03  0.47000000000E+01 0. -1.
        -13    1    4    4    0    0  0.44450722626E+02  0.20162377627E+02 -0.22239743356E+03  0.22769059415E+03  0.00000000000E+00 0.  1.
         14    1    4    4    0    0  0.28763279529E+02  0.81084199019E+02 -0.14539667843E+03  0.16894427389E+03  0.00000000000E+00 0. -1.
         -5    1    5    5    0  502  0.35675285624E+02  0.14150698551E+02 -0.36874446122E+02  0.53430169855E+02  0.47000000000E+01 0.  1.
         11    1    6    6    0    0 -0.19860536220E+02 -0.81789433530E+01  0.20926991326E+02  0.29987913887E+02  0.00000000000E+00 0. -1.
        -12    1    6    6    0    0 -0.65047940896E+02 -0.97574964730E+02 -0.54282758405E+02  0.12922355132E+03  0.00000000000E+00 0.  1.
</event>
<event>
12    1  0.8313893E-002  0.2240486E+03  0.7818608E-02  0.1131596E+00
         21   -1    0    0  501  502  0.00000000000E+00  0.00000000000E+00  0.40579322017E+03  0.40579322017E+03  0.00000000000E+00 0. -1.
         21   -1    0    0  502  503 -0.00000000000E+00 -0.00000000000E+00 -0.12525150701E+03  0.12525150701E+03  0.00000000000E+00 0.  1.
         -6    2    1    2    0  503 -0.12819904572E+03  0.51651576724E+02  0.96224277372E+02  0.24383782189E+03  0.17633743541E+03 0.  0.
        -24    2    3    3    0    0 -0.15556992768E+03  0.72478688312E+02  0.83998500207E+02  0.20703437935E+03  0.79701465086E+02 0.  0.
          6    2    1    2  501    0  0.12819904572E+03 -0.51651576724E+02  0.18431743579E+03  0.28720690529E+03  0.17149929622E+03 0.  0.
         24    2    5    5    0    0  0.14723122324E+03 -0.28461030546E+02  0.19160675068E+03  0.25597792316E+03  0.79526642579E+02 0.  0.
          5    1    5    5  501    0 -0.19032177517E+02 -0.23190546179E+02 -0.72893148947E+01  0.31228982128E+02  0.47000000000E+01 0. -1.
        -13    1    6    6    0    0  0.13443102804E+02  0.17236761744E+02  0.55845237518E+02  0.59970938978E+02  0.00000000000E+00 0.  1.
         14    1    6    6    0    0  0.13378812044E+03 -0.45697792290E+02  0.13576151316E+03  0.19600698418E+03  0.00000000000E+00 0. -1.
         -5    1    3    3    0  503  0.27370881954E+02 -0.20827111587E+02  0.12225777165E+02  0.36803442547E+02  0.47000000000E+01 0.  1.
         13    1    4    4    0    0 -0.56114577050E+02  0.22696388471E+02  0.73653712957E+02  0.95335414404E+02  0.00000000000E+00 0. -1.
        -14    1    4    4    0    0 -0.99455350628E+02  0.49782299840E+02  0.10344787250E+02  0.11169896494E+03  0.00000000000E+00 0.  1.
</event>
<event>
12    1  0.8313893E-002  0.1858035E+03  0.7818608E-02  0.1164804E+00
         21   -1    0    0  501  502  0.00000000000E+00  0.00000000000E+00  0.25722594145E+03  0.25722594145E+03  0.00000000000E+00 0.  1.
         21   -1    0    0  502  503 -0.00000000000E+00 -0.00000000000E+00 -0.13984842608E+03  0.13984842608E+03  0.00000000000E+00 0.  1.
         -6    2    1    2    0  503  0.12020738175E+02 -0.60346978789E+02  0.11784102108E+03  0.21127024070E+03  0.16420216917E+03 0.  0.
        -24    2    3    3    0    0 -0.56211161662E+02 -0.34476466714E+02  0.54713715167E+02  0.11466784786E+03  0.76202383509E+02 0.  0.
          6    2    1    2  501    0 -0.12020738175E+02  0.60346978789E+02 -0.46350570853E+00  0.18580412684E+03  0.17531886013E+03 0.  0.
         24    2    5    5    0    0  0.28597406437E+02  0.32042793739E+02 -0.59840221317E+02  0.10835320741E+03  0.79467057223E+02 0.  0.
          5    1    5    5  501    0 -0.40618144611E+02  0.28304185050E+02  0.59376715609E+02  0.77450919423E+02  0.47000000000E+01 0. -1.
        -11    1    6    6    0    0  0.42339759734E+02 -0.12151111587E+02 -0.29073012509E+02  0.52778260899E+02  0.00000000000E+00 0.  1.
         12    1    6    6    0    0 -0.13742353297E+02  0.44193905326E+02 -0.30767208809E+02  0.55574946514E+02  0.00000000000E+00 0. -1.
         -5    1    3    3    0  503  0.68231899837E+02 -0.25870512075E+02  0.63127305913E+02  0.96602392839E+02  0.47000000000E+01 0.  1.
         13    1    4    4    0    0 -0.10110086392E+02  0.70252393685E+01 -0.16268223450E+02  0.20401542326E+02  0.00000000000E+00 0. -1.
        -14    1    4    4    0    0 -0.46101075270E+02 -0.41501706082E+02  0.70981938617E+02  0.94266305532E+02  0.00000000000E+00 0.  1.
</event>
<event>
12    1  0.8313893E-002  0.2100653E+03  0.7818608E-02  0.1142227E+00
         21   -1    0    0  503  502  0.00000000000E+00  0.00000000000E+00  0.13097570492E+04  0.13097570492E+04  0.00000000000E+00 0. -1.
         21   -1    0    0  501  503 -0.00000000000E+00 -0.00000000000E+00 -0.35044593139E+02  0.35044593139E+02  0.00000000000E+00 0. -1.
          6    2    1    2  501    0 -0.11801222352E+03  0.13001381818E+02  0.78971771187E+03  0.81626846537E+03  0.16895035450E+03 0.  0.
         24    2    3    3    0    0 -0.90796456165E+02 -0.50816622755E+02  0.41706839377E+03  0.43718662726E+03  0.79748206102E+02 0.  0.
         -6    2    1    2    0  502  0.11801222352E+03 -0.13001381818E+02  0.48499474415E+03  0.52853317693E+03  0.17329597928E+03 0.  0.
        -24    2    5    5    0    0  0.66845332380E+02  0.65253651285E+02  0.30285966303E+03  0.32374748718E+03  0.66046366234E+02 0.  0.
          5    1    3    3  501    0 -0.27215767352E+02  0.63818004573E+02  0.37264931810E+03  0.37908183810E+03  0.47000000000E+01 0. -1.
        -13    1    4    4    0    0  0.37888837905E+01 -0.31096319068E+02  0.14847286802E+03  0.15174165294E+03  0.00000000000E+00 0.  1.
         14    1    4    4    0    0 -0.94585339955E+02 -0.19720303686E+02  0.26859552575E+03  0.28544497432E+03  0.00000000000E+00 0. -1.
         -5    1    5    5    0  502  0.51166891136E+02 -0.78255033104E+02  0.18213508112E+03  0.20478568976E+03  0.47000000000E+01 0.  1.
         13    1    6    6    0    0 -0.17079120461E+01  0.41843810459E+02  0.11705744249E+03  0.12432323307E+03  0.00000000000E+00 0. -1.
        -14    1    6    6    0    0  0.68553244426E+02  0.23409840826E+02  0.18580222054E+03  0.19942425411E+03  0.00000000000E+00 0.  1.
</event>
<event>
12    1  0.8313893E-002  0.2133128E+03  0.7818608E-02  0.1139011E+00
         21   -1    0    0  503  502  0.00000000000E+00  0.00000000000E+00  0.32556109950E+02  0.32556109950E+02  0.00000000000E+00 0. -1.
         21   -1    0    0  501  503 -0.00000000000E+00 -0.00000000000E+00 -0.14093510064E+04  0.14093510064E+04  0.00000000000E+00 0.  1.
          6    2    1    2  501    0  0.54809425423E+02  0.11369898553E+03 -0.61856539542E+03  0.65424327930E+03  0.17169620752E+03 0.  0.
         24    2    3    3    0    0 -0.36618520224E+02  0.62817648991E+02 -0.34803894332E+03  0.36414910332E+03  0.78654245488E+02 0.  0.
         -6    2    1    2    0  502 -0.54809425423E+02 -0.11369898553E+03 -0.75822950100E+03  0.78766383701E+03  0.17196165715E+03 0.  0.
        -24    2    5    5    0    0 -0.24129529664E+02 -0.10489554585E+03 -0.37811132814E+03  0.40617901177E+03  0.10211710627E+03 0.  0.
          5    1    3    3  501    0  0.91427945648E+02  0.50881336541E+02 -0.27052645210E+03  0.29009417598E+03  0.47000000000E+01 0. -1.
        -11    1    4    4    0    0 -0.10521883876E+02  0.72900195396E+02 -0.29644319565E+03  0.30545657102E+03  0.00000000000E+00 0.  1.
         12    1    4    4    0    0 -0.26096636348E+02 -0.10082546405E+02 -0.51595747666E+02  0.58692532301E+02  0.00000000000E+00 0. -1.
         -5    1    5    5    0  502 -0.30679895759E+02 -0.88034396823E+01 -0.38011817286E+03  0.38148482525E+03  0.47000000000E+01 0.  1.
         13    1    6    6    0    0 -0.62658759551E+02 -0.68379434148E+02 -0.27477270365E+03  0.29000328590E+03  0.00000000000E+00 0. -1.
        -14    1    6    6    0    0  0.38529229887E+02 -0.36516111702E+02 -0.10333862449E+03  0.11617572587E+03  0.00000000000E+00 0.  1.
</event>
<event>
12    1  0.8313893E-002  0.2039336E+03  0.7818608E-02  0.1146651E+00
         21   -1    0    0  503  502  0.00000000000E+00  0.00000000000E+00  0.85183010607E+02  0.85183010607E+02  0.00000000000E+00 0. -1.
         21   -1    0    0  501  503 -0.00000000000E+00 -0.00000000000E+00 -0.49678556160E+03  0.49678556160E+03  0.00000000000E+00 0. -1.
          6    2    1    2  501    0 -0.92542142266E+02 -0.59195359123E+02 -0.16254031267E+03  0.26006653870E+03  0.17072525493E+03 0.  0.
         24    2    3    3    0    0 -0.71465991934E+02  0.15692095894E+02 -0.14301927569E+03  0.17972043788E+03  0.80568558988E+02 0.  0.
         -6    2    1    2    0  502  0.92542142266E+02  0.59195359123E+02 -0.24906223833E+03  0.32190203351E+03  0.17181612841E+03 0.  0.
        -24    2    5    5    0    0  0.63986500926E+02  0.72597674129E+02 -0.76784799721E+02  0.14669743154E+03  0.79117231762E+02 0.  0.
          5    1    3    3  501    0 -0.21076150332E+02 -0.74887455018E+02 -0.19521036979E+02  0.80346100817E+02  0.47000000000E+01 0. -1.
        -11    1    4    4    0    0 -0.68078693367E+01  0.39378506440E+02 -0.53788647371E+02  0.67009196685E+02  0.00000000000E+00 0.  1.
         12    1    4    4    0    0 -0.64658122597E+02 -0.23686410545E+02 -0.89230628318E+02  0.11271124120E+03  0.00000000000E+00 0. -1.
         -5    1    5    5    0  502  0.28555641339E+02 -0.13402315005E+02 -0.17227743861E+03  0.17520460197E+03  0.47000000000E+01 0.  1.
         13    1    6    6    0    0  0.31152875557E+02 -0.22581956474E+01 -0.53082433669E+02  0.61590144238E+02  0.00000000000E+00 0. -1.
        -14    1    6    6    0    0  0.32833625369E+02  0.74855869776E+02 -0.23702366051E+02  0.85107287298E+02  0.00000000000E+00 0.  1.
</event>
<event>
12    1  0.8313893E-002  0.3168735E+03  0.7818608E-02  0.1077111E+00
         21   -1    0    0  501  502  0.00000000000E+00  0.00000000000E+00  0.22510078336E+03  0.22510078336E+03  0.00000000000E+00 0.  1.
         21   -1    0    0  502  503 -0.00000000000E+00 -0.00000000000E+00 -0.51736034594E+03  0.51736034594E+03  0.00000000000E+00 0. -1.
         -6    2    1    2    0  503  0.12863368480E+03  0.23285686212E+03 -0.28412829414E+03  0.42560276703E+03  0.17216237880E+03 0.  0.
        -24    2    3    3    0    0  0.99102120613E+02  0.73467202147E+02 -0.17974719205E+03  0.23274353997E+03  0.81497498409E+02 0.  0.
          6    2    1    2  501    0 -0.12863368480E+03 -0.23285686212E+03 -0.81312684410E+01  0.31685836226E+03  0.17194231912E+03 0.  0.
         24    2    5    5    0    0 -0.89713577417E+02 -0.16664934724E+03  0.60797852466E+02  0.21355529602E+03  0.78031754340E+02 0.  0.
          5    1    5    5  501    0 -0.38920107380E+02 -0.66207514884E+02 -0.68929120907E+02  0.10330306624E+03  0.47000000000E+01 0. -1.
        -11    1    6    6    0    0 -0.25913931160E+02 -0.45252050166E+02  0.55727260650E+02  0.76320426178E+02  0.00000000000E+00 0.  1.
         12    1    6    6    0    0 -0.63799646256E+02 -0.12139729707E+03  0.50705918156E+01  0.13723486984E+03  0.00000000000E+00 0. -1.
         -5    1    3    3    0  503  0.29531564183E+02  0.15938965998E+03 -0.10438110209E+03  0.19285922706E+03  0.47000000000E+01 0.  1.
         13    1    4    4    0    0 -0.11717811597E+02 -0.25830274432E+01 -0.25312791882E+02  0.28012793011E+02  0.00000000000E+00 0. -1.
        -14    1    4    4    0    0  0.11081993221E+03  0.76050229590E+02 -0.15443440017E+03  0.20473074696E+03  0.00000000000E+00 0.  1.
</event>
<event>
12    1  0.8313893E-002  0.1939236E+03  0.7818608E-02  0.1155292E+00
         21   -1    0    0  503  502  0.00000000000E+00  0.00000000000E+00  0.44223873759E+02  0.44223873759E+02  0.00000000000E+00 0.  1.
         21   -1    0    0  501  503 -0.00000000000E+00 -0.00000000000E+00 -0.11899337168E+04  0.11899337168E+04  0.00000000000E+00 0.  1.
          6    2    1    2  501    0  0.17203928391E+02  0.85313714808E+02 -0.23858367834E+03  0.30653468567E+03  0.17165936289E+03 0.  0.
         24    2    3    3    0    0  0.77999040043E+02  0.51766662897E+02 -0.14099950890E+03  0.18667555829E+03  0.78760808258E+02 0.  0.
         -6    2    1    2    0  502 -0.17203928391E+02 -0.85313714808E+02 -0.90712616469E+03  0.92762290487E+03  0.17329734530E+03 0.  0.
        -24    2    5    5    0    0  0.12429321764E+02 -0.72708545836E+02 -0.29134474701E+03  0.31098211465E+03  0.79919292707E+02 0.  0.
          5    1    3    3  501    0 -0.60795111653E+02  0.33547051911E+02 -0.97584169439E+02  0.11985912739E+03  0.47000000000E+01 0. -1.
        -13    1    4    4    0    0 -0.11707265205E+02  0.23725967820E+02 -0.45834987097E+02  0.52922846198E+02  0.00000000000E+00 0.  1.
         14    1    4    4    0    0  0.89706305248E+02  0.28040695077E+02 -0.95164521801E+02  0.13375271209E+03  0.00000000000E+00 0. -1.
         -5    1    5    5    0  502 -0.29633250155E+02 -0.12605168972E+02 -0.61578141768E+03  0.61664079022E+03  0.47000000000E+01 0.  1.
         13    1    6    6    0    0 -0.25062638420E+02 -0.63631124161E+02 -0.21198775336E+03  0.22274618601E+03  0.00000000000E+00 0. -1.
        -14    1    6    6    0    0  0.37491960184E+02 -0.90774216747E+01 -0.79356993651E+02  0.88235928646E+02  0.00000000000E+00 0.  1.
</event>
<event>
12    1  0.8313893E-002  0.2035920E+03  0.7818608E-02  0.1147430E+00
         21   -1    0    0  503  502  0.00000000000E+00  0.00000000000E+00  0.59432493191E+03  0.59432493191E+03  0.00000000000E+00 0. -1.
         21   -1    0    0  501  503 -0.00000000000E+00 -0.00000000000E+00 -0.88053454145E+02  0.88053454145E+02  0.00000000000E+00 0. -1.
          6    2    1    2  501    0  0.10556220270E+03  0.30371786384E+02  0.91227074482E+02  0.22008889020E+03  0.16748407811E+03 0.  0.
         24    2    3    3    0    0 -0.20551108398E+01 -0.15427137516E+02  0.48922360598E+02  0.95626821991E+02  0.80677578453E+02 0.  0.
         -6    2    1    2    0  502 -0.10556220270E+03 -0.30371786384E+02  0.41504440329E+03  0.46228949586E+03  0.17141731896E+03 0.  0.
        -24    2    5    5    0    0 -0.26001133128E+02 -0.26462188912E+02  0.34549672854E+03  0.35643951803E+03  0.79402986191E+02 0.  0.
          5    1    3    3  501    0  0.10761731354E+03  0.45798923900E+02  0.42304713884E+02  0.12446206820E+03  0.47000000000E+01 0. -1.
        -11    1    4    4    0    0 -0.17134534005E+02  0.25559698647E+02  0.40965138103E+02  0.51235075781E+02  0.00000000000E+00 0.  1.
         12    1    4    4    0    0  0.15079423166E+02 -0.40986836164E+02  0.79572224956E+01  0.44391746210E+02  0.00000000000E+00 0. -1.
         -5    1    5    5    0  502 -0.79561069577E+02 -0.39095974716E+01  0.69547674744E+02  0.10584997783E+03  0.47000000000E+01 0.  1.
         13    1    6    6    0    0 -0.75856689635E+01 -0.23007649415E+02  0.23019524617E+02  0.33418450276E+02  0.00000000000E+00 0. -1.
        -14    1    6    6    0    0 -0.18415464164E+02 -0.34545394972E+01  0.32247720393E+03  0.32302106776E+03  0.00000000000E+00 0.  1.
</event>
<event>
12    1  0.8313893E-002  0.1921648E+03  0.7818608E-02  0.1157178E+00
         21   -1    0    0  501  502  0.00000000000E+00  0.00000000000E+00  0.90396412983E+02  0.90396412983E+02  0.00000000000E+00 0.  1.
         21   -1    0    0  502  503 -0.00000000000E+00 -0.00000000000E+00 -0.80728203879E+03  0.80728203879E+03  0.00000000000E+00 0.  1.
         -6    2    1    2    0  503 -0.32694238076E+02  0.79977616748E+02 -0.67496729100E+03  0.70099476098E+03  0.16836709482E+03 0.  0.
        -24    2    3    3    0    0  0.72141052138E+01 -0.18075748593E+02 -0.34361372944E+03  0.35310913167E+03  0.78973969198E+02 0.  0.
          6    2    1    2  501    0  0.32694238076E+02 -0.79977616748E+02 -0.41918334813E+02  0.19668369080E+03  0.17164496803E+03 0.  0.
         24    2    5    5    0    0 -0.35209325316E+01 -0.83354146929E+02  0.26611360799E+02  0.11895757730E+03  0.80513538603E+02 0.  0.
          5    1    5    5  501    0  0.36215170608E+02  0.33765301811E+01 -0.68529695612E+02  0.77726113494E+02  0.47000000000E+01 0. -1.
        -11    1    6    6    0    0  0.70525531622E+01 -0.94754392939E+02  0.89653442311E+01  0.95438518873E+02  0.00000000000E+00 0.  1.
         12    1    6    6    0    0 -0.10573485694E+02  0.11400246010E+02  0.17646016568E+02  0.23519058432E+02  0.00000000000E+00 0. -1.
         -5    1    3    3    0  503 -0.39908343290E+02  0.98053365341E+02 -0.33135356156E+03  0.34788562930E+03  0.47000000000E+01 0.  1.
         13    1    4    4    0    0 -0.35693664440E+02 -0.70346650143E+01 -0.13301494447E+03  0.13790032504E+03  0.00000000000E+00 0. -1.
        -14    1    4    4    0    0  0.42907769654E+02 -0.11041083578E+02 -0.21059878497E+03  0.21520880664E+03  0.00000000000E+00 0.  1.
</event>
<event>
12    1  0.8313893E-002  0.2796040E+03  0.7818608E-02  0.1095960E+00
         21   -1    0    0  501  502  0.00000000000E+00  0.00000000000E+00  0.54889353942E+03  0.54889353942E+03  0.00000000000E+00 0.  1.
         21   -1    0    0  502  503 -0.00000000000E+00 -0.00000000000E+00 -0.31981018025E+03  0.31981018025E+03  0.00000000000E+00 0.  1.
         -6    2    1    2    0  503  0.11201836252E+03 -0.18949949295E+03 -0.20916281375E+03  0.34885939170E+03  0.17174289259E+03 0.  0.
        -24    2    3    3    0    0  0.13235278204E+03 -0.16059770344E+03 -0.12199820568E+03  0.25468635441E+03  0.81686569699E+02 0.  0.
          6    2    1    2  501    0 -0.11201836252E+03  0.18949949295E+03  0.43824617292E+03  0.51984432797E+03  0.17239560862E+03 0.  0.
         24    2    5    5    0    0 -0.65711613376E+02  0.25526040057E+02  0.11626214108E+03  0.15552658886E+03  0.75511850329E+02 0.  0.
          5    1    5    5  501    0 -0.46306749141E+02  0.16397345289E+03  0.32198403184E+03  0.36431773911E+03  0.47000000000E+01 0. -1.
        -11    1    6    6    0    0 -0.52353689533E+02  0.50217622800E+02  0.66604730595E+02  0.98483037042E+02  0.00000000000E+00 0.  1.
         12    1    6    6    0    0 -0.13357923843E+02 -0.24691582743E+02  0.49657410489E+02  0.57043551820E+02  0.00000000000E+00 0. -1.
         -5    1    3    3    0  503 -0.20334419521E+02 -0.28901789504E+02 -0.87164608062E+02  0.94173037290E+02  0.47000000000E+01 0.  1.
         13    1    4    4    0    0  0.83175061381E+01 -0.53215359901E+02 -0.69517822456E+01  0.54308219582E+02  0.00000000000E+00 0. -1.
        -14    1    4    4    0    0  0.12403527590E+03 -0.10738234354E+03 -0.11504642344E+03  0.20037813483E+03  0.00000000000E+00 0.  1.
</event>
<event>
12    1  0.8313893E-002  0.1967331E+03  0.7818608E-02  0.1152918E+00
         21   -1    0    0  503  502  0.00000000000E+00  0.00000000000E+00  0.60074682714E+02  0.60074682714E+02  0.00000000000E+00 0.  1.
         21   -1    0    0  501  503 -0.00000000000E+00 -0.00000000000E+00 -0.74732698024E+03  0.74732698024E+03  0.00000000000E+00 0.  1.
          6    2    1    2  501    0 -0.81114942309E+02 -0.43378953542E+02 -0.49643415985E+03  0.53332960512E+03  0.17184942582E+03 0.  0.
         24    2    3    3    0    0 -0.40015603912E+02 -0.26457638258E+02 -0.47434056680E+03  0.48347277629E+03  0.80285097732E+02 0.  0.
         -6    2    1    2    0  502  0.81114942309E+02  0.43378953542E+02 -0.19081813767E+03  0.27407205783E+03  0.17390389226E+03 0.  0.
        -24    2    5    5    0    0 -0.25144846497E+02  0.27012314839E+02 -0.11485531153E+03  0.14234715307E+03  0.75558195723E+02 0.  0.
          5    1    3    3  501    0 -0.41099338397E+02 -0.16921315284E+02 -0.22093593050E+02  0.49856828835E+02  0.47000000000E+01 0. -1.
        -13    1    4    4    0    0  0.40622578992E+01 -0.34196643154E+02 -0.34285230875E+03  0.34457744842E+03  0.00000000000E+00 0.  1.
         14    1    4    4    0    0 -0.44077861811E+02  0.77390048956E+01 -0.13148825805E+03  0.13889532787E+03  0.00000000000E+00 0. -1.
         -5    1    5    5    0  502  0.10625978881E+03  0.16366638703E+02 -0.75962826138E+02  0.13172490476E+03  0.47000000000E+01 0.  1.
         13    1    6    6    0    0 -0.39294810599E+01  0.11952270923E+02 -0.11563575975E+03  0.11631821239E+03  0.00000000000E+00 0. -1.
        -14    1    6    6    0    0 -0.21215365438E+02  0.15060043916E+02  0.78044821324E+00  0.26028940678E+02  0.00000000000E+00 0.  1.
</event>
<event>
12    1  0.8313893E-002  0.2146549E+03  0.7818608E-02  0.1138056E+00
         21   -1    0    0  501  502  0.00000000000E+00  0.00000000000E+00  0.18184654397E+03  0.18184654397E+03  0.00000000000E+00 0. -1.
         21   -1    0    0  502  503 -0.00000000000E+00 -0.00000000000E+00 -0.26964185896E+03  0.26964185896E+03  0.00000000000E+00 0. -1.
         -6    2    1    2    0  503 -0.72611954440E+02  0.10539860233E+03  0.12750182779E+02  0.21503319015E+03  0.17232337161E+03 0.  0.
        -24    2    3    3    0    0 -0.94706133071E+02  0.10192317785E+03  0.52890315175E+02  0.16884280658E+03  0.79705219855E+02 0.  0.
          6    2    1    2  501    0  0.72611954440E+02 -0.10539860233E+03 -0.10054549777E+03  0.23645521278E+03  0.17152349468E+03 0.  0.
         24    2    5    5    0    0 -0.28796343195E+02 -0.44654955037E+02 -0.38597315695E+02  0.10291457935E+03  0.79236124794E+02 0.  0.
          5    1    5    5  501    0  0.10140829763E+03 -0.60743647294E+02 -0.61948182080E+02  0.13354063344E+03  0.47000000000E+01 0. -1.
        -11    1    6    6    0    0 -0.28389939478E+01 -0.50931255071E+02 -0.52164810147E+02  0.72960400543E+02  0.00000000000E+00 0.  1.
         12    1    6    6    0    0 -0.25957349247E+02  0.62763000344E+01  0.13567494452E+02  0.29954178803E+02  0.00000000000E+00 0. -1.
         -5    1    3    3    0  503  0.22094178631E+02  0.34754244831E+01 -0.40140132396E+02  0.46190383561E+02  0.47000000000E+01 0.  1.
         13    1    4    4    0    0 -0.70790661770E+02  0.23460671820E+02  0.43356859477E+02  0.86264350573E+02  0.00000000000E+00 0. -1.
        -14    1    4    4    0    0 -0.23915471302E+02  0.78462506028E+02  0.95334556985E+01  0.82578456012E+02  0.00000000000E+00 0.  1.
</event>
<event>
12    1  0.8313893E-002  0.2700982E+03  0.7818608E-02  0.1101343E+00
         21   -1    0    0  501  502  0.00000000000E+00  0.00000000000E+00  0.19649994566E+03  0.19649994566E+03  0.00000000000E+00 0. -1.
         21   -1    0    0  502  503 -0.00000000000E+00 -0.00000000000E+00 -0.37055250376E+03  0.37055250376E+03  0.00000000000E+00 0.  1.
         -6    2    1    2    0  503  0.17102838546E+03 -0.11607767845E+03 -0.96643362981E+02  0.28608053104E+03  0.17256127770E+03 0.  0.
        -24    2    3    3    0    0  0.37305505962E+02 -0.10195071134E+03 -0.51374121478E+02  0.14412006496E+03  0.79659553419E+02 0.  0.
          6    2    1    2  501    0 -0.17102838546E+03  0.11607767845E+03 -0.77409195115E+02  0.28097191838E+03  0.17386287516E+03 0.  0.
         24    2    5    5    0    0 -0.99715984749E+02  0.12997558718E+03 -0.13229950159E+02  0.18391690385E+03  0.82543716067E+02 0.  0.
          5    1    5    5  501    0 -0.71312400712E+02 -0.13897908729E+02 -0.64179244955E+02  0.97055014530E+02  0.47000000000E+01 0. -1.
        -13    1    6    6    0    0 -0.73688742052E+02  0.30397696971E+02  0.27547564367E+01  0.79759885716E+02  0.00000000000E+00 0.  1.
         14    1    6    6    0    0 -0.26027242697E+02  0.99577890211E+02 -0.15984706596E+02  0.10415701813E+03  0.00000000000E+00 0. -1.
         -5    1    3    3    0  503  0.13372287950E+03 -0.14126967118E+02 -0.45269241502E+02  0.14196046607E+03  0.47000000000E+01 0.  1.
         13    1    4    4    0    0 -0.23890874898E+02 -0.41648720814E+02 -0.11338150046E+02  0.49335012874E+02  0.00000000000E+00 0. -1.
        -14    1    4    4    0    0  0.61196380861E+02 -0.60301990522E+02 -0.40035971433E+02  0.94785052091E+02  0.00000000000E+00 0.  1.
</event>
<event>
12    1  0.8313893E-002  0.2051794E+03  0.7818608E-02  0.1146897E+00
         21   -1    0    0  501  502  0.00000000000E+00  0.00000000000E+00  0.35312406295E+03  0.35312406295E+03  0.00000000000E+00 0.  1.
         21   -1    0    0  502  503 -0.00000000000E+00 -0.00000000000E+00 -0.16689549435E+03  0.16689549435E+03  0.00000000000E+00 0. -1.
         -6    2    1    2    0  503  0.10432905732E+03 -0.52456720790E+01 -0.50486393529E+02  0.21129944564E+03  0.17659702862E+03 0.  0.
        -24    2    3    3    0    0  0.13650122354E+03  0.21947747296E+02 -0.49707868474E+02  0.16890573811E+03  0.83330597857E+02 0.  0.
          6    2    1    2  501    0 -0.10432905732E+03  0.52456720790E+01  0.23671496213E+03  0.30872011167E+03  0.16841040578E+03 0.  0.
         24    2    5    5    0    0 -0.39462512121E+02  0.63268790544E+02  0.15892348653E+03  0.19189565088E+03  0.77505074259E+02 0.  0.
          5    1    5    5  501    0 -0.64866545195E+02 -0.58023118464E+02  0.77791475602E+02  0.11682446079E+03  0.47000000000E+01 0. -1.
        -11    1    6    6    0    0 -0.21509496934E+02  0.43085815385E+02  0.15766355534E+03  0.16485400398E+03  0.00000000000E+00 0.  1.
         12    1    6    6    0    0 -0.17953015187E+02  0.20182975158E+02  0.12599311924E+01  0.27041646902E+02  0.00000000000E+00 0. -1.
         -5    1    3    3    0  503 -0.32172166221E+02 -0.27193419375E+02 -0.77852505453E+00  0.42393707527E+02  0.47000000000E+01 0.  1.
         13    1    4    4    0    0 -0.92384499675E+01  0.84946124779E+01  0.37353131022E+01  0.13094272142E+02  0.00000000000E+00 0. -1.
        -14    1    4    4    0    0  0.14573967350E+03  0.13453134818E+02 -0.53443181577E+02  0.15581146597E+03  0.00000000000E+00 0.  1.
</event>
<event>
12    1  0.8313893E-002  0.1967387E+03  0.7818608E-02  0.1152948E+00
         21   -1    0    0  501  502  0.00000000000E+00  0.00000000000E+00  0.63605520736E+02  0.63605520736E+02  0.00000000000E+00 0. -1.
         21   -1    0    0  502  503 -0.00000000000E+00 -0.00000000000E+00 -0.60816794827E+03  0.60816794827E+03  0.00000000000E+00 0. -1.
         -6    2    1    2    0  503 -0.40530418941E+02  0.84283242373E+02 -0.24103449157E+03  0.31113301970E+03  0.17308885007E+03 0.  0.
        -24    2    3    3    0    0 -0.39985717348E+02 -0.21343841489E+02 -0.97476997922E+02  0.13284050295E+03  0.78041123390E+02 0.  0.
          6    2    1    2  501    0  0.40530418941E+02 -0.84283242373E+02 -0.30352793596E+03  0.36064044930E+03  0.17083894744E+03 0.  0.
         24    2    5    5    0    0  0.31967714831E+02 -0.11751931031E+03 -0.17594712314E+03  0.22844018488E+03  0.79967523648E+02 0.  0.
          5    1    5    5  501    0  0.85627041094E+01  0.33236067942E+02 -0.12758081281E+03  0.13220026442E+03  0.47000000000E+01 0. -1.
        -11    1    6    6    0    0  0.37610463909E+01  0.88422215981E+01  0.46000800310E+00  0.96198731856E+01  0.00000000000E+00 0.  1.
         12    1    6    6    0    0  0.28206668440E+02 -0.12636153191E+03 -0.17640713115E+03  0.21882031170E+03  0.00000000000E+00 0. -1.
         -5    1    3    3    0  503 -0.54470159297E+00  0.10562708386E+03 -0.14355749365E+03  0.17829251675E+03  0.47000000000E+01 0.  1.
         13    1    4    4    0    0  0.11602904150E+01  0.17483196002E+02  0.27628208265E+01  0.17738139565E+02  0.00000000000E+00 0. -1.
        -14    1    4    4    0    0 -0.41146007763E+02 -0.38827037491E+02 -0.10023981875E+03  0.11510236339E+03  0.00000000000E+00 0.  1.
</event>
<event>
12    1  0.8313893E-002  0.2192385E+03  0.7818608E-02  0.1134813E+00
         21   -1    0    0  503  502  0.00000000000E+00  0.00000000000E+00  0.30447506248E+03  0.30447506248E+03  0.00000000000E+00 0. -1.
         21   -1    0    0  501  503 -0.00000000000E+00 -0.00000000000E+00 -0.15702853358E+03  0.15702853358E+03  0.00000000000E+00 0.  1.
          6    2    1    2  501    0  0.13297912027E+03 -0.26641604414E+02  0.59825687381E+02  0.22540420531E+03  0.16980789554E+03 0.  0.
         24    2    3    3    0    0  0.38764960888E+02 -0.23670595661E+02 -0.28617808311E+02  0.96061727173E+02  0.79660888668E+02 0.  0.
         -6    2    1    2    0  502 -0.13297912027E+03  0.26641604414E+02  0.87620841521E+02  0.23609939075E+03  0.17225646267E+03 0.  0.
        -24    2    5    5    0    0 -0.12365644079E+02  0.12116068101E+02  0.80102422146E+02  0.11429126921E+03  0.79664219847E+02 0.  0.
          5    1    3    3  501    0  0.94214159381E+02 -0.29710087531E+01  0.88443495691E+02  0.12934247814E+03  0.47000000000E+01 0. -1.
        -13    1    4    4    0    0  0.33603799232E+02  0.24736969651E+02 -0.52305054863E+01  0.42053432417E+02  0.00000000000E+00 0.  1.
         14    1    4    4    0    0  0.51611616554E+01 -0.48407565312E+02 -0.23387302824E+02  0.54008294756E+02  0.00000000000E+00 0. -1.
         -5    1    5    5    0  502 -0.12061347619E+03  0.14525536314E+02  0.75184193744E+01  0.12180812154E+03  0.47000000000E+01 0.  1.
         13    1    6    6    0    0 -0.33237341920E+02 -0.96776303465E+01  0.76415243140E+02  0.83890802900E+02  0.00000000000E+00 0. -1.
        -14    1    6    6    0    0  0.20871697840E+02  0.21793698447E+02  0.36871790059E+01  0.30400466308E+02  0.00000000000E+00 0.  1.
</event>
<event>
12    1  0.8313893E-002  0.1822616E+03  0.7818608E-02  0.1165804E+00
         21   -1    0    0  503  502  0.00000000000E+00  0.00000000000E+00  0.22710317868E+04  0.22710317868E+04  0.00000000000E+00 0.  1.
         21   -1    0    0  501  503 -0.00000000000E+00 -0.00000000000E+00 -0.53844613807E+02  0.53844613807E+02  0.00000000000E+00 0.  1.
          6    2    1    2  501    0  0.45665109080E+01 -0.59591870854E+02  0.11521382766E+03  0.21501592605E+03  0.17142222224E+03 0.  0.
         24    2    3    3    0    0  0.19558349655E+02 -0.10490814042E+03  0.75338532310E+02  0.15264246458E+03  0.78965692388E+02 0.  0.
         -6    2    1    2    0  502 -0.45665109080E+01  0.59591870854E+02  0.21019733453E+04  0.21098604745E+04  0.17218372020E+03 0.  0.
        -24    2    5    5    0    0  0.15588668569E+02  0.80417149294E+02  0.87921157196E+03  0.88674626570E+03  0.81215928079E+02 0.  0.
          5    1    3    3  501    0 -0.14991838747E+02  0.45316269570E+02  0.39875295348E+02  0.62373461471E+02  0.47000000000E+01 0. -1.
        -13    1    4    4    0    0 -0.24069589325E+02 -0.76891864491E+02  0.40510418770E+02  0.90182026946E+02  0.00000000000E+00 0.  1.
         14    1    4    4    0    0  0.43627938980E+02 -0.28016275933E+02  0.34828113541E+02  0.62460437635E+02  0.00000000000E+00 0. -1.
         -5    1    5    5    0  502 -0.20155179477E+02 -0.20825278439E+02  0.12227617734E+04  0.12231142088E+04  0.47000000000E+01 0.  1.
         11    1    6    6    0    0 -0.68434966193E+01  0.37702290048E+02  0.11925956942E+03  0.12526428470E+03  0.00000000000E+00 0. -1.
        -12    1    6    6    0    0  0.22432165189E+02  0.42714859245E+02  0.75995200254E+03  0.76148198100E+03  0.00000000000E+00 0.  1.
</event>
<event>
12    1  0.8313893E-002  0.1727689E+03  0.7818608E-02  0.1175256E+00
         21   -1    0    0  501  502  0.00000000000E+00  0.00000000000E+00  0.26772622044E+02  0.26772622044E+02  0.00000000000E+00 0. -1.
         21   -1    0    0  502  503 -0.00000000000E+00 -0.00000000000E+00 -0.24200171545E+04  0.24200171545E+04  0.00000000000E+00 0. -1.
         -6    2    1    2    0  503  0.11599096937E+02 -0.70324920517E+01 -0.20989792629E+04  0.21060776446E+04  0.17223560605E+03 0.  0.
        -24    2    3    3    0    0  0.33678934821E+02 -0.65739111467E+02 -0.14647071755E+04  0.14686945908E+04  0.78998668831E+02 0.  0.
          6    2    1    2  501    0 -0.11599096937E+02  0.70324920517E+01 -0.29426526957E+03  0.34071213196E+03  0.17119787673E+03 0.  0.
         24    2    5    5    0    0  0.15186147752E+02  0.54717498025E+02 -0.25463675749E+03  0.27300823180E+03  0.80430048430E+02 0.  0.
          5    1    5    5  501    0 -0.26785244690E+02 -0.47685005974E+02 -0.39628512085E+02  0.67703900167E+02  0.47000000000E+01 0. -1.
        -13    1    6    6    0    0  0.16855195323E+02 -0.38089258575E+00 -0.17695062403E+03  0.17775197899E+03  0.00000000000E+00 0.  1.
         14    1    6    6    0    0 -0.16690475710E+01  0.55098390611E+02 -0.77686133455E+02  0.95256252808E+02  0.00000000000E+00 0. -1.
         -5    1    3    3    0  503 -0.22079837884E+02  0.58706619415E+02 -0.63427208739E+03  0.63738305379E+03  0.47000000000E+01 0.  1.
         11    1    4    4    0    0 -0.20453350013E+01  0.48148094193E+01 -0.67847711183E+03  0.67849727860E+03  0.00000000000E+00 0. -1.
        -12    1    4    4    0    0  0.35724269822E+02 -0.70553920886E+02 -0.78623006366E+03  0.79019731220E+03  0.00000000000E+00 0.  1.
</event>
<event>
12    1  0.8313893E-002  0.1779121E+03  0.7818608E-02  0.1169959E+00
         21   -1    0    0  503  502  0.00000000000E+00  0.00000000000E+00  0.10928003603E+03  0.10928003603E+03  0.00000000000E+00 0.  1.
         21   -1    0    0  501  503 -0.00000000000E+00 -0.00000000000E+00 -0.35558932487E+03  0.35558932487E+03  0.00000000000E+00 0.  1.
          6    2    1    2  501    0  0.26499380734E+02  0.33470391419E+02 -0.22398626931E+03  0.28604642406E+03  0.17271428312E+03 0.  0.
         24    2    3    3    0    0  0.78745977036E+02  0.70261279887E+00 -0.17290776449E+03  0.20583085327E+03  0.79169581124E+02 0.  0.
         -6    2    1    2    0  502 -0.26499380734E+02 -0.33470391419E+02 -0.22323019534E+02  0.17882293684E+03  0.17221161766E+03 0.  0.
        -24    2    5    5    0    0 -0.16401020688E+02 -0.48077751232E+02 -0.75686079482E+02  0.12238661872E+03  0.81667852736E+02 0.  0.
          5    1    3    3  501    0 -0.52246596303E+02  0.32767778620E+02 -0.51078504827E+02  0.80215570784E+02  0.47000000000E+01 0. -1.
        -13    1    4    4    0    0  0.19539501511E+02  0.25984188657E+02 -0.11408171074E+03  0.11862380412E+03  0.00000000000E+00 0.  1.
         14    1    4    4    0    0  0.59206475525E+02 -0.25281575858E+02 -0.58826053747E+02  0.87207049150E+02  0.00000000000E+00 0. -1.
         -5    1    5    5    0  502 -0.10098360045E+02  0.14607359813E+02  0.53363059948E+02  0.56436318123E+02  0.47000000000E+01 0.  1.
         13    1    6    6    0    0  0.30098790464E+02 -0.36131007616E+02 -0.46862176075E+02  0.66388631898E+02  0.00000000000E+00 0. -1.
        -14    1    6    6    0    0 -0.46499811152E+02 -0.11946743616E+02 -0.28823903407E+02  0.55997986819E+02  0.00000000000E+00 0.  1.
</event>
<event>
12    1  0.8313893E-002  0.1895879E+03  0.7818608E-02  0.1159237E+00
         21   -1    0    0  503  502  0.00000000000E+00  0.00000000000E+00  0.91461489929E+03  0.91461489929E+03  0.00000000000E+00 0. -1.
         21   -1    0    0  501  503 -0.00000000000E+00 -0.00000000000E+00 -0.43426676606E+02  0.43426676606E+02  0.00000000000E+00 0.  1.
          6    2    1    2  501    0 -0.36974978675E+02  0.68122119366E+02  0.27966057134E+03  0.33687450772E+03  0.17107491514E+03 0.  0.
         24    2    3    3    0    0 -0.68878409850E+02  0.48293547622E+01  0.21721499482E+03  0.24229468429E+03  0.82199769158E+02 0.  0.
         -6    2    1    2    0  502  0.36974978675E+02 -0.68122119366E+02  0.59152765134E+03  0.62116706818E+03  0.17301962922E+03 0.  0.
        -24    2    5    5    0    0  0.88772222651E+00  0.21273812867E+01  0.13434485386E+03  0.15718917783E+03  0.81575634023E+02 0.  0.
          5    1    3    3  501    0  0.31903431175E+02  0.63292764604E+02  0.62445576518E+02  0.94579823423E+02  0.47000000000E+01 0. -1.
        -13    1    4    4    0    0 -0.16013456157E+02 -0.33587898830E+02  0.46869418272E+02  0.59844131668E+02  0.00000000000E+00 0.  1.
         14    1    4    4    0    0 -0.52864953693E+02  0.38417253592E+02  0.17034557655E+03  0.18245055263E+03  0.00000000000E+00 0. -1.
         -5    1    5    5    0  502  0.36087256448E+02 -0.70249500653E+02  0.45718279749E+03  0.46397789035E+03  0.47000000000E+01 0.  1.
         11    1    6    6    0    0 -0.10161973387E+02  0.40394042302E+02  0.64314660956E+02  0.76624538958E+02  0.00000000000E+00 0. -1.
        -12    1    6    6    0    0  0.11049695613E+02 -0.38266661015E+02  0.70030192900E+02  0.80564638868E+02  0.00000000000E+00 0.  1.
</event>
<event>
12    1  0.8313893E-002  0.1740473E+03  0.7818608E-02  0.1175570E+00
         21   -1    0    0  503  502  0.00000000000E+00  0.00000000000E+00  0.46720739817E+03  0.46720739817E+03  0.00000000000E+00 0.  1.
         21   -1    0    0  501  503 -0.00000000000E+00 -0.00000000000E+00 -0.11064133368E+03  0.11064133368E+03  0.00000000000E+00 0.  1.
          6    2    1    2  501    0  0.55480293242E+01  0.23351001583E+02 -0.15080447489E+02  0.16746648420E+03  0.16505015459E+03 0.  0.
         24    2    3    3    0    0 -0.30025350935E+02  0.29024957014E+02 -0.61486423369E+02  0.10853208211E+03  0.79086425885E+02 0.  0.
         -6    2    1    2    0  502 -0.55480293242E+01 -0.23351001583E+02  0.37164651198E+03  0.41038224764E+03  0.17238448133E+03 0.  0.
        -24    2    5    5    0    0  0.40945631316E+02 -0.53520811030E+02  0.31078506619E+03  0.32793175664E+03  0.80067831938E+02 0.  0.
          5    1    3    3  501    0  0.35573380259E+02 -0.56739554311E+01  0.46405975879E+02  0.58934402098E+02  0.47000000000E+01 0. -1.
        -13    1    4    4    0    0 -0.70243160537E+01  0.41658531444E+02 -0.69290645586E+02  0.81153976020E+02  0.00000000000E+00 0.  1.
         14    1    4    4    0    0 -0.23001034881E+02 -0.12633574430E+02  0.78042222173E+01  0.27378106087E+02  0.00000000000E+00 0. -1.
         -5    1    5    5    0  502 -0.46493660640E+02  0.30169809447E+02  0.60861445796E+02  0.82450491000E+02  0.47000000000E+01 0.  1.
         11    1    6    6    0    0  0.59128153683E+01 -0.56503713753E+01 -0.29072727906E+01  0.86798800302E+01  0.00000000000E+00 0. -1.
        -12    1    6    6    0    0  0.35032815947E+02 -0.47870439655E+02  0.31369233898E+03  0.31925187661E+03  0.00000000000E+00 0.  1.
</event>
<event>
12    1  0.8313893E-002  0.1802985E+03  0.7818608E-02  0.1167536E+00
         21   -1    0    0  503  502  0.00000000000E+00  0.00000000000E+00  0.14127121766E+03  0.14127121766E+03  0.00000000000E+00 0.  1.
         21   -1    0    0  501  503 -0.00000000000E+00 -0.00000000000E+00 -0.28858121808E+03  0.28858121808E+03  0.00000000000E+00 0.  1.
          6    2    1    2  501    0 -0.18200502099E+02 -0.53357390383E+02 -0.17047977578E+03  0.24807126379E+03  0.17116579267E+03 0.  0.
         24    2    3    3    0    0 -0.35131560111E+02 -0.98048706846E+02 -0.13477701985E+03  0.18823188483E+03  0.80116302694E+02 0.  0.
         -6    2    1    2    0  502  0.18200502099E+02  0.53357390383E+02  0.23169775360E+02  0.18178117195E+03  0.17125795340E+03 0.  0.
        -24    2    5    5    0    0  0.22013100894E+02  0.14100676481E+02  0.77765074710E+02  0.11426552779E+03  0.79534887364E+02 0.  0.
          5    1    3    3  501    0  0.16931058012E+02  0.44691316463E+02 -0.35702755934E+02  0.59839378957E+02  0.47000000000E+01 0. -1.
        -13    1    4    4    0    0  0.25238850497E+02 -0.37146062685E+02 -0.56031280393E+02  0.71807617492E+02  0.00000000000E+00 0.  1.
         14    1    4    4    0    0 -0.60370410608E+02 -0.60902644161E+02 -0.78745739457E+02  0.11642426734E+03  0.00000000000E+00 0. -1.
         -5    1    5    5    0  502 -0.38125987956E+01  0.39256713902E+02 -0.54595299350E+02  0.67515644165E+02  0.47000000000E+01 0.  1.
         13    1    6    6    0    0  0.20547084067E+02 -0.16344461406E+02 -0.44071737450E+01  0.26622307615E+02  0.00000000000E+00 0. -1.
        -14    1    6    6    0    0  0.14660168272E+01  0.30445137887E+02  0.82172248455E+02  0.87643220174E+02  0.00000000000E+00 0.  1.
</event>
<event>
12    1  0.8313893E-002  0.2051146E+03  0.7818608E-02  0.1145687E+00
         21   -1    0    0  501  502  0.00000000000E+00  0.00000000000E+00  0.25194191524E+03  0.25194191524E+03  0.00000000000E+00 0. -1.
         21   -1    0    0  502  503 -0.00000000000E+00 -0.00000000000E+00 -0.16641161816E+03  0.16641161816E+03  0.00000000000E+00 0.  1.
         -6    2    1    2    0  503  0.49619349596E+02  0.10004508887E+03  0.35855622820E+02  0.20822493213E+03  0.17204911221E+03 0.  0.
        -24    2    3    3    0    0 -0.23081082107E+01  0.62338313327E+02  0.80362983026E+02  0.12998647030E+03  0.80912797191E+02 0.  0.
          6    2    1    2  501    0 -0.49619349596E+02 -0.10004508887E+03  0.49674674260E+02  0.21012860128E+03  0.17092500154E+03 0.  0.
         24    2    5    5    0    0 -0.71485184425E+01 -0.12021458471E+03  0.66978904176E+02  0.15980856119E+03  0.80931791858E+02 0.  0.
          5    1    5    5  501    0 -0.42470831154E+02  0.20169495842E+02 -0.17304229916E+02  0.50320040087E+02  0.47000000000E+01 0. -1.
        -13    1    6    6    0    0 -0.91811235863E+01 -0.16298637142E+02 -0.17693384401E+02  0.25748678696E+02  0.00000000000E+00 0.  1.
         14    1    6    6    0    0  0.20326051438E+01 -0.10391594757E+03  0.84672288577E+02  0.13405988250E+03  0.00000000000E+00 0. -1.
         -5    1    3    3    0  503  0.51927457807E+02  0.37706775541E+02 -0.44507360206E+02  0.78238461823E+02  0.47000000000E+01 0.  1.
         11    1    4    4    0    0  0.15516421846E+02  0.75438985645E+02  0.74379212986E+02  0.10707038445E+03  0.00000000000E+00 0. -1.
        -12    1    4    4    0    0 -0.17824530057E+02 -0.13100672318E+02  0.59837700399E+01  0.22916085853E+02  0.00000000000E+00 0.  1.
</event>
<event>
12    1  0.8313893E-002  0.2898284E+03  0.7818608E-02  0.1090670E+00
         21   -1    0    0  503  502  0.00000000000E+00  0.00000000000E+00  0.45452529850E+03  0.45452529850E+03  0.00000000000E+00 0. -1.
         21   -1    0    0  501  503 -0.00000000000E+00 -0.00000000000E+00 -0.14453319083E+04  0.14453319083E+04  0.00000000000E+00 0.  1.
          6    2    1    2  501    0 -0.18916352602E+03 -0.13672637122E+03 -0.13827257628E+04  0.14124137616E+04  0.16883470779E+03 0.  0.
         24    2    3    3    0    0 -0.13829708695E+03 -0.15619516907E+03 -0.12365107272E+04  0.12563132960E+04  0.76428424756E+02 0.  0.
         -6    2    1    2    0  502  0.18916352602E+03  0.13672637122E+03  0.39191915304E+03  0.48744344521E+03  0.17182418222E+03 0.  0.
        -24    2    5    5    0    0  0.20429127734E+03  0.13263460712E+03  0.30208935831E+03  0.39613586932E+03  0.79616465344E+02 0.  0.
          5    1    3    3  501    0 -0.50866439070E+02  0.19468797851E+02 -0.14621503566E+03  0.15610046562E+03  0.47000000000E+01 0. -1.
        -11    1    4    4    0    0 -0.10901858789E+03 -0.94280568976E+02 -0.99108576470E+03  0.10015112936E+04  0.00000000000E+00 0.  1.
         12    1    4    4    0    0 -0.29278499059E+02 -0.61914600095E+02 -0.24542496248E+03  0.25480200239E+03  0.00000000000E+00 0. -1.
         -5    1    5    5    0  502 -0.15127751325E+02  0.40917641043E+01  0.89829794736E+02  0.91307575895E+02  0.47000000000E+01 0.  1.
         11    1    6    6    0    0  0.57288960862E+02  0.42997094518E+02  0.38566437289E+02  0.81351983743E+02  0.00000000000E+00 0. -1.
        -12    1    6    6    0    0  0.14700231648E+03  0.89637512598E+02  0.26352292102E+03  0.31478388557E+03  0.00000000000E+00 0.  1.
</event>
<event>
12    1  0.8313893E-002  0.1755315E+03  0.7818608E-02  0.1172266E+00
         21   -1    0    0  503  502  0.00000000000E+00  0.00000000000E+00  0.28397270333E+03  0.28397270333E+03  0.00000000000E+00 0.  1.
         21   -1    0    0  501  503 -0.00000000000E+00 -0.00000000000E+00 -0.11204028624E+03  0.11204028624E+03  0.00000000000E+00 0.  1.
          6    2    1    2  501    0 -0.24367671824E+02  0.21894126039E+02  0.12203766296E+03  0.21378611626E+03  0.17244760404E+03 0.  0.
         24    2    3    3    0    0 -0.58568940790E+02 -0.16354129849E+02  0.12732320583E+03  0.16199149452E+03  0.79575543771E+02 0.  0.
         -6    2    1    2    0  502  0.24367671824E+02 -0.21894126039E+02  0.49894754133E+02  0.18222687331E+03  0.17217436128E+03 0.  0.
        -24    2    5    5    0    0  0.45830354585E+02 -0.59731460550E+02  0.77801880941E+02  0.13033074281E+03  0.72558259787E+02 0.  0.
          5    1    3    3  501    0  0.34201268966E+02  0.38248255888E+02 -0.52855428661E+01  0.51794621736E+02  0.47000000000E+01 0. -1.
        -11    1    4    4    0    0 -0.60702114432E+02  0.14151031008E+02  0.11106260233E+03  0.12735737125E+03  0.00000000000E+00 0.  1.
         12    1    4    4    0    0  0.21331736418E+01 -0.30505160857E+02  0.16260603497E+02  0.34634123272E+02  0.00000000000E+00 0. -1.
         -5    1    5    5    0  502 -0.21462682761E+02  0.37837334511E+02 -0.27907126808E+02  0.51896130500E+02  0.47000000000E+01 0.  1.
         11    1    6    6    0    0  0.24381251043E+02  0.98211142670E+01  0.41175447741E+02  0.48849945594E+02  0.00000000000E+00 0. -1.
        -12    1    6    6    0    0  0.21449103542E+02 -0.69552574817E+02  0.36626433200E+02  0.81480797219E+02  0.00000000000E+00 0.  1.
</event>
<event>
12    1  0.8313893E-002  0.1908357E+03  0.7818608E-02  0.1157798E+00
         21   -1    0    0  503  502  0.00000000000E+00  0.00000000000E+00  0.22617340913E+03  0.22617340913E+03  0.00000000000E+00 0. -1.
         21   -1    0    0  501  503 -0.00000000000E+00 -0.00000000000E+00 -0.16105736210E+03  0.16105736210E+03  0.00000000000E+00 0.  1.
          6    2    1    2  501    0 -0.71891271794E+02 -0.41351519482E+02  0.41866777613E+02  0.19537428315E+03  0.17187198819E+03 0.  0.
         24    2    3    3    0    0  0.21441581641E+02 -0.43991184821E+02  0.53584513586E+01  0.95010259466E+02  0.81260510936E+02 0.  0.
         -6    2    1    2    0  502  0.71891271794E+02  0.41351519482E+02  0.23249269418E+02  0.19185648808E+03  0.17143535332E+03 0.  0.
        -24    2    5    5    0    0  0.26602322036E+02  0.90589335615E+02  0.28229995583E+02  0.12460807441E+03  0.76263544985E+02 0.  0.
          5    1    3    3  501    0 -0.93332853436E+02  0.26396653392E+01  0.36508326255E+02  0.10036402368E+03  0.47000000000E+01 0. -1.
        -11    1    4    4    0    0  0.25304664815E+02 -0.38194570520E+01 -0.31340828390E+02  0.40461856578E+02  0.00000000000E+00 0.  1.
         12    1    4    4    0    0 -0.38630831742E+01 -0.40171727769E+02  0.36699279748E+02  0.54548402888E+02  0.00000000000E+00 0. -1.
         -5    1    5    5    0  502  0.45288949758E+02 -0.49237816133E+02 -0.49807261645E+01  0.67248413668E+02  0.47000000000E+01 0.  1.
         13    1    6    6    0    0  0.24917387638E+01 -0.13731152596E+02  0.63156503225E+01  0.15317987880E+02  0.00000000000E+00 0. -1.
        -14    1    6    6    0    0  0.24110583272E+02  0.10432048821E+03  0.21914345260E+02  0.10929008653E+03  0.00000000000E+00 0.  1.
</event>
<event>
12    1  0.8313893E-002  0.2697199E+03  0.7818608E-02  0.1101558E+00
         21   -1    0    0  501  502  0.00000000000E+00  0.00000000000E+00  0.12976472751E+03  0.12976472751E+03  0.00000000000E+00 0. -1.
         21   -1    0    0  502  503 -0.00000000000E+00 -0.00000000000E+00 -0.81929311327E+03  0.81929311327E+03  0.00000000000E+00 0.  1.
         -6    2    1    2    0  503 -0.11425286709E+03  0.17295841501E+03 -0.77610674020E+02  0.28066397513E+03  0.17257033132E+03 0.  0.
        -24    2    3    3    0    0 -0.13262588404E+03  0.16675866743E+03 -0.30525019340E+02  0.22952540359E+03  0.79699785517E+02 0.  0.
          6    2    1    2  501    0  0.11425286709E+03 -0.17295841501E+03 -0.61191771173E+03  0.66839386566E+03  0.17128555908E+03 0.  0.
         24    2    5    5    0    0  0.66605315362E+02 -0.37923459979E+02 -0.37993929176E+03  0.39573876190E+03  0.79880194046E+02 0.  0.
          5    1    5    5  501    0  0.47647551727E+02 -0.13503495504E+03 -0.23197841998E+03  0.27265510375E+03  0.47000000000E+01 0. -1.
        -13    1    6    6    0    0  0.14193805730E+02 -0.91916062205E+01 -0.27061042909E+03  0.27113825639E+03  0.00000000000E+00 0.  1.
         14    1    6    6    0    0  0.52411509631E+02 -0.28731853759E+02 -0.10932886267E+03  0.12460050552E+03  0.00000000000E+00 0. -1.
         -5    1    3    3    0  503  0.18373016946E+02  0.61997475881E+01 -0.47085654679E+02  0.51138571533E+02  0.47000000000E+01 0.  1.
         11    1    4    4    0    0 -0.66671516676E+02  0.80637209947E+02 -0.55172092263E+02  0.11828529295E+03  0.00000000000E+00 0. -1.
        -12    1    4    4    0    0 -0.65954367359E+02  0.86121457480E+02  0.24647072923E+02  0.11124011064E+03  0.00000000000E+00 0.  1.
</event>
<event>
12    1  0.8313893E-002  0.1770012E+03  0.7818608E-02  0.1170906E+00
         21   -1    0    0  503  502  0.00000000000E+00  0.00000000000E+00  0.10322764454E+03  0.10322764454E+03  0.00000000000E+00 0. -1.
         21   -1    0    0  501  503 -0.00000000000E+00 -0.00000000000E+00 -0.33249572764E+03  0.33249572764E+03  0.00000000000E+00 0. -1.
          6    2    1    2  501    0 -0.23772162104E+02  0.35792579066E+02 -0.18005437910E+03  0.25200775158E+03  0.17100322516E+03 0.  0.
         24    2    3    3    0    0 -0.77393951075E+02  0.22883758429E+02 -0.86502988362E+02  0.14330684720E+03  0.80873947574E+02 0.  0.
         -6    2    1    2    0  502  0.23772162104E+02 -0.35792579066E+02 -0.49213703992E+02  0.18371562061E+03  0.17170677385E+03 0.  0.
        -24    2    5    5    0    0  0.42900839807E+02 -0.76198943084E+02 -0.13309560461E+01  0.11803892676E+03  0.79275821049E+02 0.  0.
          5    1    3    3  501    0  0.53621788971E+02  0.12908820638E+02 -0.93551390742E+02  0.10870090438E+03  0.47000000000E+01 0. -1.
        -13    1    4    4    0    0 -0.47110955757E+02  0.53396094524E+02 -0.56128001948E+02  0.90669386595E+02  0.00000000000E+00 0.  1.
         14    1    4    4    0    0 -0.30282995318E+02 -0.30512336095E+02 -0.30374986414E+02  0.52637460606E+02  0.00000000000E+00 0. -1.
         -5    1    5    5    0  502 -0.19128677703E+02  0.40406364018E+02 -0.47882747946E+02  0.65676693847E+02  0.47000000000E+01 0.  1.
         11    1    6    6    0    0  0.35343884524E+02 -0.30521484454E+02  0.35676966623E+02  0.58767313482E+02  0.00000000000E+00 0. -1.
        -12    1    6    6    0    0  0.75569552830E+01 -0.45677458631E+02 -0.37007922669E+02  0.59271613276E+02  0.00000000000E+00 0.  1.
</event>
<event>
12    1  0.8313893E-002  0.2072479E+03  0.7818608E-02  0.1144231E+00
         21   -1    0    0  501  502  0.00000000000E+00  0.00000000000E+00  0.22670769154E+02  0.22670769154E+02  0.00000000000E+00 0. -1.
         21   -1    0    0  502  503 -0.00000000000E+00 -0.00000000000E+00 -0.19530177331E+04  0.19530177331E+04  0.00000000000E+00 0.  1.
         -6    2    1    2    0  503 -0.11179897242E+03  0.19137888848E+02 -0.76077832501E+03  0.78789960073E+03  0.17069520203E+03 0.  0.
        -24    2    3    3    0    0 -0.46833630690E+02  0.64241971386E+02 -0.31044995631E+03  0.33065502335E+03  0.81444147977E+02 0.  0.
          6    2    1    2  501    0  0.11179897242E+03 -0.19137888848E+02 -0.11695686389E+04  0.11877889015E+04  0.17345432940E+03 0.  0.
         24    2    5    5    0    0  0.14754444119E+03 -0.21733654199E+02 -0.10229054891E+04  0.10367371022E+04  0.79034585884E+02 0.  0.
          5    1    5    5  501    0 -0.35745468775E+02  0.25957653510E+01 -0.14666314986E+03  0.15105179927E+03  0.47000000000E+01 0. -1.
        -13    1    6    6    0    0  0.72972680474E+02 -0.45821610411E+02 -0.64999692016E+03  0.65568332928E+03  0.00000000000E+00 0.  1.
         14    1    6    6    0    0  0.74571760719E+02  0.24087956212E+02 -0.37290856889E+03  0.38105377295E+03  0.00000000000E+00 0. -1.
         -5    1    3    3    0  503 -0.64965341728E+02 -0.45104082537E+02 -0.45032836870E+03  0.45724457738E+03  0.47000000000E+01 0.  1.
         11    1    4    4    0    0 -0.14084859206E+02  0.30901680639E+01 -0.20681286442E+01  0.14567414101E+02  0.00000000000E+00 0. -1.
        -12    1    4    4    0    0 -0.32748771484E+02  0.61151803322E+02 -0.30838182767E+03  0.31608760925E+03  0.00000000000E+00 0.  1.
</event>
<event>
12    1  0.8313893E-002  0.1890790E+03  0.7818608E-02  0.1159837E+00
         21   -1    0    0  501  502  0.00000000000E+00  0.00000000000E+00  0.12043073077E+04  0.12043073077E+04  0.00000000000E+00 0.  1.
         21   -1    0    0  502  503 -0.00000000000E+00 -0.00000000000E+00 -0.40562736993E+02  0.40562736993E+02  0.00000000000E+00 0.  1.
         -6    2    1    2    0  503 -0.15807268239E+02 -0.78854705448E+02  0.25144871858E+03  0.31318631495E+03  0.16849710826E+03 0.  0.
        -24    2    3    3    0    0 -0.62005004409E+01  0.14697652283E+02  0.17079311891E+03  0.18920345572E+03  0.79832267912E+02 0.  0.
          6    2    1    2  501    0  0.15807268239E+02  0.78854705448E+02  0.91229585214E+03  0.93168372976E+03  0.17112251801E+03 0.  0.
         24    2    5    5    0    0  0.34588285721E+02  0.86096393484E+02  0.89823806598E+03  0.90668612958E+03  0.81481138387E+02 0.  0.
          5    1    5    5  501    0 -0.18781017482E+02 -0.72416880356E+01  0.14057786161E+02  0.24997600185E+02  0.47000000000E+01 0. -1.
        -13    1    6    6    0    0 -0.14300741905E+02 -0.18698452569E+01  0.27473290025E+03  0.27511120301E+03  0.00000000000E+00 0.  1.
         14    1    6    6    0    0  0.48889027625E+02  0.87966238740E+02  0.62350516573E+03  0.63157492657E+03  0.00000000000E+00 0. -1.
         -5    1    3    3    0  503 -0.96067677976E+01 -0.93552357730E+02  0.80655599676E+02  0.12398285923E+03  0.47000000000E+01 0.  1.
         11    1    4    4    0    0 -0.95194442775E+01  0.46627918174E+02  0.82317995264E+02  0.95084356846E+02  0.00000000000E+00 0. -1.
        -12    1    4    4    0    0  0.33189438366E+01 -0.31930265892E+02  0.88475123644E+02  0.94119098869E+02  0.00000000000E+00 0.  1.
</event>
<event>
12    1  0.8313893E-002  0.2096134E+03  0.7818608E-02  0.1142540E+00
         21   -1    0    0  501  502  0.00000000000E+00  0.00000000000E+00  0.18917993809E+02  0.18917993809E+02  0.00000000000E+00 0.  1.
         21   -1    0    0  502  503 -0.00000000000E+00 -0.00000000000E+00 -0.23973794354E+04  0.23973794354E+04  0.00000000000E+00 0. -1.
         -6    2    1    2    0  503 -0.28855065882E+02 -0.11083593263E+03 -0.14408422418E+04  0.14555333887E+04  0.17156299463E+03 0.  0.
        -24    2    3    3    0    0 -0.37113609479E+02 -0.95713378603E+02 -0.57689185418E+03  0.59139841230E+03  0.80058727258E+02 0.  0.
          6    2    1    2  501    0  0.28855065882E+02  0.11083593263E+03 -0.93761919975E+03  0.96076404045E+03  0.17555785057E+03 0.  0.
         24    2    5    5    0    0 -0.42172971715E+02  0.54048622802E+02 -0.66841285502E+03  0.67657409213E+03  0.79227168449E+02 0.  0.
          5    1    5    5  501    0  0.71028037597E+02  0.56787309827E+02 -0.26920634473E+03  0.28418994832E+03  0.47000000000E+01 0. -1.
        -11    1    6    6    0    0 -0.49908263391E+02  0.43846308629E+02 -0.27345966685E+03  0.28141343772E+03  0.00000000000E+00 0.  1.
         12    1    6    6    0    0  0.77352916761E+01  0.10202314173E+02 -0.39495318817E+03  0.39516065441E+03  0.00000000000E+00 0. -1.
         -5    1    3    3    0  503  0.82585435967E+01 -0.15122554026E+02 -0.86395038762E+03  0.86413497641E+03  0.47000000000E+01 0.  1.
         13    1    4    4    0    0  0.14886204184E+02 -0.48717285019E+02 -0.35673365559E+03  0.36035243022E+03  0.00000000000E+00 0. -1.
        -14    1    4    4    0    0 -0.51999813663E+02 -0.46996093584E+02 -0.22015819858E+03  0.23104598208E+03  0.00000000000E+00 0.  1.
</event>
<event>
12    1  0.8313893E-002  0.2041024E+03  0.7818608E-02  0.1146560E+00
         21   -1    0    0  503  502  0.00000000000E+00  0.00000000000E+00  0.24480797882E+03  0.24480797882E+03  0.00000000000E+00 0. -1.
         21   -1    0    0  501  503 -0.00000000000E+00 -0.00000000000E+00 -0.16941039898E+03  0.16941039898E+03  0.00000000000E+00 0. -1.
          6    2    1    2  501    0 -0.10685048910E+03  0.28416032229E+02  0.30428449910E+02  0.20522070801E+03  0.17019151132E+03 0.  0.
         24    2    3    3    0    0  0.26062695579E+01  0.25071267061E+02  0.54707415620E+02  0.92955274128E+02  0.70798450487E+02 0.  0.
         -6    2    1    2    0  502  0.10685048910E+03 -0.28416032229E+02  0.44969129932E+02  0.20899766979E+03  0.17156137509E+03 0.  0.
        -24    2    5    5    0    0  0.58460850294E+02 -0.75233159166E+02  0.62138676480E+02  0.13935369053E+03  0.80501780696E+02 0.  0.
          5    1    3    3  501    0 -0.10945675866E+03  0.33447651682E+01 -0.24278965710E+02  0.11226543389E+03  0.47000000000E+01 0. -1.
        -13    1    4    4    0    0  0.17633117706E+01 -0.12574862661E+02  0.53811168986E+02  0.55289043643E+02  0.00000000000E+00 0.  1.
         14    1    4    4    0    0  0.84295778731E+00  0.37646129722E+02  0.89624663386E+00  0.37666230485E+02  0.00000000000E+00 0. -1.
         -5    1    5    5    0  502  0.48389638804E+02  0.46817126936E+02 -0.17169546548E+02  0.69643979257E+02  0.47000000000E+01 0.  1.
         13    1    6    6    0    0 -0.13584422806E+02 -0.28622059163E+02 -0.27086026551E+01  0.31797725422E+02  0.00000000000E+00 0. -1.
        -14    1    6    6    0    0  0.72045273100E+02 -0.46611100003E+02  0.64847279135E+02  0.10755596511E+03  0.00000000000E+00 0.  1.
</event>
<event>
12    1  0.8313893E-002  0.1952414E+03  0.7818608E-02  0.1154137E+00
         21   -1    0    0  503  502  0.00000000000E+00  0.00000000000E+00  0.13367570340E+03  0.13367570340E+03  0.00000000000E+00 0.  1.
         21   -1    0    0  501  503 -0.00000000000E+00 -0.00000000000E+00 -0.57278738339E+03  0.57278738339E+03  0.00000000000E+00 0.  1.
          6    2    1    2  501    0 -0.86412893984E+02 -0.23968941235E+02 -0.47119965065E+03  0.51004736869E+03  0.17342868604E+03 0.  0.
         24    2    3    3    0    0 -0.87536386129E+02 -0.75749458445E+02 -0.30415134934E+03  0.33509106223E+03  0.79858483154E+02 0.  0.
         -6    2    1    2    0  502  0.86412893984E+02  0.23968941235E+02  0.32087970662E+02  0.19641571811E+03  0.17177833993E+03 0.  0.
        -24    2    5    5    0    0  0.11145339631E+03 -0.30105092676E+02  0.16122270518E+02  0.13454471132E+03  0.67187614799E+02 0.  0.
          5    1    3    3  501    0  0.11234921448E+01  0.51780517211E+02 -0.16704830131E+03  0.17495630646E+03  0.47000000000E+01 0. -1.
        -11    1    4    4    0    0 -0.28521597348E+02 -0.84218159345E+01 -0.17759429409E+03  0.18006704805E+03  0.00000000000E+00 0.  1.
         12    1    4    4    0    0 -0.59014788781E+02 -0.67327642511E+02 -0.12655705525E+03  0.15502401419E+03  0.00000000000E+00 0. -1.
         -5    1    5    5    0  502 -0.25040502328E+02  0.54074033910E+02  0.15965700144E+02  0.61871006790E+02  0.47000000000E+01 0.  1.
         11    1    6    6    0    0 -0.53285902959E+01  0.87814912814E+01  0.33181666171E+01  0.10794382491E+02  0.00000000000E+00 0. -1.
        -12    1    6    6    0    0  0.11678198661E+03 -0.38886583957E+02  0.12804103901E+02  0.12375032883E+03  0.00000000000E+00 0.  1.
</event>
<event>
12    1  0.8313893E-002  0.2314657E+03  0.7818608E-02  0.1125721E+00
         21   -1    0    0  503  502  0.00000000000E+00  0.00000000000E+00  0.15277337205E+04  0.15277337205E+04  0.00000000000E+00 0. -1.
         21   -1    0    0  501  503 -0.00000000000E+00 -0.00000000000E+00 -0.45024271348E+02  0.45024271348E+02  0.00000000000E+00 0.  1.
          6    2    1    2  501    0  0.14211014868E+03  0.62434407676E+02  0.11136324484E+04  0.11374328980E+04  0.17170619597E+03 0.  0.
         24    2    3    3    0    0  0.12148430182E+03  0.64528518700E+02  0.52520401282E+03  0.54862059799E+03  0.78885614291E+02 0.  0.
         -6    2    1    2    0  502 -0.14211014868E+03 -0.62434407676E+02  0.36907700078E+03  0.43532509386E+03  0.17087058033E+03 0.  0.
        -24    2    5    5    0    0 -0.92595021739E+02 -0.10803433834E+03  0.26706125866E+03  0.31301236717E+03  0.80061038027E+02 0.  0.
          5    1    3    3  501    0  0.20625846856E+02 -0.20941110240E+01  0.58842843557E+03  0.58881230001E+03  0.47000000000E+01 0. -1.
        -11    1    4    4    0    0  0.15700919433E+02 -0.14356025277E+02  0.34931505066E+02  0.40900175782E+02  0.00000000000E+00 0.  1.
         12    1    4    4    0    0  0.10578338239E+03  0.78884543977E+02  0.49027250775E+03  0.50772042221E+03  0.00000000000E+00 0. -1.
         -5    1    5    5    0  502 -0.49515126936E+02  0.45599930662E+02  0.10201574212E+03  0.12231272670E+03  0.47000000000E+01 0.  1.
         11    1    6    6    0    0 -0.20149274789E+02  0.94932225132E+01  0.19724878987E+02  0.29752065462E+02  0.00000000000E+00 0. -1.
        -12    1    6    6    0    0 -0.72445746950E+02 -0.11752756085E+03  0.24733637967E+03  0.28326030170E+03  0.00000000000E+00 0.  1.
</event>
<event>
12    1  0.8313893E-002  0.2302386E+03  0.7818608E-02  0.1126669E+00
         21   -1    0    0  501  502  0.00000000000E+00  0.00000000000E+00  0.25352845883E+04  0.25352845883E+04  0.00000000000E+00 0. -1.
         21   -1    0    0  502  503 -0.00000000000E+00 -0.00000000000E+00 -0.23655571708E+02  0.23655571708E+02  0.00000000000E+00 0.  1.
         -6    2    1    2    0  503 -0.72331545277E+02 -0.13201316890E+03  0.81455067345E+03  0.84646477084E+03  0.17421388994E+03 0.  0.
        -24    2    3    3    0    0 -0.52123344019E+02  0.28326697613E+01  0.33312097746E+03  0.34607650780E+03  0.77939057086E+02 0.  0.
          6    2    1    2  501    0  0.72331545277E+02  0.13201316890E+03  0.16970783431E+04  0.17124753892E+04  0.17273600245E+03 0.  0.
         24    2    5    5    0    0  0.88869738195E+02  0.77732192654E+02  0.73232794598E+03  0.74604621172E+03  0.79627918548E+02 0.  0.
          5    1    5    5  501    0 -0.16538192918E+02  0.54280976245E+02  0.96475039714E+03  0.96642917743E+03  0.47000000000E+01 0. -1.
        -13    1    6    6    0    0 -0.69112739872E+01 -0.80947911357E+01  0.25816978953E+02  0.27925038118E+02  0.00000000000E+00 0.  1.
         14    1    6    6    0    0  0.95781012183E+02  0.85826983790E+02  0.70651096703E+03  0.71812117360E+03  0.00000000000E+00 0. -1.
         -5    1    3    3    0  503 -0.20208201258E+02 -0.13484583866E+03  0.48142969599E+03  0.50038826303E+03  0.47000000000E+01 0.  1.
         11    1    4    4    0    0 -0.62966350494E+02 -0.98595428951E+01  0.31522516380E+03  0.32160360037E+03  0.00000000000E+00 0. -1.
        -12    1    4    4    0    0  0.10843006474E+02  0.12692212656E+02  0.17895813662E+02  0.24472907432E+02  0.00000000000E+00 0.  1.
</event>
<event>
12    1  0.8313893E-002  0.1749739E+03  0.7818608E-02  0.1173904E+00
         21   -1    0    0  503  502  0.00000000000E+00  0.00000000000E+00  0.66797011849E+02  0.66797011849E+02  0.00000000000E+00 0. -1.
         21   -1    0    0  501  503 -0.00000000000E+00 -0.00000000000E+00 -0.55954293709E+03  0.55954293709E+03  0.00000000000E+00 0. -1.
          6    2    1    2  501    0 -0.11727882581E+02  0.26657986471E+02 -0.38961208170E+03  0.42709885639E+03  0.17253309088E+03 0.  0.
         24    2    3    3    0    0 -0.54219717161E+02  0.66691276587E+02 -0.26485365613E+03  0.28927659739E+03  0.78396342598E+02 0.  0.
         -6    2    1    2    0  502  0.11727882581E+02 -0.26657986471E+02 -0.10313384354E+03  0.19924109255E+03  0.16796497196E+03 0.  0.
        -24    2    5    5    0    0 -0.10437831723E+02 -0.40342152344E+02  0.38172929561E+01  0.89063005417E+02  0.78620669175E+02 0.  0.
          5    1    3    3  501    0  0.42491834580E+02 -0.40033290117E+02 -0.12475842557E+03  0.13782225900E+03  0.47000000000E+01 0. -1.
        -13    1    4    4    0    0 -0.70626165893E+00  0.12352639358E+02  0.12725984040E+01  0.12438087126E+02  0.00000000000E+00 0.  1.
         14    1    4    4    0    0 -0.53513455502E+02  0.54338637229E+02 -0.26612625453E+03  0.27683851027E+03  0.00000000000E+00 0. -1.
         -5    1    5    5    0  502  0.22165714305E+02  0.13684165874E+02 -0.10695113649E+03  0.11017808713E+03  0.47000000000E+01 0.  1.
         13    1    6    6    0    0  0.13233259011E+02 -0.17366868906E+02  0.36560470628E+02  0.42583979290E+02  0.00000000000E+00 0. -1.
        -14    1    6    6    0    0 -0.23671090735E+02 -0.22975283438E+02 -0.32743177672E+02  0.46479026126E+02  0.00000000000E+00 0.  1.
</event>
<event>
12    1  0.8313893E-002  0.1985665E+03  0.7818608E-02  0.1151106E+00
         21   -1    0    0  503  502  0.00000000000E+00  0.00000000000E+00  0.72652558618E+03  0.72652558618E+03  0.00000000000E+00 0.  1.
         21   -1    0    0  501  503 -0.00000000000E+00 -0.00000000000E+00 -0.61625998707E+02  0.61625998707E+02  0.00000000000E+00 0. -1.
          6    2    1    2  501    0 -0.81175452376E+02  0.56082992287E+02  0.19398908838E+03  0.27708863739E+03  0.17149807716E+03 0.  0.
         24    2    3    3    0    0 -0.63649998701E+02  0.10293551563E+03  0.11454030392E+03  0.18308597880E+03  0.75854806685E+02 0.  0.
         -6    2    1    2    0  502  0.81175452376E+02 -0.56082992287E+02  0.47091049909E+03  0.51106294750E+03  0.17231912852E+03 0.  0.
        -24    2    5    5    0    0  0.11881436205E+03 -0.60647501889E+02  0.33189758190E+03  0.36689567168E+03  0.81617748753E+02 0.  0.
          5    1    3    3  501    0 -0.17525453675E+02 -0.46852523348E+02  0.79448784460E+02  0.94002658594E+02  0.47000000000E+01 0. -1.
        -13    1    4    4    0    0 -0.40130491092E+02  0.47657028218E+02  0.10523595973E+03  0.12229577211E+03  0.00000000000E+00 0.  1.
         14    1    4    4    0    0 -0.23519507609E+02  0.55278487417E+02  0.93043441888E+01  0.60790206695E+02  0.00000000000E+00 0. -1.
         -5    1    5    5    0  502 -0.37638909676E+02  0.45645096021E+01  0.13901291720E+03  0.14416727582E+03  0.47000000000E+01 0.  1.
         11    1    6    6    0    0  0.66362625821E+02 -0.76790156382E+02  0.21311341240E+03  0.23604671734E+03  0.00000000000E+00 0. -1.
        -12    1    6    6    0    0  0.52451736231E+02  0.16142654493E+02  0.11878416950E+03  0.13084895434E+03  0.00000000000E+00 0.  1.
</event>
<event>
12    1  0.8313893E-002  0.1906801E+03  0.7818608E-02  0.1157898E+00
         21   -1    0    0  501  502  0.00000000000E+00  0.00000000000E+00  0.19056036892E+03  0.19056036892E+03  0.00000000000E+00 0.  1.
         21   -1    0    0  502  503 -0.00000000000E+00 -0.00000000000E+00 -0.27473846251E+03  0.27473846251E+03  0.00000000000E+00 0.  1.
         -6    2    1    2    0  503 -0.43479117173E+02  0.68833624917E+02 -0.17083174007E+03  0.25585252676E+03  0.17218748644E+03 0.  0.
        -24    2    3    3    0    0 -0.26867467740E+02  0.10015993983E+03 -0.17631646622E+03  0.21966610494E+03  0.80073884809E+02 0.  0.
          6    2    1    2  501    0  0.43479117173E+02 -0.68833624917E+02  0.86653646484E+02  0.20944630467E+03  0.17242505196E+03 0.  0.
         24    2    5    5    0    0  0.13413110936E+01 -0.61007772682E+02 -0.10670346008E+02  0.10299965992E+03  0.82288068497E+02 0.  0.
          5    1    5    5  501    0  0.42137806080E+02 -0.78258522349E+01  0.97323992492E+02  0.10644664475E+03  0.47000000000E+01 0. -1.
        -11    1    6    6    0    0  0.19215710903E+02 -0.21781957115E+02  0.31394193220E+02  0.42770229941E+02  0.00000000000E+00 0.  1.
         12    1    6    6    0    0 -0.17874399809E+02 -0.39225815567E+02 -0.42064539227E+02  0.60229429981E+02  0.00000000000E+00 0. -1.
         -5    1    3    3    0  503 -0.16611649433E+02 -0.31326314917E+02  0.54847261516E+01  0.36186421820E+02  0.47000000000E+01 0.  1.
         11    1    4    4    0    0  0.83107511392E+01  0.11658866314E+02  0.47466903610E+01  0.15084058393E+02  0.00000000000E+00 0. -1.
        -12    1    4    4    0    0 -0.35178218879E+02  0.88501073521E+02 -0.18106315658E+03  0.20458204655E+03  0.00000000000E+00 0.  1.
</event>
<event>
12    1  0.8313893E-002  0.1868893E+03  0.7818608E-02  0.1162120E+00
         21   -1    0    0  503  502  0.00000000000E+00  0.00000000000E+00  0.31344512119E+03  0.31344512119E+03  0.00000000000E+00 0. -1.
         21   -1    0    0  501  503 -0.00000000000E+00 -0.00000000000E+00 -0.22367484079E+03  0.22367484079E+03  0.00000000000E+00 0. -1.
          6    2    1    2  501    0 -0.71296052060E+02 -0.10486764327E+02 -0.14733488253E+03  0.23521522384E+03  0.16859873858E+03 0.  0.
         24    2    3    3    0    0 -0.11282234604E+03 -0.18550181465E+02 -0.97696060025E+02  0.16982749955E+03  0.78891498028E+02 0.  0.
         -6    2    1    2    0  502  0.71296052060E+02  0.10486764327E+02  0.23710516293E+03  0.30190473815E+03  0.17243698375E+03 0.  0.
        -24    2    5    5    0    0 -0.21997160702E+02  0.35273999649E+02  0.12417663862E+03  0.15326768965E+03  0.79643059854E+02 0.  0.
          5    1    3    3  501    0  0.41526293981E+02  0.80634171387E+01 -0.49638822504E+02  0.65387724287E+02  0.47000000000E+01 0. -1.
        -11    1    4    4    0    0 -0.60892822950E+02 -0.48978894819E+02 -0.62815152452E+02  0.10026271192E+03  0.00000000000E+00 0.  1.
         12    1    4    4    0    0 -0.51929523091E+02  0.30428713353E+02 -0.34880907574E+02  0.69564787630E+02  0.00000000000E+00 0. -1.
         -5    1    5    5    0  502  0.93293212761E+02 -0.24787235323E+02  0.11292852431E+03  0.14863704849E+03  0.47000000000E+01 0.  1.
         13    1    6    6    0    0 -0.21890671815E+02 -0.22872776211E+02  0.45760490067E+02  0.55645196156E+02  0.00000000000E+00 0. -1.
        -14    1    6    6    0    0 -0.10648888671E+00  0.58146775861E+02  0.78416148553E+02  0.97622493498E+02  0.00000000000E+00 0.  1.
</event>
<event>
12    1  0.8313893E-002  0.2285770E+03  0.7818608E-02  0.1127692E+00
         21   -1    0    0  503  502  0.00000000000E+00  0.00000000000E+00  0.26200770868E+03  0.26200770868E+03  0.00000000000E+00 0.  1.
         21   -1    0    0  501  503 -0.00000000000E+00 -0.00000000000E+00 -0.38727170721E+03  0.38727170721E+03  0.00000000000E+00 0.  1.
          6    2    1    2  501    0  0.97916249820E+01  0.14941268900E+03 -0.28889431300E+03  0.36838481075E+03  0.17270615843E+03 0.  0.
         24    2    3    3    0    0 -0.47932032141E+02  0.10138725040E+03 -0.24541523898E+03  0.28148841715E+03  0.80188747442E+02 0.  0.
         -6    2    1    2    0  502 -0.97916249820E+01 -0.14941268900E+03  0.16363031446E+03  0.28089460514E+03  0.17235681545E+03 0.  0.
        -24    2    5    5    0    0 -0.72771806250E+02 -0.10633643796E+03  0.10827353339E+03  0.18650959655E+03  0.80371000669E+02 0.  0.
          5    1    3    3  501    0  0.57723657123E+02  0.48025438599E+02 -0.43479074019E+02  0.86896393606E+02  0.47000000000E+01 0. -1.
        -13    1    4    4    0    0 -0.39193020277E+02  0.29838185060E+02 -0.38934262258E+02  0.62787633366E+02  0.00000000000E+00 0.  1.
         14    1    4    4    0    0 -0.87390118644E+01  0.71549065343E+02 -0.20648097672E+03  0.21870078378E+03  0.00000000000E+00 0. -1.
         -5    1    5    5    0  502  0.62980181268E+02 -0.43076251043E+02  0.55356781067E+02  0.94385008591E+02  0.47000000000E+01 0.  1.
         11    1    6    6    0    0 -0.54292867205E+02 -0.29379448497E+02  0.13782408904E+02  0.63252053078E+02  0.00000000000E+00 0. -1.
        -12    1    6    6    0    0 -0.18478939045E+02 -0.76956989461E+02  0.94491124488E+02  0.12325754347E+03  0.00000000000E+00 0.  1.
</event>
<event>
12    1  0.8313893E-002  0.2117111E+03  0.7818608E-02  0.1140406E+00
         21   -1    0    0  501  502  0.00000000000E+00  0.00000000000E+00  0.13148317626E+04  0.13148317626E+04  0.00000000000E+00 0. -1.
         21   -1    0    0  502  503 -0.00000000000E+00 -0.00000000000E+00 -0.42739441296E+02  0.42739441296E+02  0.00000000000E+00 0. -1.
         -6    2    1    2    0  503  0.25743433369E+02 -0.11990714392E+03  0.32911102623E+03  0.39132549600E+03  0.17257209713E+03 0.  0.
        -24    2    3    3    0    0  0.84511627832E+02 -0.51793082689E+02  0.16605755212E+03  0.20504143486E+03  0.68133257201E+02 0.  0.
          6    2    1    2  501    0 -0.25743433369E+02  0.11990714392E+03  0.94298129511E+03  0.96624570793E+03  0.17139602578E+03 0.  0.
         24    2    5    5    0    0  0.24897882303E+02  0.12044015117E+02  0.43222852874E+03  0.44175597900E+03  0.86959077036E+02 0.  0.
          5    1    5    5  501    0 -0.50641315672E+02  0.10786312880E+03  0.51075276637E+03  0.52448972894E+03  0.47000000000E+01 0. -1.
        -11    1    6    6    0    0  0.14907288583E+02 -0.31408349939E+02  0.30431627068E+03  0.30629577910E+03  0.00000000000E+00 0.  1.
         12    1    6    6    0    0  0.99905937207E+01  0.43452365056E+02  0.12791225806E+03  0.13546019989E+03  0.00000000000E+00 0. -1.
         -5    1    3    3    0  503 -0.58768194463E+02 -0.68114061229E+02  0.16305347411E+03  0.18628406114E+03  0.47000000000E+01 0.  1.
         13    1    4    4    0    0  0.83848615811E+02 -0.51710059493E+02  0.10498992810E+03  0.14397015534E+03  0.00000000000E+00 0. -1.
        -14    1    4    4    0    0  0.66301202153E+00 -0.83023195461E-01  0.61067624022E+02  0.61071279514E+02  0.00000000000E+00 0.  1.
</event>
<event>
12    1  0.8313893E-002  0.2083661E+03  0.7818608E-02  0.1143442E+00
         21   -1    0    0  503  502  0.00000000000E+00  0.00000000000E+00  0.17400738100E+03  0.17400738100E+03  0.00000000000E+00 0. -1.
         21   -1    0    0  501  503 -0.00000000000E+00 -0.00000000000E+00 -0.36505012547E+03  0.36505012547E+03  0.00000000000E+00 0. -1.
          6    2    1    2  501    0  0.85285906759E+02 -0.81443335827E+02 -0.24892956949E+03  0.32279994424E+03  0.16830677523E+03 0.  0.
         24    2    3    3    0    0  0.58837232259E+01 -0.20304915181E+02 -0.41080248823E+02  0.92005569668E+02  0.79564629246E+02 0.  0.
         -6    2    1    2    0  502 -0.85285906759E+02  0.81443335827E+02  0.57886825025E+02  0.21625756223E+03  0.17178400935E+03 0.  0.
        -24    2    5    5    0    0 -0.49057726028E+02  0.37963491173E+02 -0.35770898909E+02  0.10672748772E+03  0.79141090981E+02 0.  0.
          5    1    3    3  501    0  0.79402183533E+02 -0.61138420646E+02 -0.20784932067E+03  0.23079437457E+03  0.47000000000E+01 0. -1.
        -13    1    4    4    0    0  0.42524986219E+02 -0.11082850823E+02 -0.16557448502E+02  0.46961187551E+02  0.00000000000E+00 0.  1.
         14    1    4    4    0    0 -0.36641262993E+02 -0.92220643579E+01 -0.24522800321E+02  0.45044382117E+02  0.00000000000E+00 0. -1.
         -5    1    5    5    0  502 -0.36228180732E+02  0.43479844654E+02  0.93657723934E+02  0.10953007451E+03  0.47000000000E+01 0.  1.
         13    1    6    6    0    0 -0.19129250324E+02  0.60220916171E+02 -0.24421486775E+02  0.67741390440E+02  0.00000000000E+00 0. -1.
        -14    1    6    6    0    0 -0.29928475704E+02 -0.22257424998E+02 -0.11349412134E+02  0.38986097282E+02  0.00000000000E+00 0.  1.
</event>
<event>
12    1  0.8313893E-002  0.2197501E+03  0.7818608E-02  0.1134201E+00
         21   -1    0    0  503  502  0.00000000000E+00  0.00000000000E+00  0.48896999849E+02  0.48896999849E+02  0.00000000000E+00 0.  1.
         21   -1    0    0  501  503 -0.00000000000E+00 -0.00000000000E+00 -0.99301762434E+03  0.99301762434E+03  0.00000000000E+00 0.  1.
          6    2    1    2  501    0 -0.87995862391E+02 -0.10539812984E+03 -0.42285976958E+03  0.47622657296E+03  0.17067315691E+03 0.  0.
         24    2    3    3    0    0 -0.14589112923E+02 -0.29724571669E+02 -0.30761867200E+03  0.31996512907E+03  0.81560064250E+02 0.  0.
         -6    2    1    2    0  502  0.87995862391E+02  0.10539812984E+03 -0.52126085492E+03  0.56568805124E+03  0.17157521637E+03 0.  0.
        -24    2    5    5    0    0  0.88140979483E+02  0.41503705113E+01 -0.28040750066E+03  0.30437682284E+03  0.78935581440E+02 0.  0.
          5    1    3    3  501    0 -0.73406749468E+02 -0.75673558176E+02 -0.11524109758E+03  0.15626144389E+03  0.47000000000E+01 0. -1.
        -13    1    4    4    0    0  0.44198309160E+01 -0.55649134111E+02 -0.18976343565E+03  0.19780425310E+03  0.00000000000E+00 0.  1.
         14    1    4    4    0    0 -0.19008943839E+02  0.25924562443E+02 -0.11785523635E+03  0.12216087597E+03  0.00000000000E+00 0. -1.
         -5    1    5    5    0  502 -0.14511709182E+00  0.10124775933E+03 -0.24085335426E+03  0.26131122840E+03  0.47000000000E+01 0.  1.
         13    1    6    6    0    0  0.85662991291E+02 -0.12068257996E+01 -0.14199011611E+03  0.16583364429E+03  0.00000000000E+00 0. -1.
        -14    1    6    6    0    0  0.24779881913E+01  0.53571963109E+01 -0.13841738454E+03  0.13854317855E+03  0.00000000000E+00 0.  1.
</event>
<event>
12    1  0.8313893E-002  0.1938841E+03  0.7818608E-02  0.1155492E+00
         21   -1    0    0  501  502  0.00000000000E+00  0.00000000000E+00  0.37745704561E+03  0.37745704561E+03  0.00000000000E+00 0. -1.
         21   -1    0    0  502  503 -0.00000000000E+00 -0.00000000000E+00 -0.99065763590E+02  0.99065763590E+02  0.00000000000E+00 0. -1.
         -6    2    1    2    0  503 -0.84146723373E+02 -0.11069537289E+02  0.15864001159E+03  0.25051488834E+03  0.17432111259E+03 0.  0.
        -24    2    3    3    0    0  0.21024060829E+02  0.19174396394E+02  0.66181573659E+02  0.10717528419E+03  0.79352833842E+02 0.  0.
          6    2    1    2  501    0  0.84146723373E+02  0.11069537289E+02  0.11975127044E+03  0.22600792086E+03  0.17186043119E+03 0.  0.
         24    2    5    5    0    0  0.70551474026E+02 -0.16371911831E+02  0.51992855466E+01  0.10733984943E+03  0.79052265757E+02 0.  0.
          5    1    5    5  501    0  0.13595249347E+02  0.27441449120E+02  0.11455198489E+03  0.11866807143E+03  0.47000000000E+01 0. -1.
        -11    1    6    6    0    0  0.59582883218E+02 -0.77944281876E+01 -0.31672445590E+02  0.67926555138E+02  0.00000000000E+00 0.  1.
         12    1    6    6    0    0  0.10968590808E+02 -0.85774836434E+01  0.36871731136E+02  0.39413294292E+02  0.00000000000E+00 0. -1.
         -5    1    3    3    0  503 -0.10517078420E+03 -0.30243933683E+02  0.92458437927E+02  0.14333960415E+03  0.47000000000E+01 0.  1.
         11    1    4    4    0    0  0.17639796610E+00  0.35520221027E+02 -0.39365957383E+00  0.35522840341E+02  0.00000000000E+00 0. -1.
        -12    1    4    4    0    0  0.20847662863E+02 -0.16345824633E+02  0.66575233233E+02  0.71652443850E+02  0.00000000000E+00 0.  1.
</event>
<event>
12    1  0.8313893E-002  0.2198717E+03  0.7818608E-02  0.1134264E+00
         21   -1    0    0  503  502  0.00000000000E+00  0.00000000000E+00  0.39253006761E+03  0.39253006761E+03  0.00000000000E+00 0. -1.
         21   -1    0    0  501  503 -0.00000000000E+00 -0.00000000000E+00 -0.12242645303E+03  0.12242645303E+03  0.00000000000E+00 0.  1.
          6    2    1    2  501    0 -0.24749477994E+02 -0.13146556448E+03  0.14262921454E+03  0.26080442837E+03  0.17256919109E+03 0.  0.
         24    2    3    3    0    0  0.49545106871E+02 -0.52012121883E+02  0.60195500197E+02  0.12423963737E+03  0.81559860300E+02 0.  0.
         -6    2    1    2    0  502  0.24749477994E+02  0.13146556448E+03  0.12747440004E+03  0.25415209227E+03  0.17449307160E+03 0.  0.
        -24    2    5    5    0    0 -0.34168329954E+02  0.78941482901E+02  0.12998887295E+03  0.17504141149E+03  0.79643933560E+02 0.  0.
          5    1    3    3  501    0 -0.74294584865E+02 -0.79453442593E+02  0.82433714344E+02  0.13656479100E+03  0.47000000000E+01 0. -1.
        -11    1    4    4    0    0  0.64214943704E+02 -0.62790167151E+02  0.54977942280E+02  0.10530307794E+03  0.00000000000E+00 0.  1.
         12    1    4    4    0    0 -0.14669836833E+02  0.10778045268E+02  0.52175579171E+01  0.18936559432E+02  0.00000000000E+00 0. -1.
         -5    1    5    5    0  502  0.58917807948E+02  0.52524081575E+02 -0.25144729071E+01  0.79110680775E+02  0.47000000000E+01 0.  1.
         13    1    6    6    0    0 -0.19436386883E+02 -0.12147348618E+02  0.40302932831E+02  0.46364400226E+02  0.00000000000E+00 0. -1.
        -14    1    6    6    0    0 -0.14731943071E+02  0.91088831519E+02  0.89685940118E+02  0.12867701127E+03  0.00000000000E+00 0.  1.
</event>
<event>
12    1  0.8313893E-002  0.2369820E+03  0.7818608E-02  0.1122273E+00
         21   -1    0    0  501  502  0.00000000000E+00  0.00000000000E+00  0.10042986146E+03  0.10042986146E+03  0.00000000000E+00 0. -1.
         21   -1    0    0  502  503 -0.00000000000E+00 -0.00000000000E+00 -0.10009508365E+04  0.10009508365E+04  0.00000000000E+00 0. -1.
         -6    2    1    2    0  503  0.56173654543E+02  0.14569373999E+03 -0.81727409308E+03  0.85020241742E+03  0.17471422961E+03 0.  0.
        -24    2    3    3    0    0  0.71318513663E+02  0.17306971174E+03 -0.73653658318E+03  0.76348767766E+03  0.73401907761E+02 0.  0.
          6    2    1    2  501    0 -0.56173654543E+02 -0.14569373999E+03 -0.83246881996E+02  0.25117828057E+03  0.17826480284E+03 0.  0.
         24    2    5    5    0    0 -0.82897236515E+02 -0.90076322257E+02  0.18803321720E+01  0.14593485046E+03  0.79421340190E+02 0.  0.
          5    1    5    5  501    0  0.26723581972E+02 -0.55617417733E+02 -0.85127214168E+02  0.10524343011E+03  0.47000000000E+01 0. -1.
        -11    1    6    6    0    0 -0.52592443281E+02 -0.22924099451E+01 -0.45899252964E+01  0.52842101092E+02  0.00000000000E+00 0.  1.
         12    1    6    6    0    0 -0.30304793234E+02 -0.87783912312E+02  0.64702574684E+01  0.93092749371E+02  0.00000000000E+00 0. -1.
         -5    1    3    3    0  503 -0.15144859120E+02 -0.27375971746E+02 -0.80737509903E+02  0.86714739763E+02  0.47000000000E+01 0.  1.
         13    1    4    4    0    0  0.64619833256E+02  0.86533931348E+02 -0.31182284539E+03  0.32999595608E+03  0.00000000000E+00 0. -1.
        -14    1    4    4    0    0  0.66986804072E+01  0.86535780389E+02 -0.42471373779E+03  0.43349172158E+03  0.00000000000E+00 0.  1.
</event>
<event>
12    1  0.8313893E-002  0.1800758E+03  0.7818608E-02  0.1169060E+00
         21   -1    0    0  501  502  0.00000000000E+00  0.00000000000E+00  0.88108712441E+03  0.88108712441E+03  0.00000000000E+00 0.  1.
         21   -1    0    0  502  503 -0.00000000000E+00 -0.00000000000E+00 -0.83683815352E+02  0.83683815352E+02  0.00000000000E+00 0.  1.
         -6    2    1    2    0  503 -0.43796386850E+02  0.19163918740E+02  0.30869078055E+02  0.17736886861E+03  0.16799236974E+03 0.  0.
        -24    2    3    3    0    0 -0.89938413376E+02  0.47073466928E+01  0.40406863722E+02  0.12785989525E+03  0.81267218884E+02 0.  0.
          6    2    1    2  501    0  0.43796386850E+02 -0.19163918740E+02  0.76653423100E+03  0.78740207115E+03  0.17361427093E+03 0.  0.
         24    2    5    5    0    0  0.68009392353E+02  0.17640936874E+02  0.69297424985E+03  0.70152991118E+03  0.83632680279E+02 0.  0.
          5    1    5    5  501    0 -0.24213005503E+02 -0.36804855615E+02  0.73559981147E+02  0.85872159975E+02  0.47000000000E+01 0. -1.
        -11    1    6    6    0    0  0.48694984744E+01 -0.27947421177E+02  0.26629048846E+03  0.26779730134E+03  0.00000000000E+00 0.  1.
         12    1    6    6    0    0  0.63139893878E+02  0.45588358051E+02  0.42668376140E+03  0.43373260983E+03  0.00000000000E+00 0. -1.
         -5    1    3    3    0  503  0.46142026526E+02  0.14456572047E+02 -0.95377856677E+01  0.49508973356E+02  0.47000000000E+01 0.  1.
         11    1    4    4    0    0 -0.68792644398E+02  0.32844320397E+02  0.50261439141E+02  0.91309307139E+02  0.00000000000E+00 0. -1.
        -12    1    4    4    0    0 -0.21145768978E+02 -0.28136973704E+02 -0.98545754186E+01  0.36550588115E+02  0.00000000000E+00 0.  1.
</event>
<event>
12    1  0.8313893E-002  0.2146605E+03  0.7818608E-02  0.1138185E+00
         21   -1    0    0  503  502  0.00000000000E+00  0.00000000000E+00  0.21725753182E+03  0.21725753182E+03  0.00000000000E+00 0. -1.
         21   -1    0    0  501  503 -0.00000000000E+00 -0.00000000000E+00 -0.25440472665E+03  0.25440472665E+03  0.00000000000E+00 0. -1.
          6    2    1    2  501    0  0.31752514934E+02 -0.12437442878E+03 -0.11628096341E+03  0.24413194696E+03  0.17205209774E+03 0.  0.
         24    2    3    3    0    0  0.40726870449E+01  0.67832067207E+01 -0.38821260576E+02  0.89242974515E+02  0.79966365144E+02 0.  0.
         -6    2    1    2    0  502 -0.31752514934E+02  0.12437442878E+03  0.79133768584E+02  0.22753031151E+03  0.17038388594E+03 0.  0.
        -24    2    5    5    0    0  0.32306755253E+02  0.90626909434E+02  0.36976210924E+01  0.12286327990E+03  0.76320049767E+02 0.  0.
          5    1    3    3  501    0  0.27679827889E+02 -0.13115763550E+03 -0.77459702838E+02  0.15488897245E+03  0.47000000000E+01 0. -1.
        -13    1    4    4    0    0 -0.34209424931E+02  0.46017384522E+01 -0.37368758236E+02  0.50871257533E+02  0.00000000000E+00 0.  1.
         14    1    4    4    0    0  0.38282111976E+02  0.21814682686E+01 -0.14525023404E+01  0.38371716982E+02  0.00000000000E+00 0. -1.
         -5    1    5    5    0  502 -0.64059270187E+02  0.33747519347E+02  0.75436147491E+02  0.10466703162E+03  0.47000000000E+01 0.  1.
         11    1    6    6    0    0 -0.11250106487E+02  0.66480050310E+02  0.20219882122E+02  0.70391800788E+02  0.00000000000E+00 0. -1.
        -12    1    6    6    0    0  0.43556861740E+02  0.24146859124E+02 -0.16522261030E+02  0.52471479108E+02  0.00000000000E+00 0.  1.
</event>
<event>
12    1  0.8313893E-002  0.1973056E+03  0.7818608E-02  0.1152195E+00
         21   -1    0    0  501  502  0.00000000000E+00  0.00000000000E+00  0.22953125783E+03  0.22953125783E+03  0.00000000000E+00 0.  1.
         21   -1    0    0  502  503 -0.00000000000E+00 -0.00000000000E+00 -0.22071828514E+03  0.22071828514E+03  0.00000000000E+00 0.  1.
         -6    2    1    2    0  503 -0.49673111421E+02  0.80693737402E+02 -0.10462237704E+03  0.22265983278E+03  0.17219948345E+03 0.  0.
        -24    2    3    3    0    0 -0.76837261637E+02  0.13030691112E+01 -0.57718831668E+02  0.12641638190E+03  0.82121710394E+02 0.  0.
          6    2    1    2  501    0  0.49673111421E+02 -0.80693737402E+02  0.11343534973E+03  0.22758971020E+03  0.17306241754E+03 0.  0.
         24    2    5    5    0    0  0.14718159345E+02 -0.92805544020E+02  0.13698771878E+03  0.18348360379E+03  0.77917293004E+02 0.  0.
          5    1    5    5  501    0  0.34954952076E+02  0.12111806618E+02 -0.23552369050E+02  0.44106106403E+02  0.47000000000E+01 0. -1.
        -13    1    6    6    0    0  0.26877688943E+02 -0.23790722172E+02  0.81309858058E+01  0.36803825271E+02  0.00000000000E+00 0.  1.
         14    1    6    6    0    0 -0.12159529598E+02 -0.69014821847E+02  0.12885673297E+03  0.14667977852E+03  0.00000000000E+00 0. -1.
         -5    1    3    3    0  503  0.27164150217E+02  0.79390668291E+02 -0.46903545369E+02  0.96243450877E+02  0.47000000000E+01 0.  1.
         11    1    4    4    0    0  0.15134756853E+02 -0.11291535629E+02 -0.15530612522E+02  0.24449122013E+02  0.00000000000E+00 0. -1.
        -12    1    4    4    0    0 -0.91972018491E+02  0.12594604741E+02 -0.42188219146E+02  0.10196725989E+03  0.00000000000E+00 0.  1.
</event>
<event>
12    1  0.8313893E-002  0.2301837E+03  0.7818608E-02  0.1126793E+00
         21   -1    0    0  503  502  0.00000000000E+00  0.00000000000E+00  0.43470404266E+03  0.43470404266E+03  0.00000000000E+00 0.  1.
         21   -1    0    0  501  503 -0.00000000000E+00 -0.00000000000E+00 -0.47256477892E+03  0.47256477892E+03  0.00000000000E+00 0. -1.
          6    2    1    2  501    0  0.34454857040E+02  0.14587847974E+03 -0.41019590768E+03  0.47036709283E+03  0.17469073049E+03 0.  0.
         24    2    3    3    0    0 -0.16376267442E+02  0.13020685937E+03 -0.37811874458E+03  0.40807393676E+03  0.79552149538E+02 0.  0.
         -6    2    1    2    0  502 -0.34454857040E+02 -0.14587847974E+03  0.37233517142E+03  0.43690172875E+03  0.17257454241E+03 0.  0.
        -24    2    5    5    0    0  0.30660456614E+02 -0.25970278553E+02  0.14158763452E+03  0.16878888578E+03  0.82632383155E+02 0.  0.
          5    1    3    3  501    0  0.50831124482E+02  0.15671620372E+02 -0.32077163093E+02  0.62293156071E+02  0.47000000000E+01 0. -1.
        -13    1    4    4    0    0 -0.42381480564E+01 -0.90031794859E+01 -0.57090740862E+02  0.57951461000E+02  0.00000000000E+00 0.  1.
         14    1    4    4    0    0 -0.12138119386E+02  0.13921003885E+03 -0.32102800372E+03  0.35012247576E+03  0.00000000000E+00 0. -1.
         -5    1    5    5    0  502 -0.65115313654E+02 -0.11990820118E+03  0.23074753689E+03  0.26811284297E+03  0.47000000000E+01 0.  1.
         11    1    6    6    0    0  0.14858097769E+02  0.26894933959E+02  0.24310536608E+02  0.39180387085E+02  0.00000000000E+00 0. -1.
        -12    1    6    6    0    0  0.15802358845E+02 -0.52865212513E+02  0.11727709791E+03  0.12960849870E+03  0.00000000000E+00 0.  1.
</event>
<event>
12    1  0.8313893E-002  0.2125715E+03  0.7818608E-02  0.1139713E+00
         21   -1    0    0  501  502  0.00000000000E+00  0.00000000000E+00  0.82203762784E+03  0.82203762784E+03  0.00000000000E+00 0. -1.
         21   -1    0    0  502  503 -0.00000000000E+00 -0.00000000000E+00 -0.90413571796E+03  0.90413571796E+03  0.00000000000E+00 0. -1.
         -6    2    1    2    0  503  0.86090042326E+02  0.89887565573E+02 -0.87759148463E+03  0.90276799831E+03  0.17126580232E+03 0.  0.
        -24    2    3    3    0    0  0.71834693179E+02  0.12998328115E+03 -0.69210369322E+03  0.71240336885E+03  0.80344018192E+02 0.  0.
          6    2    1    2  501    0 -0.86090042326E+02 -0.89887565573E+02  0.79549339451E+03  0.82340534749E+03  0.17232340445E+03 0.  0.
         24    2    5    5    0    0 -0.64321125187E+02 -0.10128958472E+03  0.37443965358E+03  0.40160891016E+03  0.81779431532E+02 0.  0.
          5    1    5    5  501    0 -0.21768917139E+02  0.11402019151E+02  0.42105374093E+03  0.42179643733E+03  0.47000000000E+01 0. -1.
        -11    1    6    6    0    0 -0.34626287379E+02 -0.21544163662E+02  0.42362437556E+02  0.58802269354E+02  0.00000000000E+00 0.  1.
         12    1    6    6    0    0 -0.29694837809E+02 -0.79745421062E+02  0.33207721603E+03  0.34280664080E+03  0.00000000000E+00 0. -1.
         -5    1    3    3    0  503  0.14255349148E+02 -0.40095715574E+02 -0.18548779141E+03  0.19036462946E+03  0.47000000000E+01 0.  1.
         11    1    4    4    0    0  0.81695528001E+02  0.78902559866E+02 -0.40499691874E+03  0.42062129931E+03  0.00000000000E+00 0. -1.
        -12    1    4    4    0    0 -0.98608348223E+01  0.51080721281E+02 -0.28710677449E+03  0.29178206954E+03  0.00000000000E+00 0.  1.
</event>
<event>
12    1  0.8313893E-002  0.2107392E+03  0.7818608E-02  0.1141219E+00
         21   -1    0    0  501  502  0.00000000000E+00  0.00000000000E+00  0.20742545923E+03  0.20742545923E+03  0.00000000000E+00 0.  1.
         21   -1    0    0  502  503 -0.00000000000E+00 -0.00000000000E+00 -0.21459521903E+03  0.21459521903E+03  0.00000000000E+00 0. -1.
         -6    2    1    2    0  503  0.94014895151E+02 -0.74052926320E+02 -0.22380842921E+02  0.21073322267E+03  0.17200276917E+03 0.  0.
        -24    2    3    3    0    0  0.34739384286E+02 -0.69330758424E+02 -0.74147135122E+02  0.13175395915E+03  0.76470446722E+02 0.  0.
          6    2    1    2  501    0 -0.94014895151E+02  0.74052926320E+02  0.15211083123E+02  0.21128745559E+03  0.17346001105E+03 0.  0.
         24    2    5    5    0    0 -0.11951914787E+03  0.51373908250E+02  0.51436564120E+02  0.16129565386E+03  0.80289866542E+02 0.  0.
          5    1    5    5  501    0  0.25504252715E+02  0.22679018070E+02 -0.36225480997E+02  0.49991801734E+02  0.47000000000E+01 0. -1.
        -13    1    6    6    0    0 -0.83646957902E+02  0.52641895948E+02  0.69781102305E+02  0.12098506112E+03  0.00000000000E+00 0.  1.
         14    1    6    6    0    0 -0.35872189964E+02 -0.12679876983E+01 -0.18344538185E+02  0.40310592738E+02  0.00000000000E+00 0. -1.
         -5    1    3    3    0  503  0.59275510865E+02 -0.47221678960E+01  0.51766292201E+02  0.78979263520E+02  0.47000000000E+01 0.  1.
         13    1    4    4    0    0  0.98307674191E+00 -0.30585927972E+01 -0.54814283245E+02  0.54908351619E+02  0.00000000000E+00 0. -1.
        -14    1    4    4    0    0  0.33756307544E+02 -0.66272165626E+02 -0.19332851877E+02  0.76845607536E+02  0.00000000000E+00 0.  1.
</event>
<event>
12    1  0.8313893E-002  0.2424406E+03  0.7818608E-02  0.1118905E+00
         21   -1    0    0  501  502  0.00000000000E+00  0.00000000000E+00  0.41821525751E+03  0.41821525751E+03  0.00000000000E+00 0.  1.
         21   -1    0    0  502  503 -0.00000000000E+00 -0.00000000000E+00 -0.24140945224E+03  0.24140945224E+03  0.00000000000E+00 0.  1.
         -6    2    1    2    0  503  0.16001013827E+03  0.35282647133E+02 -0.12789672112E+03  0.27023917405E+03  0.17269490549E+03 0.  0.
        -24    2    3    3    0    0  0.15258465739E+03  0.73046401087E+02 -0.13314117409E+03  0.23111331092E+03  0.84076963941E+02 0.  0.
          6    2    1    2  501    0 -0.16001013827E+03 -0.35282647133E+02  0.30470252638E+03  0.38938553570E+03  0.17868787394E+03 0.  0.
         24    2    5    5    0    0 -0.64852368913E+02  0.83998913228E+01  0.25043814267E+03  0.27136062911E+03  0.81491961590E+02 0.  0.
          5    1    5    5  501    0 -0.95157769357E+02 -0.43682538456E+02  0.54264383718E+02  0.11802490659E+03  0.47000000000E+01 0. -1.
        -13    1    6    6    0    0  0.58299016634E+01  0.13427100672E+02  0.13582230598E+03  0.13660883422E+03  0.00000000000E+00 0.  1.
         14    1    6    6    0    0 -0.70682270576E+02 -0.50272093494E+01  0.11461583669E+03  0.13475179490E+03  0.00000000000E+00 0. -1.
         -5    1    3    3    0  503  0.74254808840E+01 -0.37763753954E+02  0.52444529719E+01  0.39125863135E+02  0.47000000000E+01 0.  1.
         13    1    4    4    0    0  0.43926540225E+02 -0.16766393404E+02 -0.43507980421E+02  0.64059325974E+02  0.00000000000E+00 0. -1.
        -14    1    4    4    0    0  0.10865811716E+03  0.89812794492E+02 -0.89633193666E+02  0.16705398494E+03  0.00000000000E+00 0.  1.
</event>
<event>
12    1  0.8313893E-002  0.2800701E+03  0.7818608E-02  0.1096085E+00
         21   -1    0    0  501  502  0.00000000000E+00  0.00000000000E+00  0.16636091040E+04  0.16636091040E+04  0.00000000000E+00 0.  1.
         21   -1    0    0  502  503 -0.00000000000E+00 -0.00000000000E+00 -0.49838881396E+02  0.49838881396E+02  0.00000000000E+00 0.  1.
         -6    2    1    2    0  503  0.20707214684E+03  0.77033968066E+02  0.10289290336E+04  0.10663649659E+04  0.17212256717E+03 0.  0.
        -24    2    3    3    0    0  0.20413452746E+02  0.14826140754E+02  0.34223908923E+03  0.35202859449E+03  0.78485754349E+02 0.  0.
          6    2    1    2  501    0 -0.20707214684E+03 -0.77033968066E+02  0.58484118905E+03  0.64708301952E+03  0.16692546692E+03 0.  0.
         24    2    5    5    0    0 -0.21997759091E+03 -0.43760953882E+02  0.46630449749E+03  0.52320129687E+03  0.77424486334E+02 0.  0.
          5    1    5    5  501    0  0.12905444066E+02 -0.33273014184E+02  0.11853669156E+03  0.12388172264E+03  0.47000000000E+01 0. -1.
        -11    1    6    6    0    0 -0.15228350218E+03  0.50961770075E+01  0.27305648092E+03  0.31269166575E+03  0.00000000000E+00 0.  1.
         12    1    6    6    0    0 -0.67694088722E+02 -0.48857130889E+02  0.19324801657E+03  0.21050963112E+03  0.00000000000E+00 0. -1.
         -5    1    3    3    0  503  0.18665869409E+03  0.62207827312E+02  0.68668994433E+03  0.71433637139E+03  0.47000000000E+01 0.  1.
         13    1    4    4    0    0  0.48896668571E+01 -0.71233660721E+01 -0.94866630549E-01  0.86406125852E+01  0.00000000000E+00 0. -1.
        -14    1    4    4    0    0  0.15523785889E+02  0.21949506826E+02  0.34233395587E+03  0.34338798190E+03  0.00000000000E+00 0.  1.
</event>
<event>
12    1  0.8313893E-002  0.2120914E+03  0.7818608E-02  0.1140073E+00
         21   -1    0    0  501  502  0.00000000000E+00  0.00000000000E+00  0.10617012915E+04  0.10617012915E+04  0.00000000000E+00 0.  1.
         21   -1    0    0  502  503 -0.00000000000E+00 -0.00000000000E+00 -0.75911730682E+02  0.75911730682E+02  0.00000000000E+00 0.  1.
         -6    2    1    2    0  503 -0.12179230064E+03 -0.21809400677E+02  0.11340723217E+03  0.23981923260E+03  0.17129813065E+03 0.  0.
        -24    2    3    3    0    0 -0.17570348499E+02 -0.24648452323E+02  0.10478258404E+03  0.13509698053E+03  0.79721646259E+02 0.  0.
          6    2    1    2  501    0  0.12179230064E+03  0.21809400677E+02  0.87238232862E+03  0.89779378955E+03  0.17226069435E+03 0.  0.
         24    2    5    5    0    0  0.10007308548E+02  0.43354541174E+02  0.50285886041E+03  0.51110300728E+03  0.79871697697E+02 0.  0.
          5    1    5    5  501    0  0.11178499209E+03 -0.21545140497E+02  0.36952346821E+03  0.38669078227E+03  0.47000000000E+01 0. -1.
        -11    1    6    6    0    0  0.42493176408E+02  0.40503462119E+02  0.33531644384E+03  0.34041638914E+03  0.00000000000E+00 0.  1.
         12    1    6    6    0    0 -0.32485867859E+02  0.28510790548E+01  0.16754241656E+03  0.17068661814E+03  0.00000000000E+00 0. -1.
         -5    1    3    3    0  503 -0.10422195214E+03  0.28390516462E+01  0.86246481249E+01  0.10472225207E+03  0.47000000000E+01 0.  1.
         13    1    4    4    0    0  0.88254082062E+01  0.24000291229E+02  0.55000640624E+02  0.60654532214E+02  0.00000000000E+00 0. -1.
        -14    1    4    4    0    0 -0.26395756705E+02 -0.48648743552E+02  0.49781943416E+02  0.74442448317E+02  0.00000000000E+00 0.  1.
</event>
<event>
12    1  0.8313893E-002  0.2908730E+03  0.7818608E-02  0.1090002E+00
         21   -1    0    0  501  502  0.00000000000E+00  0.00000000000E+00  0.95053217498E+02  0.95053217498E+02  0.00000000000E+00 0. -1.
         21   -1    0    0  502  503 -0.00000000000E+00 -0.00000000000E+00 -0.14747028478E+04  0.14747028478E+04  0.00000000000E+00 0.  1.
         -6    2    1    2    0  503 -0.13127715640E+03 -0.19314934015E+03 -0.11844768882E+04  0.12194711772E+04  0.17200027352E+03 0.  0.
        -24    2    3    3    0    0 -0.10539498445E+03 -0.19143338761E+03 -0.77221760523E+03  0.80636993335E+03  0.78470344452E+02 0.  0.
          6    2    1    2  501    0  0.13127715640E+03  0.19314934015E+03 -0.19517274209E+03  0.35028488802E+03  0.17339764741E+03 0.  0.
         24    2    5    5    0    0  0.14976968681E+03  0.10243258958E+03 -0.14172806800E+03  0.24328056239E+03  0.78582391681E+02 0.  0.
          5    1    5    5  501    0 -0.18492530410E+02  0.90716750569E+02 -0.53444674088E+02  0.10700432563E+03  0.47000000000E+01 0. -1.
        -13    1    6    6    0    0  0.37318963363E+02  0.97466649062E+01  0.19717728853E+01  0.38621113287E+02  0.00000000000E+00 0.  1.
         14    1    6    6    0    0  0.11245072345E+03  0.92685924678E+02 -0.14369984088E+03  0.20465944911E+03  0.00000000000E+00 0. -1.
         -5    1    3    3    0  503 -0.25882171960E+02 -0.17159525441E+01 -0.41225928295E+03  0.41310124388E+03  0.47000000000E+01 0.  1.
         13    1    4    4    0    0 -0.11616762541E+03 -0.15220567811E+03 -0.64241034824E+03  0.67033763222E+03  0.00000000000E+00 0. -1.
        -14    1    4    4    0    0  0.10772640967E+02 -0.39227709494E+02 -0.12980725699E+03  0.13603230114E+03  0.00000000000E+00 0.  1.
</event>
<event>
12    1  0.8313893E-002  0.2114916E+03  0.7818608E-02  0.1140493E+00
         21   -1    0    0  501  502  0.00000000000E+00  0.00000000000E+00  0.17558148274E+03  0.17558148274E+03  0.00000000000E+00 0.  1.
         21   -1    0    0  502  503 -0.00000000000E+00 -0.00000000000E+00 -0.38287654694E+03  0.38287654694E+03  0.00000000000E+00 0.  1.
         -6    2    1    2    0  503  0.35267596125E+02 -0.11667038081E+03 -0.26549129164E+03  0.33910557150E+03  0.17219518457E+03 0.  0.
        -24    2    3    3    0    0 -0.17620408664E+02 -0.97854186588E+02 -0.84027963819E+02  0.14909973064E+03  0.72691886340E+02 0.  0.
          6    2    1    2  501    0 -0.35267596125E+02  0.11667038081E+03  0.58196227433E+02  0.21935245819E+03  0.17283783999E+03 0.  0.
         24    2    5    5    0    0 -0.71266474144E+02  0.22436846532E+02 -0.12437264685E+02  0.96116674383E+02  0.59172688990E+02 0.  0.
          5    1    5    5  501    0  0.35998878019E+02  0.94233534279E+02  0.70633492118E+02  0.12323578381E+03  0.47000000000E+01 0. -1.
        -11    1    6    6    0    0 -0.56367811826E+01  0.28272548670E+02 -0.87386440498E+01  0.30124312610E+02  0.00000000000E+00 0.  1.
         12    1    6    6    0    0 -0.65629692962E+02 -0.58357021382E+01 -0.36986206350E+01  0.65992361773E+02  0.00000000000E+00 0. -1.
         -5    1    3    3    0  503  0.52888004789E+02 -0.18816194223E+02 -0.18146332782E+03  0.19000584085E+03  0.47000000000E+01 0.  1.
         13    1    4    4    0    0 -0.12221524331E+02 -0.86630512729E+02 -0.97333847856E+02  0.13087432648E+03  0.00000000000E+00 0. -1.
        -14    1    4    4    0    0 -0.53988843337E+01 -0.11223673859E+02  0.13305884037E+02  0.18225404164E+02  0.00000000000E+00 0.  1.
</event>
<event>
12    1  0.8313893E-002  0.1852959E+03  0.7818608E-02  0.1164507E+00
         21   -1    0    0  501  502  0.00000000000E+00  0.00000000000E+00  0.43079106475E+03  0.43079106475E+03  0.00000000000E+00 0.  1.
         21   -1    0    0  502  503 -0.00000000000E+00 -0.00000000000E+00 -0.77351719594E+02  0.77351719594E+02  0.00000000000E+00 0.  1.
         -6    2    1    2    0  503 -0.41618286226E+02  0.21139470837E+02  0.15518649590E+03  0.24169696097E+03  0.17931986353E+03 0.  0.
        -24    2    3    3    0    0 -0.48562311034E+02  0.82010423926E+02  0.96809252867E+02  0.15694151917E+03  0.78578631410E+02 0.  0.
          6    2    1    2  501    0  0.41618286226E+02 -0.21139470837E+02  0.19825284926E+03  0.26644582338E+03  0.17178540561E+03 0.  0.
         24    2    5    5    0    0  0.84073094687E+02 -0.46375079699E+02  0.11700021860E+03  0.17124431758E+03  0.80103881830E+02 0.  0.
          5    1    5    5  501    0 -0.42454808461E+02  0.25235608862E+02  0.81252630665E+02  0.95201505797E+02  0.47000000000E+01 0. -1.
        -11    1    6    6    0    0  0.17216211789E+02 -0.46619170072E+02  0.20301020274E+02  0.53683110852E+02  0.00000000000E+00 0.  1.
         12    1    6    6    0    0  0.66856882898E+02  0.24409037304E+00  0.96699198323E+02  0.11756120673E+03  0.00000000000E+00 0. -1.
         -5    1    3    3    0  503  0.69440248073E+01 -0.60870953089E+02  0.58377243030E+02  0.84755441797E+02  0.47000000000E+01 0.  1.
         11    1    4    4    0    0 -0.18472435082E+02 -0.34348465253E+01 -0.61813311347E+01  0.19779734151E+02  0.00000000000E+00 0. -1.
        -12    1    4    4    0    0 -0.30089875952E+02  0.85445270451E+02  0.10299058400E+03  0.13716178502E+03  0.00000000000E+00 0.  1.
</event>
<event>
12    1  0.8313893E-002  0.1975606E+03  0.7818608E-02  0.1152015E+00
         21   -1    0    0  503  502  0.00000000000E+00  0.00000000000E+00  0.25779721686E+03  0.25779721686E+03  0.00000000000E+00 0.  1.
         21   -1    0    0  501  503 -0.00000000000E+00 -0.00000000000E+00 -0.15936906981E+03  0.15936906981E+03  0.00000000000E+00 0.  1.
          6    2    1    2  501    0 -0.36089694496E+02 -0.89369706401E+02  0.62253320815E+00  0.19756161949E+03  0.17245519846E+03 0.  0.
         24    2    3    3    0    0  0.31042290567E+02 -0.32509539361E+01  0.15908939858E+02  0.87203533362E+02  0.79857181006E+02 0.  0.
         -6    2    1    2    0  502  0.36089694496E+02  0.89369706401E+02  0.97805613842E+02  0.21960466719E+03  0.17137929070E+03 0.  0.
        -24    2    5    5    0    0  0.75134474872E+02  0.97972584247E+02  0.45589954666E+02  0.15367235762E+03  0.79328008617E+02 0.  0.
          5    1    3    3  501    0 -0.67131985063E+02 -0.86118752465E+02 -0.15286406650E+02  0.11035808612E+03  0.47000000000E+01 0. -1.
        -11    1    4    4    0    0 -0.14202745406E+01  0.16822112110E+01 -0.30375363616E+02  0.30455044396E+02  0.00000000000E+00 0.  1.
         12    1    4    4    0    0  0.32462565108E+02 -0.49331651471E+01  0.46284303475E+02  0.56748488966E+02  0.00000000000E+00 0. -1.
         -5    1    5    5    0  502 -0.39044780376E+02 -0.86028778459E+01  0.52215659176E+02  0.65932309569E+02  0.47000000000E+01 0.  1.
         13    1    6    6    0    0  0.13192358767E+02 -0.95962574368E+01 -0.83551321105E+01  0.18328522014E+02  0.00000000000E+00 0. -1.
        -14    1    6    6    0    0  0.61942116105E+02  0.10756884168E+03  0.53945086776E+02  0.13534383560E+03  0.00000000000E+00 0.  1.
</event>
<event>
12    1  0.8313893E-002  0.1998456E+03  0.7818608E-02  0.1150020E+00
         21   -1    0    0  501  502  0.00000000000E+00  0.00000000000E+00  0.41454921903E+03  0.41454921903E+03  0.00000000000E+00 0. -1.
         21   -1    0    0  502  503 -0.00000000000E+00 -0.00000000000E+00 -0.58816529928E+03  0.58816529928E+03  0.00000000000E+00 0.  1.
         -6    2    1    2    0  503 -0.13189640120E+02  0.90010797602E+02 -0.54540306725E+03  0.58061993062E+03  0.17714143439E+03 0.  0.
        -24    2    3    3    0    0 -0.13512130836E+01 -0.96446498366E+01 -0.36723668412E+03  0.37607969831E+03  0.80487963487E+02 0.  0.
          6    2    1    2  501    0  0.13189640120E+02 -0.90010797602E+02  0.37178698700E+03  0.42209458769E+03  0.17793922268E+03 0.  0.
         24    2    5    5    0    0  0.30432339989E+02 -0.27857343714E+02  0.33864282250E+03  0.34942417990E+03  0.75605141029E+02 0.  0.
          5    1    5    5  501    0 -0.17242699869E+02 -0.62153453888E+02  0.33144164500E+02  0.72670407797E+02  0.47000000000E+01 0. -1.
        -13    1    6    6    0    0  0.49056223725E+02 -0.35830277026E+02  0.19179697160E+03  0.20118747514E+03  0.00000000000E+00 0.  1.
         14    1    6    6    0    0 -0.18623883736E+02  0.79729333116E+01  0.14684585090E+03  0.14823670476E+03  0.00000000000E+00 0. -1.
         -5    1    3    3    0  503 -0.11838427037E+02  0.99655447438E+02 -0.17816638313E+03  0.20454023231E+03  0.47000000000E+01 0.  1.
         13    1    4    4    0    0 -0.26523165793E+02  0.11333801585E+02 -0.54779509748E+02  0.61909030604E+02  0.00000000000E+00 0. -1.
        -14    1    4    4    0    0  0.25171952709E+02 -0.20978451422E+02 -0.31245717437E+03  0.31417066770E+03  0.00000000000E+00 0.  1.
</event>
<event>
12    1  0.8313893E-002  0.2159507E+03  0.7818608E-02  0.1137921E+00
         21   -1    0    0  501  502  0.00000000000E+00  0.00000000000E+00  0.64865585746E+02  0.64865585746E+02  0.00000000000E+00 0. -1.
         21   -1    0    0  502  503 -0.00000000000E+00 -0.00000000000E+00 -0.72723724819E+03  0.72723724819E+03  0.00000000000E+00 0. -1.
         -6    2    1    2    0  503 -0.11286546822E+03 -0.48850834832E+02 -0.25378135032E+03  0.32995486666E+03  0.17128987794E+03 0.  0.
        -24    2    3    3    0    0 -0.83065146471E+02  0.34847582744E+02 -0.13116670952E+03  0.17846254204E+03  0.80808419393E+02 0.  0.
          6    2    1    2  501    0  0.11286546822E+03  0.48850834832E+02 -0.40859031213E+03  0.46214796727E+03  0.17750966877E+03 0.  0.
         24    2    5    5    0    0  0.87778809895E+01  0.73065934751E+02 -0.22265829543E+03  0.24764062075E+03  0.79583154651E+02 0.  0.
          5    1    5    5  501    0  0.10408758723E+03 -0.24215099920E+02 -0.18593201669E+03  0.21450734652E+03  0.47000000000E+01 0. -1.
        -11    1    6    6    0    0 -0.16733551373E+02 -0.12787619623E+01 -0.71422460513E+01  0.18238932325E+02  0.00000000000E+00 0.  1.
         12    1    6    6    0    0  0.25511432362E+02  0.74344696714E+02 -0.21551604938E+03  0.22940168842E+03  0.00000000000E+00 0. -1.
         -5    1    3    3    0  503 -0.29800321752E+02 -0.83698417576E+02 -0.12261464080E+03  0.15149232462E+03  0.47000000000E+01 0.  1.
         13    1    4    4    0    0 -0.70773359186E+02 -0.99912269985E+01 -0.98244157534E+02  0.12149324046E+03  0.00000000000E+00 0. -1.
        -14    1    4    4    0    0 -0.12291787286E+02  0.44838809743E+02 -0.32922551985E+02  0.56969301585E+02  0.00000000000E+00 0.  1.
</event>
<event>
12    1  0.8313893E-002  0.1916117E+03  0.7818608E-02  0.1157618E+00
         21   -1    0    0  503  502  0.00000000000E+00  0.00000000000E+00  0.58296201763E+02  0.58296201763E+02  0.00000000000E+00 0. -1.
         21   -1    0    0  501  503 -0.00000000000E+00 -0.00000000000E+00 -0.79671692793E+03  0.79671692793E+03  0.00000000000E+00 0. -1.
          6    2    1    2  501    0  0.52632839670E+02 -0.59532705911E+02 -0.16642948991E+03  0.25178097292E+03  0.17140748038E+03 0.  0.
         24    2    3    3    0    0  0.55223367870E+01 -0.38544851483E+01 -0.15985325786E+03  0.17839977249E+03  0.78918068374E+02 0.  0.
         -6    2    1    2    0  502 -0.52632839670E+02  0.59532705911E+02 -0.57199123626E+03  0.60323215677E+03  0.17435797005E+03 0.  0.
        -24    2    5    5    0    0  0.14295354416E+02 -0.17179495571E+02 -0.17860752833E+03  0.19686166488E+03  0.79714325536E+02 0.  0.
          5    1    3    3  501    0  0.47110502883E+02 -0.55678220763E+02 -0.65762320494E+01  0.73381200434E+02  0.47000000000E+01 0. -1.
        -11    1    4    4    0    0 -0.11663038096E+02 -0.38228076112E+02 -0.68763519540E+02  0.79535110991E+02  0.00000000000E+00 0.  1.
         12    1    4    4    0    0  0.17185374883E+02  0.34373590964E+02 -0.91089738319E+02  0.98864661495E+02  0.00000000000E+00 0. -1.
         -5    1    5    5    0  502 -0.66928194086E+02  0.76712201482E+02 -0.39338370792E+03  0.40637049189E+03  0.47000000000E+01 0.  1.
         13    1    6    6    0    0  0.21491752515E+02 -0.73254130607E+00 -0.17758270755E+03  0.17887998788E+03  0.00000000000E+00 0. -1.
        -14    1    6    6    0    0 -0.71963980993E+01 -0.16446954264E+02 -0.10248207863E+01  0.17981677003E+02  0.00000000000E+00 0.  1.
</event>
<event>
12    1  0.8313893E-002  0.2107230E+03  0.7818608E-02  0.1145786E+00
         21   -1    0    0  503  502  0.00000000000E+00  0.00000000000E+00  0.33782464056E+02  0.33782464056E+02  0.00000000000E+00 0.  1.
         21   -1    0    0  501  503 -0.00000000000E+00 -0.00000000000E+00 -0.19839412785E+04  0.19839412785E+04  0.00000000000E+00 0.  1.
          6    2    1    2  501    0 -0.84277145676E+02  0.94069237313E+01 -0.16515454476E+04  0.16649344024E+04  0.19290689746E+03 0.  0.
         24    2    3    3    0    0 -0.12867778916E+03  0.32838017536E+02 -0.13901896730E+04  0.13987589636E+04  0.79139132925E+02 0.  0.
         -6    2    1    2    0  502  0.84277145676E+02 -0.94069237313E+01 -0.29861336685E+03  0.35278934023E+03  0.16762830376E+03 0.  0.
        -24    2    5    5    0    0  0.48660732669E+02 -0.24450336228E+02 -0.46096821662E+02  0.97286837837E+02  0.66137175653E+02 0.  0.
          5    1    3    3  501    0  0.44400643481E+02 -0.23431093805E+02 -0.26135577460E+03  0.26617543879E+03  0.47000000000E+01 0. -1.
        -11    1    4    4    0    0 -0.49201780049E+02 -0.25909580060E+02 -0.47083794796E+03  0.47411021370E+03  0.00000000000E+00 0.  1.
         12    1    4    4    0    0 -0.79476009107E+02  0.58747597596E+02 -0.91935172507E+03  0.92464874987E+03  0.00000000000E+00 0. -1.
         -5    1    5    5    0  502  0.35616413006E+02  0.15043412497E+02 -0.25251654519E+03  0.25550250240E+03  0.47000000000E+01 0.  1.
         13    1    6    6    0    0 -0.11730091905E+02 -0.20901714514E+02 -0.59930338119E+01  0.24706136485E+02  0.00000000000E+00 0. -1.
        -14    1    6    6    0    0  0.60390824574E+02 -0.35486217142E+01 -0.40103787850E+02  0.72580701352E+02  0.00000000000E+00 0.  1.
</event>
<event>
12    1  0.8313893E-002  0.2449842E+03  0.7818608E-02  0.1116642E+00
         21   -1    0    0  501  502  0.00000000000E+00  0.00000000000E+00  0.56277518344E+03  0.56277518344E+03  0.00000000000E+00 0. -1.
         21   -1    0    0  502  503 -0.00000000000E+00 -0.00000000000E+00 -0.12359184110E+03  0.12359184110E+03  0.00000000000E+00 0. -1.
         -6    2    1    2    0  503  0.13300569658E+03 -0.11330213645E+03  0.34762872530E+03  0.42483403090E+03  0.17061750704E+03 0.  0.
        -24    2    3    3    0    0  0.14537727873E+03 -0.32245946324E+02  0.22087117952E+03  0.27379520339E+03  0.63288081268E+02 0.  0.
          6    2    1    2  501    0 -0.13300569658E+03  0.11330213645E+03  0.91554617041E+02  0.26153299364E+03  0.17172469075E+03 0.  0.
         24    2    5    5    0    0 -0.47117104288E+02  0.11960500717E+03  0.89069780791E+02  0.17524950231E+03  0.79079598850E+02 0.  0.
          5    1    5    5  501    0 -0.85888592290E+02 -0.63028707132E+01  0.24848362501E+01  0.86283491329E+02  0.47000000000E+01 0. -1.
        -13    1    6    6    0    0 -0.18650094531E+01 -0.93241098140E+01  0.19998354844E+02  0.22143881335E+02  0.00000000000E+00 0.  1.
         14    1    6    6    0    0 -0.45252094834E+02  0.12892911698E+03  0.69071425946E+02  0.15310562098E+03  0.00000000000E+00 0. -1.
         -5    1    3    3    0  503 -0.12371582154E+02 -0.81056190128E+02  0.12675754578E+03  0.15103882751E+03  0.47000000000E+01 0.  1.
         11    1    4    4    0    0  0.13664991224E+03 -0.41865204758E+02  0.21770695558E+03  0.26042698092E+03  0.00000000000E+00 0. -1.
        -12    1    4    4    0    0  0.87273664931E+01  0.96192584331E+01  0.31642239349E+01  0.13368222463E+02  0.00000000000E+00 0.  1.
</event>
<event>
12    1  0.8313893E-002  0.1761723E+03  0.7818608E-02  0.1171713E+00
         21   -1    0    0  503  502  0.00000000000E+00  0.00000000000E+00  0.57829945707E+03  0.57829945707E+03  0.00000000000E+00 0. -1.
         21   -1    0    0  501  503 -0.00000000000E+00 -0.00000000000E+00 -0.54724929892E+02  0.54724929892E+02  0.00000000000E+00 0. -1.
          6    2    1    2  501    0  0.30646636995E+02  0.16504010042E+02  0.30994005473E+03  0.35651020546E+03  0.17269942201E+03 0.  0.
         24    2    3    3    0    0 -0.29488761330E+02  0.36427644379E+02  0.25903273345E+03  0.27510466083E+03  0.79925321959E+02 0.  0.
         -6    2    1    2    0  502 -0.30646636995E+02 -0.16504010042E+02  0.21363447245E+03  0.27651418150E+03  0.17207209549E+03 0.  0.
        -24    2    5    5    0    0 -0.27626744150E+02 -0.37110217323E+01  0.23462471066E+03  0.25130584156E+03  0.85608775700E+02 0.  0.
          5    1    3    3  501    0  0.60135398325E+02 -0.19923634337E+02  0.50907321283E+02  0.81405544634E+02  0.47000000000E+01 0. -1.
        -13    1    4    4    0    0 -0.14502258391E+02  0.37825203315E+02  0.45018358082E+02  0.60561655102E+02  0.00000000000E+00 0.  1.
         14    1    4    4    0    0 -0.14986502939E+02 -0.13975589361E+01  0.21401437537E+03  0.21454300573E+03  0.00000000000E+00 0. -1.
         -5    1    5    5    0  502 -0.30198928448E+01 -0.12792988309E+02 -0.20990238208E+02  0.25208339943E+02  0.47000000000E+01 0.  1.
         11    1    6    6    0    0 -0.10748098097E+02 -0.28779422325E+02  0.25263343200E+02  0.39774530440E+02  0.00000000000E+00 0. -1.
        -12    1    6    6    0    0 -0.16878646053E+02  0.25068400593E+02  0.20936136746E+03  0.21153131112E+03  0.00000000000E+00 0.  1.
</event>
<event>
12    1  0.8313893E-002  0.2341179E+03  0.7818608E-02  0.1124330E+00
         21   -1    0    0  503  502  0.00000000000E+00  0.00000000000E+00  0.15337098969E+03  0.15337098969E+03  0.00000000000E+00 0.  1.
         21   -1    0    0  501  503 -0.00000000000E+00 -0.00000000000E+00 -0.36635745668E+03  0.36635745668E+03  0.00000000000E+00 0. -1.
          6    2    1    2  501    0  0.11901743902E+03  0.96604793497E+02 -0.56657367380E+02  0.24087597179E+03  0.17695632113E+03 0.  0.
         24    2    3    3    0    0  0.54252618575E+02 -0.21115969443E+02 -0.28926943219E+02  0.10360351855E+03  0.80670256125E+02 0.  0.
         -6    2    1    2    0  502 -0.11901743902E+03 -0.96604793497E+02 -0.15632909961E+03  0.27885247459E+03  0.17269128027E+03 0.  0.
        -24    2    5    5    0    0 -0.47892139286E+02 -0.93789240868E+02 -0.15918356138E+03  0.20745938283E+03  0.81301356701E+02 0.  0.
          5    1    3    3  501    0  0.64764820448E+02  0.11772076294E+03 -0.27730424160E+02  0.13727245324E+03  0.47000000000E+01 0. -1.
        -11    1    4    4    0    0  0.13312847301E+01 -0.16706593296E+02  0.23576311434E+02  0.28926199879E+02  0.00000000000E+00 0.  1.
         12    1    4    4    0    0  0.52921333845E+02 -0.44093761466E+01 -0.52503254654E+02  0.74677318666E+02  0.00000000000E+00 0. -1.
         -5    1    5    5    0  502 -0.71125299737E+02 -0.28155526290E+01  0.28544617725E+01  0.71393091762E+02  0.47000000000E+01 0.  1.
         13    1    6    6    0    0 -0.32852875121E+02 -0.78156815580E+01 -0.89870222488E+02  0.96005485114E+02  0.00000000000E+00 0. -1.
        -14    1    6    6    0    0 -0.15039264164E+02 -0.85973559310E+02 -0.69313338891E+02  0.11145389771E+03  0.00000000000E+00 0.  1.
</event>
<event>
12    1  0.8313893E-002  0.2112703E+03  0.7818608E-02  0.1142014E+00
         21   -1    0    0  503  502  0.00000000000E+00  0.00000000000E+00  0.33423711613E+03  0.33423711613E+03  0.00000000000E+00 0. -1.
         21   -1    0    0  501  503 -0.00000000000E+00 -0.00000000000E+00 -0.15721092365E+03  0.15721092365E+03  0.00000000000E+00 0. -1.
          6    2    1    2  501    0 -0.11069203416E+02  0.10503387370E+03 -0.16826879636E+02  0.20471790713E+03  0.17456126641E+03 0.  0.
         24    2    3    3    0    0 -0.26274351453E+02  0.12673332990E+03  0.25995570726E+02  0.15414207119E+03  0.79575938321E+02 0.  0.
         -6    2    1    2    0  502  0.11069203416E+02 -0.10503387370E+03  0.19385307211E+03  0.28673013265E+03  0.18297681142E+03 0.  0.
        -24    2    5    5    0    0  0.31984201621E+02  0.13198892226E+02  0.37660978396E+02  0.89665462488E+02  0.73650159268E+02 0.  0.
          5    1    3    3  501    0  0.15205148037E+02 -0.21699456202E+02 -0.42822450362E+02  0.50575835943E+02  0.47000000000E+01 0. -1.
        -13    1    4    4    0    0 -0.53629024091E+02  0.68675000286E+02  0.21831659588E+02  0.89827330193E+02  0.00000000000E+00 0.  1.
         14    1    4    4    0    0  0.27354672638E+02  0.58058329616E+02  0.41639111382E+01  0.64314740993E+02  0.00000000000E+00 0. -1.
         -5    1    5    5    0  502 -0.20914998205E+02 -0.11823276593E+03  0.15619209371E+03  0.19706467016E+03  0.47000000000E+01 0.  1.
         13    1    6    6    0    0 -0.20979241069E+02  0.56627934556E+01  0.27770726458E+02  0.35262005524E+02  0.00000000000E+00 0. -1.
        -14    1    6    6    0    0  0.52963442690E+02  0.75360987705E+01  0.98902519383E+01  0.54403456965E+02  0.00000000000E+00 0.  1.
</event>
<event>
12    1  0.8313893E-002  0.2165262E+03  0.7818608E-02  0.1136530E+00
         21   -1    0    0  503  502  0.00000000000E+00  0.00000000000E+00  0.43493278445E+02  0.43493278445E+02  0.00000000000E+00 0.  1.
         21   -1    0    0  501  503 -0.00000000000E+00 -0.00000000000E+00 -0.14232056849E+04  0.14232056849E+04  0.00000000000E+00 0. -1.
          6    2    1    2  501    0  0.10471821724E+03  0.79494924846E+02 -0.10516532368E+04  0.10737123105E+04  0.17204141107E+03 0.  0.
         24    2    3    3    0    0  0.37749091560E+02  0.54301384826E+02 -0.90435645423E+03  0.90988920342E+03  0.75260427106E+02 0.  0.
         -6    2    1    2    0  502 -0.10471821724E+03 -0.79494924846E+02 -0.32805916967E+03  0.39298665287E+03  0.17184394791E+03 0.  0.
        -24    2    5    5    0    0 -0.41308600344E+02 -0.85067469619E+02 -0.10694073362E+03  0.16284042646E+03  0.78344171022E+02 0.  0.
          5    1    3    3  501    0  0.66969125679E+02  0.25193540020E+02 -0.14729678256E+03  0.16382310705E+03  0.47000000000E+01 0. -1.
        -13    1    4    4    0    0  0.42422802300E+02 -0.31530979354E+01 -0.37971515729E+03  0.38209061341E+03  0.00000000000E+00 0.  1.
         14    1    4    4    0    0 -0.46737107403E+01  0.57454482762E+02 -0.52464129693E+03  0.52779859000E+03  0.00000000000E+00 0. -1.
         -5    1    5    5    0  502 -0.63409616895E+02  0.55725447727E+01 -0.22111843605E+03  0.23014622641E+03  0.47000000000E+01 0.  1.
         11    1    6    6    0    0  0.92446404549E+01 -0.63511495195E+02 -0.77055146940E+02  0.10028294506E+03  0.00000000000E+00 0. -1.
        -12    1    6    6    0    0 -0.50553240799E+02 -0.21555974424E+02 -0.29885586680E+02  0.62557481406E+02  0.00000000000E+00 0.  1.
</event>
<event>
12    1  0.8313893E-002  0.1868211E+03  0.7818608E-02  0.1162059E+00
         21   -1    0    0  503  502  0.00000000000E+00  0.00000000000E+00  0.12356176976E+04  0.12356176976E+04  0.00000000000E+00 0.  1.
         21   -1    0    0  501  503 -0.00000000000E+00 -0.00000000000E+00 -0.29014139273E+02  0.29014139273E+02  0.00000000000E+00 0.  1.
          6    2    1    2  501    0 -0.37862376688E+01  0.67445371955E+02  0.72828686374E+03  0.75112527292E+03  0.17095088750E+03 0.  0.
         24    2    3    3    0    0  0.24838451817E+02  0.35414135305E+02  0.68090975556E+03  0.68699997878E+03  0.80372669241E+02 0.  0.
         -6    2    1    2    0  502  0.37862376688E+01 -0.67445371955E+02  0.47831669460E+03  0.51350656397E+03  0.17418070245E+03 0.  0.
        -24    2    5    5    0    0 -0.46897166619E+02 -0.88254470120E+02  0.32272143577E+03  0.34847989761E+03  0.85445410646E+02 0.  0.
          5    1    3    3  501    0 -0.28624689486E+02  0.32031236650E+02  0.47377108181E+02  0.64125294144E+02  0.47000000000E+01 0. -1.
        -11    1    4    4    0    0  0.15733160606E+02  0.54246091406E+02  0.28527556188E+03  0.29081319946E+03  0.00000000000E+00 0.  1.
         12    1    4    4    0    0  0.91052912113E+01 -0.18831956101E+02  0.39563419368E+03  0.39618677931E+03  0.00000000000E+00 0. -1.
         -5    1    5    5    0  502  0.50683404288E+02  0.20809098165E+02  0.15559525883E+03  0.16502666636E+03  0.47000000000E+01 0.  1.
         13    1    6    6    0    0 -0.36506745972E+02 -0.87534635381E+01  0.18794844917E+03  0.19166112066E+03  0.00000000000E+00 0. -1.
        -14    1    6    6    0    0 -0.10390420647E+02 -0.79501006582E+02  0.13477298660E+03  0.15681877695E+03  0.00000000000E+00 0.  1.
</event>
<event>
12    1  0.8313893E-002  0.1865455E+03  0.7818608E-02  0.1161869E+00
         21   -1    0    0  501  502  0.00000000000E+00  0.00000000000E+00  0.98012144917E+03  0.98012144917E+03  0.00000000000E+00 0.  1.
         21   -1    0    0  502  503 -0.00000000000E+00 -0.00000000000E+00 -0.43252491624E+02  0.43252491624E+02  0.00000000000E+00 0.  1.
         -6    2    1    2    0  503  0.51042608807E+02  0.48644876745E+02  0.24784658717E+03  0.30954548973E+03  0.17151911699E+03 0.  0.
        -24    2    3    3    0    0  0.36536301110E+02  0.69849432821E+02  0.99653328663E+02  0.15906825548E+03  0.95697854847E+02 0.  0.
          6    2    1    2  501    0 -0.51042608807E+02 -0.48644876745E+02  0.68902237037E+03  0.71382845106E+03  0.17270656827E+03 0.  0.
         24    2    5    5    0    0  0.30557779525E+01 -0.74028309438E+02  0.57375811999E+03  0.58390966288E+03  0.79136500923E+02 0.  0.
          5    1    5    5  501    0 -0.54098386760E+02  0.25383432693E+02  0.11526425038E+03  0.12991878818E+03  0.47000000000E+01 0. -1.
        -11    1    6    6    0    0 -0.26101773186E+02 -0.17586365504E+00  0.20807595003E+03  0.20970678213E+03  0.00000000000E+00 0.  1.
         12    1    6    6    0    0  0.29157551138E+02 -0.73852445782E+02  0.36568216996E+03  0.37420288075E+03  0.00000000000E+00 0. -1.
         -5    1    3    3    0  503  0.14506307697E+02 -0.21204556076E+02  0.14819325851E+03  0.15047723425E+03  0.47000000000E+01 0.  1.
         11    1    4    4    0    0 -0.19180771641E+02  0.41037044620E+02  0.82371181597E+02  0.94005066829E+02  0.00000000000E+00 0. -1.
        -12    1    4    4    0    0  0.55717072750E+02  0.28812388201E+02  0.17282147066E+02  0.65063188647E+02  0.00000000000E+00 0.  1.
</event>
<event>
12    1  0.8313893E-002  0.1778370E+03  0.7818608E-02  0.1169968E+00
         21   -1    0    0  503  502  0.00000000000E+00  0.00000000000E+00  0.10165398484E+03  0.10165398484E+03  0.00000000000E+00 0.  1.
         21   -1    0    0  501  503 -0.00000000000E+00 -0.00000000000E+00 -0.52326641532E+03  0.52326641532E+03  0.00000000000E+00 0.  1.
          6    2    1    2  501    0 -0.30460640477E+02 -0.31634610445E+02 -0.40986745378E+03  0.44669602550E+03  0.17209709566E+03 0.  0.
         24    2    3    3    0    0 -0.19837933425E+02  0.50846555294E+01 -0.39661993578E+03  0.40596847792E+03  0.84164329028E+02 0.  0.
         -6    2    1    2    0  502  0.30460640477E+02  0.31634610445E+02 -0.11744976707E+02  0.17822437467E+03  0.17232928959E+03 0.  0.
        -24    2    5    5    0    0 -0.12525492931E+01 -0.49372979927E+02 -0.50585731480E+01  0.90847294742E+02  0.76081415424E+02 0.  0.
          5    1    3    3  501    0 -0.10622707053E+02 -0.36719265975E+02 -0.13247517998E+02  0.40727547581E+02  0.47000000000E+01 0. -1.
        -13    1    4    4    0    0 -0.46245827862E+02 -0.18762157802E+02 -0.19842499371E+03  0.20460492000E+03  0.00000000000E+00 0.  1.
         14    1    4    4    0    0  0.26407894437E+02  0.23846813332E+02 -0.19819494206E+03  0.20136355791E+03  0.00000000000E+00 0. -1.
         -5    1    5    5    0  502  0.31713189770E+02  0.81007590373E+02 -0.66864035588E+01  0.87377079923E+02  0.47000000000E+01 0.  1.
         13    1    6    6    0    0  0.33102046054E+01  0.20338506111E+02  0.16109869926E+01  0.20669000083E+02  0.00000000000E+00 0. -1.
        -14    1    6    6    0    0 -0.45627538985E+01 -0.69711486038E+02 -0.66695601406E+01  0.70178294659E+02  0.00000000000E+00 0.  1.
</event>
<event>
12    1  0.8313893E-002  0.2204700E+03  0.7818608E-02  0.1133660E+00
         21   -1    0    0  501  502  0.00000000000E+00  0.00000000000E+00  0.57549621800E+03  0.57549621800E+03  0.00000000000E+00 0.  1.
         21   -1    0    0  502  503 -0.00000000000E+00 -0.00000000000E+00 -0.84454648942E+02  0.84454648942E+02  0.00000000000E+00 0.  1.
         -6    2    1    2    0  503  0.10590904833E+03 -0.86791098599E+02  0.26401584240E+03  0.34396423663E+03  0.17279354654E+03 0.  0.
        -24    2    3    3    0    0  0.58434847257E+02  0.17729007266E+02  0.16161528649E+03  0.19006096782E+03  0.79213140264E+02 0.  0.
          6    2    1    2  501    0 -0.10590904833E+03  0.86791098599E+02  0.22702572665E+03  0.31598663031E+03  0.17192279854E+03 0.  0.
         24    2    5    5    0    0 -0.38720734202E+02 -0.19530333207E+02  0.66903212481E+02  0.11232066369E+03  0.79114868882E+02 0.  0.
          5    1    5    5  501    0 -0.67188314130E+02  0.10632143181E+03  0.16012251417E+03  0.20366596663E+03  0.47000000000E+01 0. -1.
        -13    1    6    6    0    0 -0.36765050678E+02  0.19082068890E+02  0.60211936818E+02  0.73084003994E+02  0.00000000000E+00 0.  1.
         14    1    6    6    0    0 -0.19556835243E+01 -0.38612402097E+02  0.66912756627E+01  0.39236659691E+02  0.00000000000E+00 0. -1.
         -5    1    3    3    0  503  0.47474201074E+02 -0.10452010586E+03  0.10240055592E+03  0.15390326881E+03  0.47000000000E+01 0.  1.
         11    1    4    4    0    0  0.31017616786E+01 -0.26107243426E+02  0.67299084357E+02  0.72252168411E+02  0.00000000000E+00 0. -1.
        -12    1    4    4    0    0  0.55333085579E+02  0.43836250692E+02  0.94316202129E+02  0.11780879941E+03  0.00000000000E+00 0.  1.
</event>
<event>
12    1  0.8313893E-002  0.1875660E+03  0.7818608E-02  0.1161089E+00
         21   -1    0    0  501  502  0.00000000000E+00  0.00000000000E+00  0.13837269455E+03  0.13837269455E+03  0.00000000000E+00 0.  1.
         21   -1    0    0  502  503 -0.00000000000E+00 -0.00000000000E+00 -0.29542641165E+03  0.29542641165E+03  0.00000000000E+00 0.  1.
         -6    2    1    2    0  503 -0.20563940100E+02 -0.70139317467E+02 -0.16217668842E+03  0.24795620309E+03  0.17273853333E+03 0.  0.
        -24    2    3    3    0    0 -0.35901134861E+02 -0.94777311475E+01 -0.16604349549E+02  0.89436635077E+02  0.79652296878E+02 0.  0.
          6    2    1    2  501    0  0.20563940100E+02  0.70139317467E+02  0.51229713157E+01  0.18584290311E+03  0.17078916920E+03 0.  0.
         24    2    5    5    0    0  0.29626283978E+02  0.11090821616E+03  0.20350331873E+02  0.14114176569E+03  0.79551950950E+02 0.  0.
          5    1    5    5  501    0 -0.90623438776E+01 -0.40768898695E+02 -0.15227360557E+02  0.44701137423E+02  0.47000000000E+01 0. -1.
        -11    1    6    6    0    0  0.11114910577E+02  0.26863244221E+02  0.43226980473E+02  0.52093636540E+02  0.00000000000E+00 0.  1.
         12    1    6    6    0    0  0.18511373400E+02  0.84044971942E+02 -0.22876648600E+02  0.89048129150E+02  0.00000000000E+00 0. -1.
         -5    1    3    3    0  503  0.15337194761E+02 -0.60661586320E+02 -0.14557233887E+03  0.15851956801E+03  0.47000000000E+01 0.  1.
         11    1    4    4    0    0  0.84758140211E+01  0.23084172994E+02 -0.23439092951E+02  0.33972187809E+02  0.00000000000E+00 0. -1.
        -12    1    4    4    0    0 -0.44376948882E+02 -0.32561904142E+02  0.68347434021E+01  0.55464447268E+02  0.00000000000E+00 0.  1.
</event>
<event>
12    1  0.8313893E-002  0.1895051E+03  0.7818608E-02  0.1158919E+00
         21   -1    0    0  503  502  0.00000000000E+00  0.00000000000E+00  0.65164749900E+03  0.65164749900E+03  0.00000000000E+00 0.  1.
         21   -1    0    0  501  503 -0.00000000000E+00 -0.00000000000E+00 -0.82442336074E+02  0.82442336074E+02  0.00000000000E+00 0.  1.
          6    2    1    2  501    0 -0.40818086607E+02 -0.66453369181E+02  0.73185990187E+02  0.20310283145E+03  0.17266268999E+03 0.  0.
         24    2    3    3    0    0 -0.79690332982E+02 -0.18702514736E+02  0.99975031622E+01  0.11475086186E+03  0.79796472349E+02 0.  0.
         -6    2    1    2    0  502  0.40818086607E+02  0.66453369181E+02  0.49601917274E+03  0.53098700362E+03  0.17271367005E+03 0.  0.
        -24    2    5    5    0    0  0.25690398963E+02 -0.25654439329E+02  0.30872819338E+03  0.32167217789E+03  0.82714846223E+02 0.  0.
          5    1    3    3  501    0  0.38872246375E+02 -0.47750854445E+02  0.63188487025E+02  0.88351969593E+02  0.47000000000E+01 0. -1.
        -11    1    4    4    0    0 -0.21216990286E+02 -0.27209503454E+02  0.36291378765E+02  0.50075761878E+02  0.00000000000E+00 0.  1.
         12    1    4    4    0    0 -0.58473342696E+02  0.85069887171E+01 -0.26293875603E+02  0.64675099979E+02  0.00000000000E+00 0. -1.
         -5    1    5    5    0  502  0.15127687645E+02  0.92107808510E+02  0.18729097936E+03  0.20931482573E+03  0.47000000000E+01 0.  1.
         11    1    6    6    0    0  0.46395256460E+02 -0.32660562729E+02  0.13309668489E+03  0.14468572738E+03  0.00000000000E+00 0. -1.
        -12    1    6    6    0    0 -0.20704857497E+02  0.70061234004E+01  0.17563150849E+03  0.17698645050E+03  0.00000000000E+00 0.  1.
</event>
<event>
12    1  0.8313893E-002  0.1832342E+03  0.7818608E-02  0.1164735E+00
         21   -1    0    0  501  502  0.00000000000E+00  0.00000000000E+00  0.13634747115E+04  0.13634747115E+04  0.00000000000E+00 0.  1.
         21   -1    0    0  502  503 -0.00000000000E+00 -0.00000000000E+00 -0.28525777912E+02  0.28525777912E+02  0.00000000000E+00 0.  1.
         -6    2    1    2    0  503 -0.50175587854E+02  0.49048218082E+02  0.40976267109E+03  0.44886548571E+03  0.16926742251E+03 0.  0.
        -24    2    3    3    0    0 -0.16806385927E+02 -0.36786324768E+02  0.21253565804E+03  0.23114626960E+03  0.81372622633E+02 0.  0.
          6    2    1    2  501    0  0.50175587854E+02 -0.49048218082E+02  0.92518626246E+03  0.94313500367E+03  0.16914697039E+03 0.  0.
         24    2    5    5    0    0  0.36015314548E+02 -0.43956801162E+02  0.92191596600E+03  0.92703467121E+03  0.78961573036E+02 0.  0.
          5    1    5    5  501    0  0.14160273306E+02 -0.50914169194E+01  0.32702964614E+01  0.16100332459E+02  0.47000000000E+01 0. -1.
        -11    1    6    6    0    0 -0.20632177997E+02 -0.24422203670E+02  0.19010236039E+03  0.19277198506E+03  0.00000000000E+00 0.  1.
         12    1    6    6    0    0  0.56647492545E+02 -0.19534597492E+02  0.73181360561E+03  0.73426268615E+03  0.00000000000E+00 0. -1.
         -5    1    3    3    0  503 -0.33369201926E+02  0.85834542850E+02  0.19722701305E+03  0.21771921610E+03  0.47000000000E+01 0.  1.
         11    1    4    4    0    0 -0.76568782255E+01  0.33914472562E+01  0.17562853642E+03  0.17582807655E+03  0.00000000000E+00 0. -1.
        -12    1    4    4    0    0 -0.91495077018E+01 -0.40177772024E+02  0.36907121619E+02  0.55318193049E+02  0.00000000000E+00 0.  1.
</event>
<event>
12    1  0.8313893E-002  0.1909576E+03  0.7818608E-02  0.1159525E+00
         21   -1    0    0  503  502  0.00000000000E+00  0.00000000000E+00  0.21757193142E+04  0.21757193142E+04  0.00000000000E+00 0. -1.
         21   -1    0    0  501  503 -0.00000000000E+00 -0.00000000000E+00 -0.16929392741E+02  0.16929392741E+02  0.00000000000E+00 0. -1.
          6    2    1    2  501    0 -0.40303400837E+02 -0.45635350746E+02  0.13088045347E+04  0.13214770936E+04  0.17212045121E+03 0.  0.
         24    2    3    3    0    0  0.35831460056E+02 -0.13294462623E+02  0.88985551975E+03  0.89441408052E+03  0.81688831127E+02 0.  0.
         -6    2    1    2    0  502  0.40303400837E+02  0.45635350746E+02  0.84998538676E+03  0.87117161326E+03  0.18099136080E+03 0.  0.
        -24    2    5    5    0    0  0.94102482792E+02  0.21464103560E+02  0.68939253632E+03  0.70002622471E+03  0.73882752624E+02 0.  0.
          5    1    3    3  501    0 -0.76134860893E+02 -0.32340888123E+02  0.41894901491E+03  0.42706301313E+03  0.47000000000E+01 0. -1.
        -11    1    4    4    0    0  0.45404373452E+02  0.17082470083E+02  0.31867635365E+03  0.32234761716E+03  0.00000000000E+00 0.  1.
         12    1    4    4    0    0 -0.95729133961E+01 -0.30376932706E+02  0.57117916609E+03  0.57206646335E+03  0.00000000000E+00 0. -1.
         -5    1    5    5    0  502 -0.53799081955E+02  0.24171247185E+02  0.16059285044E+03  0.17114538855E+03  0.47000000000E+01 0.  1.
         13    1    6    6    0    0  0.25362365665E+02  0.41508049760E+02  0.33051503541E+03  0.33407537535E+03  0.00000000000E+00 0. -1.
        -14    1    6    6    0    0  0.68740117127E+02 -0.20043946200E+02  0.35887750092E+03  0.36595084936E+03  0.00000000000E+00 0.  1.
</event>
<event>
12    1  0.8313893E-002  0.2438590E+03  0.7818608E-02  0.1117407E+00
         21   -1    0    0  503  502  0.00000000000E+00  0.00000000000E+00  0.14629069571E+04  0.14629069571E+04  0.00000000000E+00 0.  1.
         21   -1    0    0  501  503 -0.00000000000E+00 -0.00000000000E+00 -0.83405577193E+02  0.83405577193E+02  0.00000000000E+00 0.  1.
          6    2    1    2  501    0  0.16560790396E+03 -0.46224212511E+02  0.13447492751E+03  0.27762894227E+03  0.17155660226E+03 0.  0.
         24    2    3    3    0    0  0.16720119499E+03 -0.81844909951E+02  0.12981749737E+03  0.24136388583E+03  0.82152990627E+02 0.  0.
         -6    2    1    2    0  502 -0.16560790396E+03  0.46224212511E+02  0.12450264524E+04  0.12686835921E+04  0.17292927408E+03 0.  0.
        -24    2    5    5    0    0 -0.15330274005E+03  0.92153129661E+02  0.98052999153E+03  0.99990608125E+03  0.79869754051E+02 0.  0.
          5    1    3    3  501    0 -0.15932910359E+01  0.35620697440E+02  0.46574301362E+01  0.36265056431E+02  0.47000000000E+01 0. -1.
        -11    1    4    4    0    0  0.11593808388E+03 -0.77932044726E+02  0.54024124886E+02  0.14977866657E+03  0.00000000000E+00 0.  1.
         12    1    4    4    0    0  0.51263111110E+02 -0.39128652250E+01  0.75793372486E+02  0.91585219265E+02  0.00000000000E+00 0. -1.
         -5    1    5    5    0  502 -0.12305163908E+02 -0.45928917150E+02  0.26449646090E+03  0.26877751081E+03  0.47000000000E+01 0.  1.
         11    1    6    6    0    0 -0.32458099666E+02  0.28260178571E+02  0.44982761285E+03  0.45188167391E+03  0.00000000000E+00 0. -1.
        -12    1    6    6    0    0 -0.12084464038E+03  0.63892951090E+02  0.53070237868E+03  0.54802440734E+03  0.00000000000E+00 0.  1.
</event>
<event>
12    1  0.8313893E-002  0.2064210E+03  0.7818608E-02  0.1144638E+00
         21   -1    0    0  501  502  0.00000000000E+00  0.00000000000E+00  0.43627499381E+02  0.43627499381E+02  0.00000000000E+00 0. -1.
         21   -1    0    0  502  503 -0.00000000000E+00 -0.00000000000E+00 -0.11972356203E+04  0.11972356203E+04  0.00000000000E+00 0. -1.
         -6    2    1    2    0  503  0.10137490676E+03 -0.50940045471E+02 -0.84713130976E+03  0.87191804153E+03  0.17244667353E+03 0.  0.
        -24    2    3    3    0    0  0.46432665670E+02  0.39512898876E+02 -0.44059750305E+03  0.45180828087E+03  0.79292505032E+02 0.  0.
          6    2    1    2  501    0 -0.10137490676E+03  0.50940045471E+02 -0.30647681116E+03  0.36894507816E+03  0.17123280925E+03 0.  0.
         24    2    5    5    0    0 -0.17250341568E+02  0.66189035227E+02 -0.23439763318E+03  0.25702112158E+03  0.80243652887E+02 0.  0.
          5    1    5    5  501    0 -0.84124565194E+02 -0.15248989756E+02 -0.72079177985E+02  0.11192395658E+03  0.47000000000E+01 0. -1.
        -13    1    6    6    0    0  0.31078739463E+02  0.14265347207E+02 -0.67270726689E+02  0.75463493471E+02  0.00000000000E+00 0.  1.
         14    1    6    6    0    0 -0.48329081031E+02  0.51923688020E+02 -0.16712690649E+03  0.18155762811E+03  0.00000000000E+00 0. -1.
         -5    1    3    3    0  503  0.54942241092E+02 -0.90452944346E+02 -0.40653380671E+03  0.42010976066E+03  0.47000000000E+01 0.  1.
         13    1    4    4    0    0  0.34039400989E+02 -0.17703621503E+02 -0.23200368344E+03  0.23515485996E+03  0.00000000000E+00 0. -1.
        -14    1    4    4    0    0  0.12393264680E+02  0.57216520379E+02 -0.20859381961E+03  0.21665342092E+03  0.00000000000E+00 0.  1.
</event>
<event>
12    1  0.8313893E-002  0.2531311E+03  0.7818608E-02  0.1111382E+00
         21   -1    0    0  503  502  0.00000000000E+00  0.00000000000E+00  0.39416094241E+03  0.39416094241E+03  0.00000000000E+00 0.  1.
         21   -1    0    0  501  503 -0.00000000000E+00 -0.00000000000E+00 -0.18298235395E+03  0.18298235395E+03  0.00000000000E+00 0.  1.
          6    2    1    2  501    0 -0.10130815405E+03  0.15535547436E+03  0.88413279574E+01  0.25328541942E+03  0.17226917635E+03 0.  0.
         24    2    3    3    0    0 -0.82901740932E+02  0.17986587551E+03  0.31088239470E+02  0.21512037154E+03  0.78011946489E+02 0.  0.
         -6    2    1    2    0  502  0.10130815405E+03 -0.15535547436E+03  0.20233726050E+03  0.32385787694E+03  0.17188627630E+03 0.  0.
        -24    2    5    5    0    0 -0.49119079573E+01 -0.80255754550E+02  0.52083504684E+02  0.12505910777E+03  0.80386416748E+02 0.  0.
          5    1    3    3  501    0 -0.18406413114E+02 -0.24510401149E+02 -0.22246911513E+02  0.38165047885E+02  0.47000000000E+01 0. -1.
        -11    1    4    4    0    0 -0.69913159263E+02  0.74725923523E+02 -0.69292106110E+01  0.10256621005E+03  0.00000000000E+00 0.  1.
         12    1    4    4    0    0 -0.12988581669E+02  0.10513995198E+03  0.38017450081E+02  0.11255416149E+03  0.00000000000E+00 0. -1.
         -5    1    5    5    0  502  0.10622006200E+03 -0.75099719808E+02  0.15025375582E+03  0.19879876917E+03  0.47000000000E+01 0.  1.
         11    1    6    6    0    0 -0.10969022427E+02 -0.78577388130E+01  0.50626272285E+02  0.52393539274E+02  0.00000000000E+00 0. -1.
        -12    1    6    6    0    0  0.60571144693E+01 -0.72398015737E+02  0.14572323992E+01  0.72665568495E+02  0.00000000000E+00 0.  1.
</event>
<event>
12    1  0.8313893E-002  0.2200303E+03  0.7818608E-02  0.1134127E+00
         21   -1    0    0  503  502  0.00000000000E+00  0.00000000000E+00  0.15081362119E+03  0.15081362119E+03  0.00000000000E+00 0. -1.
         21   -1    0    0  501  503 -0.00000000000E+00 -0.00000000000E+00 -0.21536849238E+04  0.21536849238E+04  0.00000000000E+00 0. -1.
          6    2    1    2  501    0 -0.20937220558E+00 -0.13764468326E+03 -0.20654315700E+04  0.20771184122E+04  0.17166020271E+03 0.  0.
         24    2    3    3    0    0  0.71650818573E+01  0.10572429440E+01 -0.86921921215E+03  0.87285984278E+03  0.79308323652E+02 0.  0.
         -6    2    1    2    0  502  0.20937220558E+00  0.13764468326E+03  0.62560267365E+02  0.22738013284E+03  0.16982884057E+03 0.  0.
        -24    2    5    5    0    0  0.26446387047E+02  0.57563970345E+02 -0.23150082377E+02  0.10709025137E+03  0.83182771988E+02 0.  0.
          5    1    3    3  501    0 -0.73744540629E+01 -0.13870192621E+03 -0.11962123578E+04  0.12042585694E+04  0.47000000000E+01 0. -1.
        -11    1    4    4    0    0 -0.99745586736E+01 -0.19607254795E+02 -0.74320844482E+02  0.77508220118E+02  0.00000000000E+00 0.  1.
         12    1    4    4    0    0  0.17139640531E+02  0.20664497739E+02 -0.79489836767E+03  0.79535162266E+03  0.00000000000E+00 0. -1.
         -5    1    5    5    0  502 -0.26237014841E+02  0.80080712919E+02  0.85710349741E+02  0.12028988146E+03  0.47000000000E+01 0.  1.
         13    1    6    6    0    0  0.49904027865E+02  0.91607440540E+01 -0.99056843438E+01  0.51695781367E+02  0.00000000000E+00 0. -1.
        -14    1    6    6    0    0 -0.23457640819E+02  0.48403226291E+02 -0.13244398033E+02  0.55394470007E+02  0.00000000000E+00 0.  1.
</event>
<event>
12    1  0.8313893E-002  0.3012075E+03  0.7818608E-02  0.1084722E+00
         21   -1    0    0  503  502  0.00000000000E+00  0.00000000000E+00  0.12306021381E+04  0.12306021381E+04  0.00000000000E+00 0. -1.
         21   -1    0    0  501  503 -0.00000000000E+00 -0.00000000000E+00 -0.74230301691E+02  0.74230301691E+02  0.00000000000E+00 0. -1.
          6    2    1    2  501    0  0.10879212009E+03 -0.22264808405E+03  0.51561201415E+03  0.59680766421E+03  0.17004630017E+03 0.  0.
         24    2    3    3    0    0  0.12267839764E+03 -0.21025496107E+03  0.51684236360E+03  0.57757170930E+03  0.84887647339E+02 0.  0.
         -6    2    1    2    0  502 -0.10879212009E+03  0.22264808405E+03  0.64075982227E+03  0.70802477560E+03  0.17122510999E+03 0.  0.
        -24    2    5    5    0    0 -0.92924283264E+02  0.15363010432E+03  0.28531233176E+03  0.34556060042E+03  0.75972827611E+02 0.  0.
          5    1    3    3  501    0 -0.13886277552E+02 -0.12393122980E+02 -0.12303494537E+01  0.19235954908E+02  0.47000000000E+01 0. -1.
        -13    1    4    4    0    0  0.59813848770E+02 -0.55676822750E+02  0.10388590723E+03  0.13217369941E+03  0.00000000000E+00 0.  1.
         14    1    4    4    0    0  0.62864548868E+02 -0.15457813832E+03  0.41295645638E+03  0.44539800989E+03  0.00000000000E+00 0. -1.
         -5    1    5    5    0  502 -0.15867836823E+02  0.69017979727E+02  0.35544749052E+03  0.36246417518E+03  0.47000000000E+01 0.  1.
         11    1    6    6    0    0 -0.36798641711E+02  0.10864408638E+03  0.22134841066E+03  0.24930462579E+03  0.00000000000E+00 0. -1.
        -12    1    6    6    0    0 -0.56125641554E+02  0.44986017947E+02  0.63963921094E+02  0.96255974631E+02  0.00000000000E+00 0.  1.
</event>
<event>
12    1  0.8313893E-002  0.2050251E+03  0.7818608E-02  0.1145687E+00
         21   -1    0    0  503  502  0.00000000000E+00  0.00000000000E+00  0.10440129681E+04  0.10440129681E+04  0.00000000000E+00 0.  1.
         21   -1    0    0  501  503 -0.00000000000E+00 -0.00000000000E+00 -0.64044571588E+02  0.64044571588E+02  0.00000000000E+00 0.  1.
          6    2    1    2  501    0  0.78908627439E+02 -0.76822583578E+02  0.15112302365E+03  0.25423089837E+03  0.17224082146E+03 0.  0.
         24    2    3    3    0    0  0.34512732895E+01 -0.18289258769E+02  0.13478840058E+03  0.15723155652E+03  0.78787315987E+02 0.  0.
         -6    2    1    2    0  502 -0.78908627439E+02  0.76822583578E+02  0.82884537285E+03  0.85382664131E+03  0.17293640589E+03 0.  0.
        -24    2    5    5    0    0 -0.59061425676E+02  0.12310144931E+03  0.61053290557E+03  0.62973275875E+03  0.71907578410E+02 0.  0.
          5    1    3    3  501    0  0.75457354150E+02 -0.58533324809E+02  0.16334623071E+02  0.96999341850E+02  0.47000000000E+01 0. -1.
        -13    1    4    4    0    0  0.21592235261E+02 -0.38729406618E+02  0.11567238272E+03  0.12388015049E+03  0.00000000000E+00 0.  1.
         14    1    4    4    0    0 -0.18140961971E+02  0.20440147849E+02  0.19116017858E+02  0.33351406029E+02  0.00000000000E+00 0. -1.
         -5    1    5    5    0  502 -0.19847201763E+02 -0.46278865732E+02  0.21831246729E+03  0.22409388257E+03  0.47000000000E+01 0.  1.
         11    1    6    6    0    0 -0.27574947208E+02  0.21133984390E+02  0.63455361390E+02  0.72343665229E+02  0.00000000000E+00 0. -1.
        -12    1    6    6    0    0 -0.31486478468E+02  0.10196746492E+03  0.54707754418E+03  0.55738909352E+03  0.00000000000E+00 0.  1.
</event>
<event>
12    1  0.8313893E-002  0.1835619E+03  0.7818608E-02  0.1166277E+00
         21   -1    0    0  501  502  0.00000000000E+00  0.00000000000E+00  0.11427307969E+04  0.11427307969E+04  0.00000000000E+00 0.  1.
         21   -1    0    0  502  503 -0.00000000000E+00 -0.00000000000E+00 -0.21327860497E+03  0.21327860497E+03  0.00000000000E+00 0.  1.
         -6    2    1    2    0  503  0.33777834235E+02  0.17428614618E+02 -0.16542920427E+03  0.24710687556E+03  0.17958365079E+03 0.  0.
        -24    2    3    3    0    0  0.10588248855E+02  0.32141786067E+02 -0.15690713641E+02  0.94798176338E+02  0.87150962801E+02 0.  0.
          6    2    1    2  501    0 -0.33777834235E+02 -0.17428614618E+02  0.10948813962E+04  0.11089025263E+04  0.17162413119E+03 0.  0.
         24    2    5    5    0    0  0.33166686870E+02 -0.49074074267E+02  0.70392207133E+03  0.71096498381E+03  0.80353169312E+02 0.  0.
          5    1    5    5  501    0 -0.66944521105E+02  0.31645459649E+02  0.39095932492E+03  0.39793754254E+03  0.47000000000E+01 0. -1.
        -11    1    6    6    0    0  0.89965273567E+01 -0.21551870062E+02  0.60546376621E+03  0.60591401436E+03  0.00000000000E+00 0.  1.
         12    1    6    6    0    0  0.24170159513E+02 -0.27522204205E+02  0.98458305116E+02  0.10505096945E+03  0.00000000000E+00 0. -1.
         -5    1    3    3    0  503  0.23189585380E+02 -0.14713171448E+02 -0.14973849063E+03  0.15230869922E+03  0.47000000000E+01 0.  1.
         13    1    4    4    0    0 -0.42031852350E+01 -0.25779872567E+01  0.32903309850E+02  0.33270716606E+02  0.00000000000E+00 0. -1.
        -14    1    4    4    0    0  0.14791434090E+02  0.34719773323E+02 -0.48594023490E+02  0.61527459732E+02  0.00000000000E+00 0.  1.
</event>
<event>
12    1  0.8313893E-002  0.2275836E+03  0.7818608E-02  0.1128472E+00
         21   -1    0    0  501  502  0.00000000000E+00  0.00000000000E+00  0.35001383183E+02  0.35001383183E+02  0.00000000000E+00 0. -1.
         21   -1    0    0  502  503 -0.00000000000E+00 -0.00000000000E+00 -0.15993290965E+04  0.15993290965E+04  0.00000000000E+00 0.  1.
         -6    2    1    2    0  503  0.13265309139E+01 -0.14887707252E+03 -0.55366458169E+03  0.59836028451E+03  0.17124374051E+03 0.  0.
        -24    2    3    3    0    0 -0.34027402738E+02 -0.13219688747E+03 -0.27475002688E+03  0.31668041643E+03  0.78517690287E+02 0.  0.
          6    2    1    2  501    0 -0.13265309139E+01  0.14887707252E+03 -0.10106631317E+04  0.10359701952E+04  0.17212825811E+03 0.  0.
         24    2    5    5    0    0  0.66318257307E+02  0.90453732349E+02 -0.63143350248E+03  0.64632124332E+03  0.80267630895E+02 0.  0.
          5    1    5    5  501    0 -0.67644788221E+02  0.58423340167E+02 -0.37922962919E+03  0.38964895189E+03  0.47000000000E+01 0. -1.
        -11    1    6    6    0    0  0.30515245057E+02  0.95876345723E+02 -0.42600372327E+03  0.43772437228E+03  0.00000000000E+00 0.  1.
         12    1    6    6    0    0  0.35803012250E+02 -0.54226133746E+01 -0.20542977921E+03  0.20859687104E+03  0.00000000000E+00 0. -1.
         -5    1    3    3    0  503  0.35353933652E+02 -0.16680185045E+02 -0.27891455481E+03  0.28167986808E+03  0.47000000000E+01 0.  1.
         11    1    4    4    0    0  0.35668449120E+01 -0.62757064348E+02 -0.56257188244E+02  0.84356640150E+02  0.00000000000E+00 0. -1.
        -12    1    4    4    0    0 -0.37594247650E+02 -0.69439823122E+02 -0.21849283863E+03  0.23232377628E+03  0.00000000000E+00 0.  1.
</event>
<event>
12    1  0.8313893E-002  0.1944816E+03  0.7818608E-02  0.1155339E+00
         21   -1    0    0  501  502  0.00000000000E+00  0.00000000000E+00  0.15221212706E+04  0.15221212706E+04  0.00000000000E+00 0. -1.
         21   -1    0    0  502  503 -0.00000000000E+00 -0.00000000000E+00 -0.67982821652E+02  0.67982821652E+02  0.00000000000E+00 0. -1.
         -6    2    1    2    0  503 -0.70391786843E+02 -0.43833952977E+02  0.87545646222E+02  0.20974219613E+03  0.17161331410E+03 0.  0.
        -24    2    3    3    0    0 -0.51950065073E+01 -0.81072110442E+02  0.64328988205E+02  0.13101225426E+03  0.80164311626E+02 0.  0.
          6    2    1    2  501    0  0.70391786843E+02  0.43833952977E+02  0.13665928027E+04  0.13803618961E+04  0.17591661865E+03 0.  0.
         24    2    5    5    0    0  0.68001285502E+02  0.83361922532E+02  0.71206590302E+03  0.72462130159E+03  0.80403952155E+02 0.  0.
          5    1    5    5  501    0  0.23905013407E+01 -0.39527969555E+02  0.65452689971E+03  0.65574059453E+03  0.47000000000E+01 0. -1.
        -11    1    6    6    0    0  0.76510887823E+02  0.47857501440E+02  0.38070507591E+03  0.39125517405E+03  0.00000000000E+00 0.  1.
         12    1    6    6    0    0 -0.85096023209E+01  0.35504421092E+02  0.33136082711E+03  0.33336612754E+03  0.00000000000E+00 0. -1.
         -5    1    3    3    0  503 -0.65196780335E+02  0.37238157465E+02  0.23216658017E+02  0.78729941871E+02  0.47000000000E+01 0.  1.
         11    1    4    4    0    0 -0.41032738734E+02 -0.32353054828E+02  0.40068084510E+02  0.65847226221E+02  0.00000000000E+00 0. -1.
        -12    1    4    4    0    0  0.35837732227E+02 -0.48719055614E+02  0.24260903695E+02  0.65165028038E+02  0.00000000000E+00 0.  1.
</event>
<event>
12    1  0.8313893E-002  0.2567683E+03  0.7818608E-02  0.1109451E+00
         21   -1    0    0  501  502  0.00000000000E+00  0.00000000000E+00  0.15891576424E+03  0.15891576424E+03  0.00000000000E+00 0. -1.
         21   -1    0    0  502  503 -0.00000000000E+00 -0.00000000000E+00 -0.44142831736E+03  0.44142831736E+03  0.00000000000E+00 0.  1.
         -6    2    1    2    0  503 -0.18092897611E+03 -0.50083967845E+02 -0.63280577742E+02  0.26445110198E+03  0.17517492853E+03 0.  0.
        -24    2    3    3    0    0 -0.80461207412E+02  0.39213428731E+02 -0.45612580129E+02  0.12879696189E+03  0.80600564738E+02 0.  0.
          6    2    1    2  501    0  0.18092897611E+03  0.50083967845E+02 -0.21923197538E+03  0.33589297961E+03  0.17180726554E+03 0.  0.
         24    2    5    5    0    0  0.18354457166E+02  0.23799666834E+02 -0.48380876389E+02  0.98546130640E+02  0.80419651981E+02 0.  0.
          5    1    5    5  501    0  0.16257451895E+03  0.26284301011E+02 -0.17085109899E+03  0.23734684897E+03  0.47000000000E+01 0. -1.
        -13    1    6    6    0    0  0.29506754979E+02  0.32480365809E+02 -0.63925367078E+02  0.77537573527E+02  0.00000000000E+00 0.  1.
         14    1    6    6    0    0 -0.11152297812E+02 -0.86806989752E+01  0.15544490689E+02  0.21008557113E+02  0.00000000000E+00 0. -1.
         -5    1    3    3    0  503 -0.10046776870E+03 -0.89297396575E+02 -0.17667997613E+02  0.13565414009E+03  0.47000000000E+01 0.  1.
         13    1    4    4    0    0  0.55122286461E+01 -0.16879969783E+02 -0.55847431918E+01  0.18614709265E+02  0.00000000000E+00 0. -1.
        -14    1    4    4    0    0 -0.85973436058E+02  0.56093398513E+02 -0.40027836938E+02  0.11018225263E+03  0.00000000000E+00 0.  1.
</event>
<event>
12    1  0.8313893E-002  0.2061646E+03  0.7818608E-02  0.1144784E+00
         21   -1    0    0  503  502  0.00000000000E+00  0.00000000000E+00  0.28166520430E+03  0.28166520430E+03  0.00000000000E+00 0.  1.
         21   -1    0    0  501  503 -0.00000000000E+00 -0.00000000000E+00 -0.15260845416E+03  0.15260845416E+03  0.00000000000E+00 0. -1.
          6    2    1    2  501    0  0.19970563679E+02  0.11172423270E+03  0.90865335196E+02  0.22530055598E+03  0.17211247427E+03 0.  0.
         24    2    3    3    0    0  0.10311147831E+02  0.99933130297E+02  0.12788822887E+03  0.18498779043E+03  0.88159702957E+02 0.  0.
         -6    2    1    2    0  502 -0.19970563679E+02 -0.11172423270E+03  0.38191414947E+02  0.20897310248E+03  0.17126016992E+03 0.  0.
        -24    2    5    5    0    0 -0.30855825664E+02 -0.12740977519E+03  0.72438869780E+02  0.16948255508E+03  0.79319693828E+02 0.  0.
          5    1    3    3  501    0  0.96594158480E+01  0.11791102400E+02 -0.37022893670E+02  0.40312765546E+02  0.47000000000E+01 0. -1.
        -13    1    4    4    0    0 -0.35617002885E+02  0.50290783614E+02  0.84692812400E+02  0.10474066203E+03  0.00000000000E+00 0.  1.
         14    1    4    4    0    0  0.45928150715E+02  0.49642346683E+02  0.43195416466E+02  0.80247128397E+02  0.00000000000E+00 0. -1.
         -5    1    5    5    0  502  0.10885261986E+02  0.15685542495E+02 -0.34247454833E+02  0.39490547405E+02  0.47000000000E+01 0.  1.
         11    1    6    6    0    0 -0.31531595745E+02 -0.80522844339E+01  0.67318554224E+01  0.33232494524E+02  0.00000000000E+00 0. -1.
        -12    1    6    6    0    0  0.67577008123E+00 -0.11935749076E+03  0.65707014357E+02  0.13625006055E+03  0.00000000000E+00 0.  1.
</event>
<event>
12    1  0.8313893E-002  0.1780507E+03  0.7818608E-02  0.1170936E+00
         21   -1    0    0  503  502  0.00000000000E+00  0.00000000000E+00  0.26127721277E+02  0.26127721277E+02  0.00000000000E+00 0.  1.
         21   -1    0    0  501  503 -0.00000000000E+00 -0.00000000000E+00 -0.14494914998E+04  0.14494914998E+04  0.00000000000E+00 0.  1.
          6    2    1    2  501    0  0.13023236548E+02 -0.39600750116E+02 -0.10217122457E+04  0.10362719529E+04  0.16800542658E+03 0.  0.
         24    2    3    3    0    0  0.63093404562E+01  0.39866870541E+02 -0.42823010729E+03  0.43743698592E+03  0.79629873248E+02 0.  0.
         -6    2    1    2    0  502 -0.13023236548E+02  0.39600750116E+02 -0.40165153291E+03  0.43934726821E+03  0.17310183158E+03 0.  0.
        -24    2    5    5    0    0 -0.51301137922E+01  0.61541234012E+02 -0.12052013747E+03  0.15721141844E+03  0.79854148313E+02 0.  0.
          5    1    3    3  501    0  0.67138960920E+01 -0.79467620658E+02 -0.59348213836E+03  0.59883496699E+03  0.47000000000E+01 0. -1.
        -13    1    4    4    0    0 -0.28666953217E+02 -0.18416116407E+01 -0.23287856094E+03  0.23464358053E+03  0.00000000000E+00 0.  1.
         14    1    4    4    0    0  0.34976293673E+02  0.41708482182E+02 -0.19535154635E+03  0.20279340538E+03  0.00000000000E+00 0. -1.
         -5    1    5    5    0  502 -0.78931227560E+01 -0.21940483895E+02 -0.28113139545E+03  0.28213584977E+03  0.47000000000E+01 0.  1.
         11    1    6    6    0    0  0.22303104068E+02  0.96167901605E+01 -0.85396646232E+02  0.88783434782E+02  0.00000000000E+00 0. -1.
        -12    1    6    6    0    0 -0.27433217860E+02  0.51924443851E+02 -0.35123491234E+02  0.68427983661E+02  0.00000000000E+00 0.  1.
</event>
<event>
12    1  0.8313893E-002  0.1810323E+03  0.7818608E-02  0.1166810E+00
         21   -1    0    0  501  502  0.00000000000E+00  0.00000000000E+00  0.21978319067E+03  0.21978319067E+03  0.00000000000E+00 0.  1.
         21   -1    0    0  502  503 -0.00000000000E+00 -0.00000000000E+00 -0.21912080283E+03  0.21912080283E+03  0.00000000000E+00 0. -1.
         -6    2    1    2    0  503  0.31128447263E+02  0.48827050527E+02 -0.12371623367E+03  0.21926170837E+03  0.17151364142E+03 0.  0.
        -24    2    3    3    0    0 -0.25661509191E+02  0.59646703350E+02 -0.12384530603E+03  0.16125937479E+03  0.80316149425E+02 0.  0.
          6    2    1    2  501    0 -0.31128447263E+02 -0.48827050527E+02  0.12437862151E+03  0.21964228513E+03  0.17152151713E+03 0.  0.
         24    2    5    5    0    0 -0.48937813602E+02 -0.71780178472E+02  0.30693014125E+02  0.12144298451E+03  0.79114055321E+02 0.  0.
          5    1    5    5  501    0  0.17809366339E+02  0.22953127945E+02  0.93685607384E+02  0.98199300623E+02  0.47000000000E+01 0. -1.
        -11    1    6    6    0    0 -0.14251671669E+02  0.16759477547E+02  0.18696538473E+01  0.22079081469E+02  0.00000000000E+00 0.  1.
         12    1    6    6    0    0 -0.34686141932E+02 -0.88539656019E+02  0.28823360278E+02  0.99363903042E+02  0.00000000000E+00 0. -1.
         -5    1    3    3    0  503  0.56789956454E+02 -0.10819652823E+02  0.12907235750E+00  0.58002333582E+02  0.47000000000E+01 0.  1.
         11    1    4    4    0    0  0.19160361766E+02 -0.83769736871E+00 -0.58532061305E+02  0.61594020818E+02  0.00000000000E+00 0. -1.
        -12    1    4    4    0    0 -0.44821870957E+02  0.60484400719E+02 -0.65313244721E+02  0.99665353972E+02  0.00000000000E+00 0.  1.
</event>
<event>
12    1  0.8313893E-002  0.1850601E+03  0.7818608E-02  0.1163038E+00
         21   -1    0    0  501  502  0.00000000000E+00  0.00000000000E+00  0.69989227924E+02  0.69989227924E+02  0.00000000000E+00 0.  1.
         21   -1    0    0  502  503 -0.00000000000E+00 -0.00000000000E+00 -0.95830481546E+03  0.95830481546E+03  0.00000000000E+00 0.  1.
         -6    2    1    2    0  503  0.43091415152E+02 -0.54149309153E+02 -0.80414545228E+03  0.82516493263E+03  0.17163402888E+03 0.  0.
        -24    2    3    3    0    0  0.87532048796E+01  0.13600235968E+02 -0.19770796633E+03  0.21397132343E+03  0.80210362721E+02 0.  0.
          6    2    1    2  501    0 -0.43091415152E+02  0.54149309153E+02 -0.84170135255E+02  0.20312911076E+03  0.17142872054E+03 0.  0.
         24    2    5    5    0    0  0.97462079312E+00  0.17589222117E+02  0.21855357311E+02  0.82539100553E+02  0.77619043130E+02 0.  0.
          5    1    5    5  501    0 -0.44066035945E+02  0.36560087036E+02 -0.10602549257E+03  0.12059001021E+03  0.47000000000E+01 0. -1.
        -11    1    6    6    0    0 -0.28047898866E+00  0.48375050206E+02  0.17386047182E+02  0.51405240856E+02  0.00000000000E+00 0.  1.
         12    1    6    6    0    0  0.12550997818E+01 -0.30785828089E+02  0.44693101282E+01  0.31133859696E+02  0.00000000000E+00 0. -1.
         -5    1    3    3    0  503  0.34338210272E+02 -0.67749545122E+02 -0.60643748595E+03  0.61119360919E+03  0.47000000000E+01 0.  1.
         11    1    4    4    0    0 -0.30677843518E+02 -0.12185396197E+02 -0.60788046516E+02  0.69172252837E+02  0.00000000000E+00 0. -1.
        -12    1    4    4    0    0  0.39431048397E+02  0.25785632165E+02 -0.13691991981E+03  0.14479907060E+03  0.00000000000E+00 0.  1.
</event>
<event>
12    1  0.8313893E-002  0.2638465E+03  0.7818608E-02  0.1104924E+00
         21   -1    0    0  501  502  0.00000000000E+00  0.00000000000E+00  0.99646365967E+03  0.99646365967E+03  0.00000000000E+00 0.  1.
         21   -1    0    0  502  503 -0.00000000000E+00 -0.00000000000E+00 -0.71989108940E+02  0.71989108940E+02  0.00000000000E+00 0.  1.
         -6    2    1    2    0  503  0.13153028619E+03  0.15005618444E+03  0.36734760542E+03  0.45200697005E+03  0.17189811834E+03 0.  0.
        -24    2    3    3    0    0  0.12877858337E+03  0.99192020488E+02  0.35679051757E+03  0.39977405756E+03  0.78082284876E+02 0.  0.
          6    2    1    2  501    0 -0.13153028619E+03 -0.15005618444E+03  0.55712694530E+03  0.61644579856E+03  0.17262072500E+03 0.  0.
         24    2    5    5    0    0 -0.87580048844E+02 -0.15166274492E+02  0.22160274132E+03  0.25213069782E+03  0.81005141711E+02 0.  0.
          5    1    5    5  501    0 -0.43950237350E+02 -0.13488990995E+03  0.33552420398E+03  0.36431510074E+03  0.47000000000E+01 0. -1.
        -11    1    6    6    0    0 -0.10346853373E+02 -0.28844427937E+02  0.11957014457E+03  0.12343450843E+03  0.00000000000E+00 0.  1.
         12    1    6    6    0    0 -0.77233195471E+02  0.13678153444E+02  0.10203259675E+03  0.12869618939E+03  0.00000000000E+00 0. -1.
         -5    1    3    3    0  503  0.27517028286E+01  0.50864163951E+02  0.10557087854E+02  0.52232912487E+02  0.47000000000E+01 0.  1.
         11    1    4    4    0    0  0.33987522486E+02  0.14720232569E+02  0.16952362583E+03  0.17352261134E+03  0.00000000000E+00 0. -1.
        -12    1    4    4    0    0  0.94791060880E+02  0.84471787919E+02  0.18726689174E+03  0.22625144623E+03  0.00000000000E+00 0.  1.
</event>
<event>
12    1  0.8313893E-002  0.1780853E+03  0.7818608E-02  0.1171201E+00
         21   -1    0    0  503  502  0.00000000000E+00  0.00000000000E+00  0.98329877430E+02  0.98329877430E+02  0.00000000000E+00 0.  1.
         21   -1    0    0  501  503 -0.00000000000E+00 -0.00000000000E+00 -0.33170997977E+03  0.33170997977E+03  0.00000000000E+00 0.  1.
          6    2    1    2  501    0  0.44601553512E+02 -0.30187745249E+01 -0.17163558919E+03  0.24733205629E+03  0.17238317499E+03 0.  0.
         24    2    3    3    0    0  0.28005053741E+02  0.36971433341E+02 -0.17938997683E+03  0.20309540794E+03  0.83161355332E+02 0.  0.
         -6    2    1    2    0  502 -0.44601553512E+02  0.30187745249E+01 -0.61744513149E+02  0.18270780090E+03  0.16604621053E+03 0.  0.
        -24    2    5    5    0    0 -0.85343884069E+01 -0.27769607124E+02 -0.93230640282E+02  0.12559185702E+03  0.78977056146E+02 0.  0.
          5    1    3    3  501    0  0.16596499771E+02 -0.39990207866E+02  0.77543876462E+01  0.44236648353E+02  0.47000000000E+01 0. -1.
        -13    1    4    4    0    0  0.54154576533E+02  0.93796135269E+01 -0.83709424645E+02  0.10013971781E+03  0.00000000000E+00 0.  1.
         14    1    4    4    0    0 -0.26149522792E+02  0.27591819814E+02 -0.95680552187E+02  0.10295569013E+03  0.00000000000E+00 0. -1.
         -5    1    5    5    0  502 -0.36067165105E+02  0.30788381649E+02  0.31486127133E+02  0.57115943879E+02  0.47000000000E+01 0.  1.
         11    1    6    6    0    0  0.36310708470E+01  0.22111958293E+02 -0.41722985988E+01  0.22793232563E+02  0.00000000000E+00 0. -1.
        -12    1    6    6    0    0 -0.12165459254E+02 -0.49881565418E+02 -0.89058341683E+02  0.10279862446E+03  0.00000000000E+00 0.  1.
</event>
<event>
12    1  0.8313893E-002  0.2672480E+03  0.7818608E-02  0.1103766E+00
         21   -1    0    0  503  502  0.00000000000E+00  0.00000000000E+00  0.18348222260E+03  0.18348222260E+03  0.00000000000E+00 0.  1.
         21   -1    0    0  501  503 -0.00000000000E+00 -0.00000000000E+00 -0.45185137724E+03  0.45185137724E+03  0.00000000000E+00 0.  1.
          6    2    1    2  501    0 -0.84630480173E+02  0.17818133614E+03 -0.25921560937E+03  0.36792893327E+03  0.17107910766E+03 0.  0.
         24    2    3    3    0    0 -0.41409808064E+02  0.16784560385E+03 -0.26201437485E+03  0.32315419768E+03  0.76747533600E+02 0.  0.
         -6    2    1    2    0  502  0.84630480173E+02 -0.17818133614E+03 -0.91535452680E+01  0.26740466656E+03  0.18030685397E+03 0.  0.
        -24    2    5    5    0    0 -0.98818909319E+01 -0.27309979157E+02 -0.26630526857E+02  0.88456938068E+02  0.79195695601E+02 0.  0.
          5    1    3    3  501    0 -0.43220672109E+02  0.10335732285E+02  0.27987654793E+01  0.44774735595E+02  0.47000000000E+01 0. -1.
        -13    1    4    4    0    0 -0.28562769195E+02  0.33535732770E+02 -0.11730438349E+03  0.12530281538E+03  0.00000000000E+00 0.  1.
         14    1    4    4    0    0 -0.12847038868E+02  0.13430987108E+03 -0.14470999136E+03  0.19785138229E+03  0.00000000000E+00 0. -1.
         -5    1    5    5    0  502  0.94512371105E+02 -0.15087135698E+03  0.17476981589E+02  0.17894772850E+03  0.47000000000E+01 0.  1.
         13    1    6    6    0    0  0.13110741015E+02  0.24197521878E+02 -0.12947555106E+02  0.30414647429E+02  0.00000000000E+00 0. -1.
        -14    1    6    6    0    0 -0.22992631947E+02 -0.51507501035E+02 -0.13682971751E+02  0.58042290639E+02  0.00000000000E+00 0.  1.
</event>
<event>
12    1  0.8313893E-002  0.1971075E+03  0.7818608E-02  0.1152771E+00
         21   -1    0    0  501  502  0.00000000000E+00  0.00000000000E+00  0.15138312456E+03  0.15138312456E+03  0.00000000000E+00 0. -1.
         21   -1    0    0  502  503 -0.00000000000E+00 -0.00000000000E+00 -0.47350056545E+03  0.47350056545E+03  0.00000000000E+00 0.  1.
         -6    2    1    2    0  503 -0.41440644749E+02 -0.92476696680E+02 -0.37357759299E+03  0.42116940925E+03  0.16599453859E+03 0.  0.
        -24    2    3    3    0    0 -0.66313238209E+01 -0.19378461222E+02 -0.30133932069E+03  0.31256232461E+03  0.80438307756E+02 0.  0.
          6    2    1    2  501    0  0.41440644749E+02  0.92476696680E+02  0.51460152092E+02  0.20371428076E+03  0.16906239814E+03 0.  0.
         24    2    5    5    0    0  0.43502429843E+02  0.94252301547E+02 -0.18306783538E+02  0.13373629109E+03  0.82306132717E+02 0.  0.
          5    1    5    5  501    0 -0.20617850940E+01 -0.17756048670E+01  0.69766935630E+02  0.69977989665E+02  0.47000000000E+01 0. -1.
        -13    1    6    6    0    0  0.33136587298E+02 -0.12534210941E+01 -0.17869678191E+02  0.37668685680E+02  0.00000000000E+00 0.  1.
         14    1    6    6    0    0  0.10365842545E+02  0.95505722641E+02 -0.43710534605E+00  0.96067605414E+02  0.00000000000E+00 0. -1.
         -5    1    3    3    0  503 -0.34809320928E+02 -0.73098235458E+02 -0.72238272295E+02  0.10860708464E+03  0.47000000000E+01 0.  1.
         11    1    4    4    0    0  0.24188325062E+02  0.79074318046E+01 -0.36217598460E+02  0.44264172705E+02  0.00000000000E+00 0. -1.
        -12    1    4    4    0    0 -0.30819648883E+02 -0.27285893027E+02 -0.26512172223E+03  0.26829815190E+03  0.00000000000E+00 0.  1.
</event>
<event>
12    1  0.8313893E-002  0.2097169E+03  0.7818608E-02  0.1141931E+00
         21   -1    0    0  501  502  0.00000000000E+00  0.00000000000E+00  0.21439176132E+03  0.21439176132E+03  0.00000000000E+00 0. -1.
         21   -1    0    0  502  503 -0.00000000000E+00 -0.00000000000E+00 -0.31957713251E+03  0.31957713251E+03  0.00000000000E+00 0. -1.
         -6    2    1    2    0  503 -0.80850961821E+02  0.87243040738E+02 -0.21278044186E+03  0.29826167996E+03  0.17186124377E+03 0.  0.
        -24    2    3    3    0    0 -0.40380050703E+02  0.53053797000E+02 -0.31136119734E+02  0.10899058128E+03  0.80400466327E+02 0.  0.
          6    2    1    2  501    0  0.80850961821E+02 -0.87243040738E+02  0.10759507066E+03  0.23570721388E+03  0.17272221993E+03 0.  0.
         24    2    5    5    0    0 -0.21635465735E+02 -0.13626380647E+02  0.43665739649E+02  0.94173013629E+02  0.79423472915E+02 0.  0.
          5    1    5    5  501    0  0.10248642756E+03 -0.73616660091E+02  0.63929331015E+02  0.14153420025E+03  0.47000000000E+01 0. -1.
        -11    1    6    6    0    0 -0.24377199297E+02 -0.38052645021E+00  0.64713384266E+02  0.69153559193E+02  0.00000000000E+00 0.  1.
         12    1    6    6    0    0  0.27417335621E+01 -0.13245854197E+02 -0.21047644617E+02  0.25019454436E+02  0.00000000000E+00 0. -1.
         -5    1    3    3    0  503 -0.40470911119E+02  0.34189243738E+02 -0.18164432212E+03  0.18927109867E+03  0.47000000000E+01 0.  1.
         13    1    4    4    0    0  0.23544359284E+02  0.19010593705E+02 -0.26767288954E+00  0.30262372278E+02  0.00000000000E+00 0. -1.
        -14    1    4    4    0    0 -0.63924409986E+02  0.34043203295E+02 -0.30868446844E+02  0.78728209006E+02  0.00000000000E+00 0.  1.
</event>
<event>
12    1  0.8313893E-002  0.2042307E+03  0.7818608E-02  0.1146486E+00
         21   -1    0    0  503  502  0.00000000000E+00  0.00000000000E+00  0.14926331317E+03  0.14926331317E+03  0.00000000000E+00 0.  1.
         21   -1    0    0  501  503 -0.00000000000E+00 -0.00000000000E+00 -0.46689060437E+03  0.46689060437E+03  0.00000000000E+00 0. -1.
          6    2    1    2  501    0 -0.26122995351E+02  0.10603870078E+03 -0.35464152839E+03  0.40859613341E+03  0.17103674936E+03 0.  0.
         24    2    3    3    0    0 -0.75940070455E+02  0.86793106669E+02 -0.19473904968E+03  0.23994552843E+03  0.79690786639E+02 0.  0.
         -6    2    1    2    0  502  0.26122995351E+02 -0.10603870078E+03  0.37014237187E+02  0.20755778412E+03  0.17257915009E+03 0.  0.
        -24    2    5    5    0    0 -0.28292625778E+02 -0.19704846008E+02 -0.27278589574E+02  0.86850485773E+02  0.74900813081E+02 0.  0.
          5    1    3    3  501    0  0.49817075104E+02  0.19245594109E+02 -0.15990247871E+03  0.16865060499E+03  0.47000000000E+01 0. -1.
        -11    1    4    4    0    0 -0.43978133993E+02  0.56931459907E+02 -0.47156825113E+02  0.86017635119E+02  0.00000000000E+00 0.  1.
         12    1    4    4    0    0 -0.31961936462E+02  0.29861646762E+02 -0.14758222457E+03  0.15392789331E+03  0.00000000000E+00 0. -1.
         -5    1    5    5    0  502  0.54415621129E+02 -0.86333854771E+02  0.64292826761E+02  0.12070729835E+03  0.47000000000E+01 0.  1.
         11    1    6    6    0    0 -0.28485844990E+01 -0.32493047638E+02 -0.43273043624E+02  0.54189195260E+02  0.00000000000E+00 0. -1.
        -12    1    6    6    0    0 -0.25444041279E+02  0.12788201631E+02  0.15994454050E+02  0.32661290512E+02  0.00000000000E+00 0.  1.
</event>
<event>
12    1  0.8313893E-002  0.2328285E+03  0.7818608E-02  0.1124718E+00
         21   -1    0    0  503  502  0.00000000000E+00  0.00000000000E+00  0.34856577816E+03  0.34856577816E+03  0.00000000000E+00 0. -1.
         21   -1    0    0  501  503 -0.00000000000E+00 -0.00000000000E+00 -0.16039100569E+03  0.16039100569E+03  0.00000000000E+00 0. -1.
          6    2    1    2  501    0  0.15237328193E+03  0.38548456624E+02  0.48762831345E+02  0.23758099393E+03  0.17135727122E+03 0.  0.
         24    2    3    3    0    0  0.52407814762E+02  0.27261888714E+02 -0.36625963319E+02  0.10554381168E+03  0.79424463301E+02 0.  0.
         -6    2    1    2    0  502 -0.15237328193E+03 -0.38548456624E+02  0.13941194113E+03  0.27137578991E+03  0.17177173652E+03 0.  0.
        -24    2    5    5    0    0 -0.91174907045E+02 -0.12536007011E+02  0.16138658076E+03  0.20118417068E+03  0.77197324661E+02 0.  0.
          5    1    3    3  501    0  0.99965467170E+02  0.11286567910E+02  0.85388794664E+02  0.13203718225E+03  0.47000000000E+01 0. -1.
        -13    1    4    4    0    0  0.17290640666E+02 -0.25053793916E+02 -0.29055001634E+02  0.42081491944E+02  0.00000000000E+00 0.  1.
         14    1    4    4    0    0  0.35117174096E+02  0.52315682631E+02 -0.75709616849E+01  0.63462319737E+02  0.00000000000E+00 0. -1.
         -5    1    5    5    0  502 -0.61198374887E+02 -0.26012449613E+02 -0.21974639638E+02  0.70191619235E+02  0.47000000000E+01 0.  1.
         13    1    6    6    0    0 -0.45832323397E+02 -0.41935580511E+02  0.60384658798E+02  0.86634299206E+02  0.00000000000E+00 0. -1.
        -14    1    6    6    0    0 -0.45342583648E+02  0.29399573499E+02  0.10100192197E+03  0.11454987147E+03  0.00000000000E+00 0.  1.
</event>
<event>
12    1  0.8313893E-002  0.1980918E+03  0.7818608E-02  0.1151646E+00
         21   -1    0    0  501  502  0.00000000000E+00  0.00000000000E+00  0.95453166148E+02  0.95453166148E+02  0.00000000000E+00 0.  1.
         21   -1    0    0  502  503 -0.00000000000E+00 -0.00000000000E+00 -0.50786576178E+03  0.50786576178E+03  0.00000000000E+00 0.  1.
         -6    2    1    2    0  503 -0.79970333160E+02  0.58337352403E+02 -0.33919353357E+03  0.39212855076E+03  0.17004130743E+03 0.  0.
        -24    2    3    3    0    0  0.24267904887E+02  0.14112575535E+02 -0.15225543327E+03  0.17352071809E+03  0.78355769729E+02 0.  0.
          6    2    1    2  501    0  0.79970333160E+02 -0.58337352403E+02 -0.73219062060E+02  0.21119037717E+03  0.17158625670E+03 0.  0.
         24    2    5    5    0    0  0.24552770075E+02 -0.26097435700E+01 -0.97948706713E+02  0.12866572625E+03  0.79694859839E+02 0.  0.
          5    1    5    5  501    0  0.55417563085E+02 -0.55727608833E+02  0.24729644653E+02  0.82524650918E+02  0.47000000000E+01 0. -1.
        -13    1    6    6    0    0  0.74409702930E+01  0.12134227796E+02  0.10628227114E+02  0.17764198115E+02  0.00000000000E+00 0.  1.
         14    1    6    6    0    0  0.17111799782E+02 -0.14743971366E+02 -0.10857693383E+03  0.11090152813E+03  0.00000000000E+00 0. -1.
         -5    1    3    3    0  503 -0.10423823805E+03  0.44224776868E+02 -0.18693810030E+03  0.21860783267E+03  0.47000000000E+01 0.  1.
         13    1    4    4    0    0 -0.42885266681E+01  0.36386130406E+02 -0.11842090380E+03  0.12395907552E+03  0.00000000000E+00 0. -1.
        -14    1    4    4    0    0  0.28556431555E+02 -0.22273554870E+02 -0.33834529472E+02  0.49561642571E+02  0.00000000000E+00 0.  1.
</event>
<event>
12    1  0.8313893E-002  0.1798697E+03  0.7818608E-02  0.1168231E+00
         21   -1    0    0  503  502  0.00000000000E+00  0.00000000000E+00  0.32344922645E+03  0.32344922645E+03  0.00000000000E+00 0.  1.
         21   -1    0    0  501  503 -0.00000000000E+00 -0.00000000000E+00 -0.14345633810E+03  0.14345633810E+03  0.00000000000E+00 0.  1.
          6    2    1    2  501    0  0.50153984906E+02 -0.14799673893E+02 -0.39254100363E+02  0.18410325355E+03  0.17210075834E+03 0.  0.
         24    2    3    3    0    0  0.26861730612E+02 -0.14463013328E+02 -0.91959256107E+02  0.12628832561E+03  0.81003117692E+02 0.  0.
         -6    2    1    2    0  502 -0.50153984906E+02  0.14799673893E+02  0.21924698871E+03  0.28280231101E+03  0.17080237850E+03 0.  0.
        -24    2    5    5    0    0 -0.79434227192E+02  0.38254971925E+02  0.21456563642E+03  0.24470390351E+03  0.77899606782E+02 0.  0.
          5    1    3    3  501    0  0.23292254294E+02 -0.33666056503E+00  0.52705155743E+02  0.57814927937E+02  0.47000000000E+01 0. -1.
        -13    1    4    4    0    0  0.26729534607E+01  0.26495657721E+02 -0.67997101264E+02  0.73025819671E+02  0.00000000000E+00 0.  1.
         14    1    4    4    0    0  0.24188777151E+02 -0.40958671050E+02 -0.23962154842E+02  0.53262505939E+02  0.00000000000E+00 0. -1.
         -5    1    5    5    0  502  0.29280242286E+02 -0.23455298032E+02  0.46813522917E+01  0.38098407491E+02  0.47000000000E+01 0.  1.
         13    1    6    6    0    0 -0.59228527613E+02  0.62126241994E+02  0.14642987632E+03  0.16973331172E+03  0.00000000000E+00 0. -1.
        -14    1    6    6    0    0 -0.20205699579E+02 -0.23871270069E+02  0.68135760098E+02  0.74970591796E+02  0.00000000000E+00 0.  1.
</event>
<event>
12    1  0.8313893E-002  0.2348600E+03  0.7818608E-02  0.1123385E+00
         21   -1    0    0  503  502  0.00000000000E+00  0.00000000000E+00  0.18937869313E+04  0.18937869313E+04  0.00000000000E+00 0.  1.
         21   -1    0    0  501  503 -0.00000000000E+00 -0.00000000000E+00 -0.31955438327E+02  0.31955438327E+02  0.00000000000E+00 0. -1.
          6    2    1    2  501    0 -0.50787608860E+02  0.15115165908E+03  0.64132771451E+03  0.68297908988E+03  0.17243257973E+03 0.  0.
         24    2    3    3    0    0 -0.85980145963E+02  0.76567318934E+02  0.50178679257E+03  0.52082145867E+03  0.78802707967E+02 0.  0.
         -6    2    1    2    0  502  0.50787608860E+02 -0.15115165908E+03  0.12205037785E+04  0.12427632798E+04  0.17147854385E+03 0.  0.
        -24    2    5    5    0    0 -0.84490532403E+01 -0.85098607924E+02  0.38203721111E+03  0.39960240408E+03  0.80103003052E+02 0.  0.
          5    1    3    3  501    0  0.35192537104E+02  0.74584340148E+02  0.13954092194E+03  0.16215763121E+03  0.47000000000E+01 0. -1.
        -13    1    4    4    0    0 -0.35935846160E+02  0.15763526434E+02  0.32408483164E+03  0.32645191362E+03  0.00000000000E+00 0.  1.
         14    1    4    4    0    0 -0.50044299803E+02  0.60803792500E+02  0.17770196093E+03  0.19436954505E+03  0.00000000000E+00 0. -1.
         -5    1    5    5    0  502  0.59236662100E+02 -0.66053051159E+02  0.83846656737E+03  0.84316087570E+03  0.47000000000E+01 0.  1.
         13    1    6    6    0    0 -0.32093074453E+02 -0.58462668787E+02  0.32916308522E+03  0.33585143403E+03  0.00000000000E+00 0. -1.
        -14    1    6    6    0    0  0.23644021212E+02 -0.26635939137E+02  0.52874125894E+02  0.63750970046E+02  0.00000000000E+00 0.  1.
</event>
<event>
12    1  0.8313893E-002  0.2139037E+03  0.7818608E-02  0.1138512E+00
         21   -1    0    0  503  502  0.00000000000E+00  0.00000000000E+00  0.99517113086E+02  0.99517113086E+02  0.00000000000E+00 0.  1.
         21   -1    0    0  501  503 -0.00000000000E+00 -0.00000000000E+00 -0.49323731285E+03  0.49323731285E+03  0.00000000000E+00 0. -1.
          6    2    1    2  501    0 -0.11480846133E+03  0.52513205584E+02 -0.27406752943E+03  0.34765940508E+03  0.17267145595E+03 0.  0.
         24    2    3    3    0    0 -0.93364509954E+02  0.91653036777E+02 -0.25694958400E+03  0.29962937810E+03  0.81470636623E+02 0.  0.
         -6    2    1    2    0  502  0.11480846133E+03 -0.52513205584E+02 -0.11965267034E+03  0.24509502086E+03  0.17267364645E+03 0.  0.
        -24    2    5    5    0    0  0.88173032582E+02  0.22744890993E+02 -0.30004722138E+02  0.12496146276E+03  0.80145306062E+02 0.  0.
          5    1    3    3  501    0 -0.21443951373E+02 -0.39139831193E+02 -0.17117945433E+02  0.48030026985E+02  0.47000000000E+01 0. -1.
        -13    1    4    4    0    0 -0.73094445191E+02  0.53243648929E+02 -0.91781537652E+02  0.12884694301E+03  0.00000000000E+00 0.  1.
         14    1    4    4    0    0 -0.20270064764E+02  0.38409387848E+02 -0.16516804635E+03  0.17078243509E+03  0.00000000000E+00 0. -1.
         -5    1    5    5    0  502  0.26635428745E+02 -0.75258096578E+02 -0.89647948200E+02  0.12013355810E+03  0.47000000000E+01 0.  1.
         11    1    6    6    0    0  0.42577851459E+02  0.49435303538E+01 -0.55217904040E+02  0.69902280748E+02  0.00000000000E+00 0. -1.
        -12    1    6    6    0    0  0.45595181123E+02  0.17801360640E+02  0.25213181903E+02  0.55059182013E+02  0.00000000000E+00 0.  1.
</event>
<event>
12    1  0.8313893E-002  0.2509647E+03  0.7818608E-02  0.1112859E+00
         21   -1    0    0  503  502  0.00000000000E+00  0.00000000000E+00  0.61843088261E+03  0.61843088261E+03  0.00000000000E+00 0.  1.
         21   -1    0    0  501  503 -0.00000000000E+00 -0.00000000000E+00 -0.28417142834E+03  0.28417142834E+03  0.00000000000E+00 0. -1.
          6    2    1    2  501    0  0.18144801461E+03  0.94155617530E+01 -0.19490303390E+03  0.31694352792E+03  0.17162159672E+03 0.  0.
         24    2    3    3    0    0  0.94706400030E+02 -0.61477973325E+02 -0.10426870243E+03  0.17276768717E+03  0.78916842391E+02 0.  0.
         -6    2    1    2    0  502 -0.18144801461E+03 -0.94155617530E+01  0.52916248818E+03  0.58565878303E+03  0.17312202759E+03 0.  0.
        -24    2    5    5    0    0 -0.13342022967E+02  0.79351823680E+01  0.19385868373E+03  0.21014393110E+03  0.79613477644E+02 0.  0.
          5    1    3    3  501    0  0.86741614578E+02  0.70893535078E+02 -0.90634331472E+02  0.14417584075E+03  0.47000000000E+01 0. -1.
        -13    1    4    4    0    0  0.83651761925E+02 -0.44201433166E+02 -0.11556338369E+03  0.14935286946E+03  0.00000000000E+00 0.  1.
         14    1    4    4    0    0  0.11054638105E+02 -0.17276540159E+02  0.11294681260E+02  0.23414817707E+02  0.00000000000E+00 0. -1.
         -5    1    5    5    0  502 -0.16810599164E+03 -0.17350744121E+02  0.33530380444E+03  0.37551485193E+03  0.47000000000E+01 0.  1.
         11    1    6    6    0    0 -0.15818734479E+02 -0.41505338617E+01  0.19678608684E+03  0.19746448609E+03  0.00000000000E+00 0. -1.
        -12    1    6    6    0    0  0.24767115123E+01  0.12085716230E+02 -0.29274031111E+01  0.12679445007E+02  0.00000000000E+00 0.  1.
</event>
<event>
12    1  0.8313893E-002  0.2918001E+03  0.7818608E-02  0.1089709E+00
         21   -1    0    0  503  502  0.00000000000E+00  0.00000000000E+00  0.64568722980E+03  0.64568722980E+03  0.00000000000E+00 0.  1.
         21   -1    0    0  501  503 -0.00000000000E+00 -0.00000000000E+00 -0.13121833116E+03  0.13121833116E+03  0.00000000000E+00 0.  1.
          6    2    1    2  501    0 -0.21637297118E+03  0.83674832142E+02  0.27695259355E+03  0.40065924985E+03  0.17322342574E+03 0.  0.
         24    2    3    3    0    0 -0.14833558114E+03  0.28642681911E+02  0.26000479183E+03  0.31140152198E+03  0.80898505882E+02 0.  0.
         -6    2    1    2    0  502  0.21637297118E+03 -0.83674832142E+02  0.23751630510E+03  0.37624631111E+03  0.17699873235E+03 0.  0.
        -24    2    5    5    0    0  0.11022202845E+03 -0.84460769478E+02  0.21381446278E+03  0.26737708833E+03  0.80569012267E+02 0.  0.
          5    1    3    3  501    0 -0.68037390032E+02  0.55032150231E+02  0.16947801714E+02  0.89257727869E+02  0.47000000000E+01 0. -1.
        -13    1    4    4    0    0 -0.63442120756E+02  0.13804632278E+02  0.42905745142E+02  0.77822705714E+02  0.00000000000E+00 0.  1.
         14    1    4    4    0    0 -0.84893460388E+02  0.14838049632E+02  0.21709904669E+03  0.23357881626E+03  0.00000000000E+00 0. -1.
         -5    1    5    5    0  502  0.10615094273E+03  0.78593733573E+00  0.23701842320E+02  0.10886922278E+03  0.47000000000E+01 0.  1.
         13    1    6    6    0    0  0.77001065535E+00 -0.40118880265E+02  0.35930098233E+02  0.53861762217E+02  0.00000000000E+00 0. -1.
        -14    1    6    6    0    0  0.10945201779E+03 -0.44341889213E+02  0.17788436454E+03  0.21351532612E+03  0.00000000000E+00 0.  1.
</event>
<event>
12    1  0.8313893E-002  0.1921422E+03  0.7818608E-02  0.1156789E+00
         21   -1    0    0  501  502  0.00000000000E+00  0.00000000000E+00  0.75440595883E+02  0.75440595883E+02  0.00000000000E+00 0.  1.
         21   -1    0    0  502  503 -0.00000000000E+00 -0.00000000000E+00 -0.52659380344E+03  0.52659380344E+03  0.00000000000E+00 0.  1.
         -6    2    1    2    0  503  0.75959959217E+01  0.84610546956E+02 -0.30796464609E+03  0.36240640036E+03  0.17111262949E+03 0.  0.
        -24    2    3    3    0    0 -0.33800093468E+02  0.10975772214E+03 -0.25248823426E+03  0.28861115047E+03  0.79730068679E+02 0.  0.
          6    2    1    2  501    0 -0.75959959217E+01 -0.84610546956E+02 -0.14318856146E+03  0.23962799896E+03  0.17234259468E+03 0.  0.
         24    2    5    5    0    0 -0.53063494843E+02 -0.35907510821E+02 -0.13925144504E+03  0.17271858204E+03  0.79596858080E+02 0.  0.
          5    1    5    5  501    0  0.45467498921E+02 -0.48703036135E+02 -0.39371164221E+01  0.66909416920E+02  0.47000000000E+01 0. -1.
        -11    1    6    6    0    0  0.24314455735E+01 -0.18264869602E+02 -0.10186516583E+03  0.10351825636E+03  0.00000000000E+00 0.  1.
         12    1    6    6    0    0 -0.55494940416E+02 -0.17642641219E+02 -0.37386279208E+02  0.69200325679E+02  0.00000000000E+00 0. -1.
         -5    1    3    3    0  503  0.41396089389E+02 -0.25147175183E+02 -0.55476411831E+02  0.73795249888E+02  0.47000000000E+01 0.  1.
         13    1    4    4    0    0 -0.24581047463E+02  0.49738934745E+02 -0.20248976458E+03  0.20995307638E+03  0.00000000000E+00 0. -1.
        -14    1    4    4    0    0 -0.92190460052E+01  0.60018787393E+02 -0.49998469683E+02  0.78658074093E+02  0.00000000000E+00 0.  1.
</event>
<event>
12    1  0.8313893E-002  0.2722343E+03  0.7818608E-02  0.1100047E+00
         21   -1    0    0  501  502  0.00000000000E+00  0.00000000000E+00  0.50688796178E+02  0.50688796178E+02  0.00000000000E+00 0.  1.
         21   -1    0    0  502  503 -0.00000000000E+00 -0.00000000000E+00 -0.28789448873E+04  0.28789448873E+04  0.00000000000E+00 0. -1.
         -6    2    1    2    0  503  0.20788878928E+03 -0.34355780156E+02 -0.24419176980E+04  0.24570145349E+04  0.17193112713E+03 0.  0.
        -24    2    3    3    0    0  0.15769321154E+03  0.40834479557E+02 -0.15877378414E+04  0.15980509218E+04  0.79502779576E+02 0.  0.
          6    2    1    2  501    0 -0.20788878928E+03  0.34355780156E+02 -0.38633839307E+03  0.47261914854E+03  0.17237586047E+03 0.  0.
         24    2    5    5    0    0 -0.21655298531E+03  0.18673869498E+02 -0.39032468953E+03  0.45367261392E+03  0.78876920033E+02 0.  0.
          5    1    5    5  501    0  0.86641960279E+01  0.15681910657E+02  0.39862964665E+01  0.18946534622E+02  0.47000000000E+01 0. -1.
        -13    1    6    6    0    0 -0.41749084105E+02  0.31365820483E+02 -0.58572419379E+02  0.78469924367E+02  0.00000000000E+00 0.  1.
         14    1    6    6    0    0 -0.17480390120E+03 -0.12691950985E+02 -0.33175227015E+03  0.37520268955E+03  0.00000000000E+00 0. -1.
         -5    1    3    3    0  503  0.50195577736E+02 -0.75190259713E+02 -0.85417985663E+03  0.85896361311E+03  0.47000000000E+01 0.  1.
         13    1    4    4    0    0  0.38635805425E+02 -0.17171322199E+02 -0.59784614770E+03  0.59933929963E+03  0.00000000000E+00 0. -1.
        -14    1    4    4    0    0  0.11905740612E+03  0.58005801756E+02 -0.98989169369E+03  0.99871162215E+03  0.00000000000E+00 0.  1.
</event>
<event>
12    1  0.8313893E-002  0.3579576E+03  0.7818608E-02  0.1059434E+00
         21   -1    0    0  501  502  0.00000000000E+00  0.00000000000E+00  0.11444660417E+04  0.11444660417E+04  0.00000000000E+00 0. -1.
         21   -1    0    0  502  503 -0.00000000000E+00 -0.00000000000E+00 -0.11213958933E+03  0.11213958933E+03  0.00000000000E+00 0.  1.
         -6    2    1    2    0  503 -0.84449804728E+02 -0.30200931822E+03  0.48389760655E+03  0.60190575448E+03  0.17260430425E+03 0.  0.
        -24    2    3    3    0    0 -0.10033240524E+03 -0.12888018247E+03  0.25978948607E+03  0.31822901186E+03  0.84275939269E+02 0.  0.
          6    2    1    2  501    0  0.84449804728E+02  0.30200931822E+03  0.54842884585E+03  0.65469987658E+03  0.17180317701E+03 0.  0.
         24    2    5    5    0    0  0.82322136092E+02  0.31948312511E+03  0.52203945205E+03  0.62263196418E+03  0.79366063272E+02 0.  0.
          5    1    5    5  501    0  0.21276686362E+01 -0.17473806890E+02  0.26389393799E+02  0.32067912407E+02  0.47000000000E+01 0. -1.
        -13    1    6    6    0    0  0.34161116569E+02  0.58031801378E+02  0.63268850971E+02  0.92399238956E+02  0.00000000000E+00 0.  1.
         14    1    6    6    0    0  0.48161019523E+02  0.26145132373E+03  0.45877060108E+03  0.53023272522E+03  0.00000000000E+00 0. -1.
         -5    1    3    3    0  503  0.15882600509E+02 -0.17312913574E+03  0.22410812048E+03  0.28367674263E+03  0.47000000000E+01 0.  1.
         13    1    4    4    0    0  0.42137059976E+01 -0.25707538767E+02  0.90140024251E+02  0.93828869969E+02  0.00000000000E+00 0. -1.
        -14    1    4    4    0    0 -0.10454611123E+03 -0.10317264371E+03  0.16964946182E+03  0.22440014189E+03  0.00000000000E+00 0.  1.
</event>
<event>
12    1  0.8313893E-002  0.1981818E+03  0.7818608E-02  0.1152245E+00
         21   -1    0    0  503  502  0.00000000000E+00  0.00000000000E+00  0.50083261011E+02  0.50083261011E+02  0.00000000000E+00 0.  1.
         21   -1    0    0  501  503 -0.00000000000E+00 -0.00000000000E+00 -0.78628845833E+03  0.78628845833E+03  0.00000000000E+00 0.  1.
          6    2    1    2  501    0 -0.95265360756E+02  0.17414465832E+01 -0.43004642420E+03  0.47166740738E+03  0.16867630130E+03 0.  0.
         24    2    3    3    0    0 -0.10662075522E+03  0.47080699945E+02 -0.26975735149E+03  0.30463666258E+03  0.80311205640E+02 0.  0.
         -6    2    1    2    0  502  0.95265360756E+02 -0.17414465832E+01 -0.30615877312E+03  0.36470431197E+03  0.17377433415E+03 0.  0.
        -24    2    5    5    0    0  0.11373223745E+03 -0.74662768901E+01 -0.31393522885E+03  0.34334166980E+03  0.79607833657E+02 0.  0.
          5    1    3    3  501    0  0.11355394468E+02 -0.45339253362E+02 -0.16028907271E+03  0.16703074480E+03  0.47000000000E+01 0. -1.
        -13    1    4    4    0    0 -0.79006735966E+02  0.60704116184E+02 -0.14362647957E+03  0.17480165812E+03  0.00000000000E+00 0.  1.
         14    1    4    4    0    0 -0.27614019259E+02 -0.13623416239E+02 -0.12613087192E+03  0.12983500445E+03  0.00000000000E+00 0. -1.
         -5    1    5    5    0  502 -0.18466876694E+02  0.57248303069E+01  0.77764557252E+01  0.21362642171E+02  0.47000000000E+01 0.  1.
         11    1    6    6    0    0 -0.58822707483E+01  0.41406846216E+01 -0.33215776542E-02  0.71934963213E+01  0.00000000000E+00 0. -1.
        -12    1    6    6    0    0  0.11961450820E+03 -0.11606961512E+02 -0.31393190727E+03  0.33614817347E+03  0.00000000000E+00 0.  1.
</event>
<event>
12    1  0.8313893E-002  0.3624280E+03  0.7818608E-02  0.1057640E+00
         21   -1    0    0  503  502  0.00000000000E+00  0.00000000000E+00  0.44118530099E+03  0.44118530099E+03  0.00000000000E+00 0.  1.
         21   -1    0    0  501  503 -0.00000000000E+00 -0.00000000000E+00 -0.35914073993E+03  0.35914073993E+03  0.00000000000E+00 0.  1.
          6    2    1    2  501    0  0.52701837488E+00 -0.32023758649E+03 -0.12460343129E+03  0.38312413152E+03  0.16942755239E+03 0.  0.
         24    2    3    3    0    0 -0.29271449159E+01 -0.22935516456E+03 -0.19042861520E+02  0.24370867415E+03  0.80118210139E+02 0.  0.
         -6    2    1    2    0  502 -0.52701837488E+00  0.32023758649E+03  0.20664799235E+03  0.41720190940E+03  0.16971049146E+03 0.  0.
        -24    2    5    5    0    0  0.46200650338E+02  0.13358956838E+03  0.53294907224E+02  0.17111205506E+03  0.80363644644E+02 0.  0.
          5    1    3    3  501    0  0.34541632908E+01 -0.90882421936E+02 -0.10556056977E+03  0.13941545736E+03  0.47000000000E+01 0. -1.
        -11    1    4    4    0    0  0.19536296249E+02 -0.47518538642E+02 -0.31161818304E+02  0.60089410929E+02  0.00000000000E+00 0.  1.
         12    1    4    4    0    0 -0.22463441165E+02 -0.18183662592E+03  0.12118956784E+02  0.18361926322E+03  0.00000000000E+00 0. -1.
         -5    1    5    5    0  502 -0.46727668713E+02  0.18664801812E+03  0.15335308513E+03  0.24608985434E+03  0.47000000000E+01 0.  1.
         13    1    6    6    0    0  0.34946952076E+02  0.60912437064E+02  0.66125137949E+02  0.96458013235E+02  0.00000000000E+00 0. -1.
        -14    1    6    6    0    0  0.11253698262E+02  0.72677131314E+02 -0.12830230725E+02  0.74654041827E+02  0.00000000000E+00 0.  1.
</event>
<event>
12    1  0.8313893E-002  0.1994175E+03  0.7818608E-02  0.1150822E+00
         21   -1    0    0  503  502  0.00000000000E+00  0.00000000000E+00  0.83536498955E+03  0.83536498955E+03  0.00000000000E+00 0.  1.
         21   -1    0    0  501  503 -0.00000000000E+00 -0.00000000000E+00 -0.71299590684E+02  0.71299590684E+02  0.00000000000E+00 0. -1.
          6    2    1    2  501    0 -0.17480298741E+02 -0.94325200648E+02  0.11533042069E+03  0.22797141310E+03  0.17165970678E+03 0.  0.
         24    2    3    3    0    0 -0.33211124875E+02 -0.10652843287E+03  0.13931978772E+03  0.19644432160E+03  0.82030984466E+02 0.  0.
         -6    2    1    2    0  502  0.17480298741E+02  0.94325200648E+02  0.64873497818E+03  0.67869316714E+03  0.17482716862E+03 0.  0.
        -24    2    5    5    0    0  0.20207095076E+02  0.45738596987E+02  0.14128376232E+03  0.16889230410E+03  0.77866314572E+02 0.  0.
          5    1    3    3  501    0  0.15730826134E+02  0.12203232219E+02 -0.23989367036E+02  0.31527091496E+02  0.47000000000E+01 0. -1.
        -13    1    4    4    0    0 -0.60621916938E+02 -0.76618588388E+02  0.93282990921E+02  0.13508197991E+03  0.00000000000E+00 0.  1.
         14    1    4    4    0    0  0.27410792064E+02 -0.29909844479E+02  0.46036796803E+02  0.61362341694E+02  0.00000000000E+00 0. -1.
         -5    1    5    5    0  502 -0.27267963344E+01  0.48586603661E+02  0.50745121586E+03  0.50980086303E+03  0.47000000000E+01 0.  1.
         13    1    6    6    0    0  0.45748367286E+02  0.44549806845E+02  0.11866227417E+03  0.13475286161E+03  0.00000000000E+00 0. -1.
        -14    1    6    6    0    0 -0.25541272211E+02  0.11887901423E+01  0.22621488146E+02  0.34139442498E+02  0.00000000000E+00 0.  1.
</event>
<event>
12    1  0.8313893E-002  0.3257839E+03  0.7818608E-02  0.1073096E+00
         21   -1    0    0  503  502  0.00000000000E+00  0.00000000000E+00  0.19032422901E+03  0.19032422901E+03  0.00000000000E+00 0. -1.
         21   -1    0    0  501  503 -0.00000000000E+00 -0.00000000000E+00 -0.64602350933E+03  0.64602350933E+03  0.00000000000E+00 0.  1.
          6    2    1    2  501    0 -0.55464410373E+02 -0.27085792346E+03 -0.38375595255E+03  0.50339227332E+03  0.17232189124E+03 0.  0.
         24    2    3    3    0    0 -0.22095524143E+02 -0.18937895301E+03 -0.35513926756E+03  0.41069216624E+03  0.78686441103E+02 0.  0.
         -6    2    1    2    0  502  0.55464410373E+02  0.27085792346E+03 -0.71943327770E+02  0.33295546503E+03  0.17100638515E+03 0.  0.
        -24    2    5    5    0    0  0.79084150853E+01  0.71516171680E+02 -0.67681042277E+02  0.12792140989E+03  0.81277658569E+02 0.  0.
          5    1    3    3  501    0 -0.33368886231E+02 -0.81478970444E+02 -0.28616684986E+02  0.92700107079E+02  0.47000000000E+01 0. -1.
        -11    1    4    4    0    0 -0.31197865542E+02 -0.18411957084E+03 -0.29147741391E+03  0.34616817590E+03  0.00000000000E+00 0.  1.
         12    1    4    4    0    0  0.91023413988E+01 -0.52593821711E+01 -0.63661853645E+02  0.64523990339E+02  0.00000000000E+00 0. -1.
         -5    1    5    5    0  502  0.47555995288E+02  0.19934175178E+03 -0.42622854926E+01  0.20503405514E+03  0.47000000000E+01 0.  1.
         11    1    6    6    0    0 -0.35611794923E+02  0.42786416512E+02 -0.27504807922E+02  0.62091801668E+02  0.00000000000E+00 0. -1.
        -12    1    6    6    0    0  0.43520210008E+02  0.28729755168E+02 -0.40176234355E+02  0.65829608217E+02  0.00000000000E+00 0.  1.
</event>
<event>
12    1  0.8313893E-002  0.1792245E+03  0.7818608E-02  0.1169227E+00
         21   -1    0    0  501  502  0.00000000000E+00  0.00000000000E+00  0.38602187337E+02  0.38602187337E+02  0.00000000000E+00 0.  1.
         21   -1    0    0  502  503 -0.00000000000E+00 -0.00000000000E+00 -0.87770453251E+03  0.87770453251E+03  0.00000000000E+00 0.  1.
         -6    2    1    2    0  503  0.14835060379E+02 -0.37971845550E+02 -0.53456218515E+03  0.56294270378E+03  0.17171434964E+03 0.  0.
        -24    2    3    3    0    0 -0.19220527159E+02 -0.10827722990E+02 -0.12305969930E+03  0.14911547861E+03  0.81271570176E+02 0.  0.
          6    2    1    2  501    0 -0.14835060379E+02  0.37971845550E+02 -0.30454016002E+03  0.35336401607E+03  0.17452644131E+03 0.  0.
         24    2    5    5    0    0 -0.71656278078E+02  0.50502500046E+01 -0.23072834581E+03  0.25445619964E+03  0.79701071264E+02 0.  0.
          5    1    5    5  501    0  0.56821217699E+02  0.32921595546E+02 -0.73811814216E+02  0.98907816435E+02  0.47000000000E+01 0. -1.
        -13    1    6    6    0    0 -0.23754969080E+02 -0.31797826763E+02 -0.49685593884E+02  0.63592912989E+02  0.00000000000E+00 0.  1.
         14    1    6    6    0    0 -0.47901308998E+02  0.36848076768E+02 -0.18104275193E+03  0.19086328665E+03  0.00000000000E+00 0. -1.
         -5    1    3    3    0  503  0.34055587538E+02 -0.27144122561E+02 -0.41150248585E+03  0.41382722517E+03  0.47000000000E+01 0.  1.
         11    1    4    4    0    0  0.10720152500E+02 -0.37512889551E+02 -0.86308876884E+02  0.94717267597E+02  0.00000000000E+00 0. -1.
        -12    1    4    4    0    0 -0.29940679659E+02  0.26685166561E+02 -0.36750822417E+02  0.54398211010E+02  0.00000000000E+00 0.  1.
</event>
<event>
12    1  0.8313893E-002  0.2055131E+03  0.7818608E-02  0.1145469E+00
         21   -1    0    0  503  502  0.00000000000E+00  0.00000000000E+00  0.14364709567E+04  0.14364709567E+04  0.00000000000E+00 0. -1.
         21   -1    0    0  501  503 -0.00000000000E+00 -0.00000000000E+00 -0.30848351066E+02  0.30848351066E+02  0.00000000000E+00 0. -1.
          6    2    1    2  501    0 -0.11063640008E+03  0.79774745023E+00  0.53048388606E+03  0.56837358094E+03  0.17144773174E+03 0.  0.
         24    2    3    3    0    0  0.74437078882E+01  0.25904620908E+02  0.20939395760E+03  0.22530784504E+03  0.78685051851E+02 0.  0.
         -6    2    1    2    0  502  0.11063640008E+03 -0.79774745023E+00  0.87513871960E+03  0.89894572685E+03  0.17318946809E+03 0.  0.
        -24    2    5    5    0    0  0.72447167947E+02  0.21405811716E+02  0.26591201950E+03  0.28810149335E+03  0.81157054133E+02 0.  0.
          5    1    3    3  501    0 -0.11808010797E+03 -0.25106873458E+02  0.32108992846E+03  0.34306573590E+03  0.47000000000E+01 0. -1.
        -13    1    4    4    0    0  0.32237920570E+02 -0.12684828446E+02  0.63009315989E+02  0.71905231359E+02  0.00000000000E+00 0.  1.
         14    1    4    4    0    0 -0.24794212682E+02  0.38589449354E+02  0.14638464161E+03  0.15340261368E+03  0.00000000000E+00 0. -1.
         -5    1    5    5    0  502  0.38189232132E+02 -0.22203559166E+02  0.60922670010E+03  0.61084423350E+03  0.47000000000E+01 0.  1.
         11    1    6    6    0    0  0.23244235009E+02  0.44151403263E+02  0.17764086158E+03  0.18451535593E+03  0.00000000000E+00 0. -1.
        -12    1    6    6    0    0  0.49202932938E+02 -0.22745591547E+02  0.88271157926E+02  0.10358613742E+03  0.00000000000E+00 0.  1.
</event>
<event>
12    1  0.8313893E-002  0.1756010E+03  0.7818608E-02  0.1172216E+00
         21   -1    0    0  503  502  0.00000000000E+00  0.00000000000E+00  0.36611018540E+03  0.36611018540E+03  0.00000000000E+00 0.  1.
         21   -1    0    0  501  503 -0.00000000000E+00 -0.00000000000E+00 -0.22306313654E+03  0.22306313654E+03  0.00000000000E+00 0.  1.
          6    2    1    2  501    0  0.34813891566E+02  0.77022372206E+01 -0.16105088455E+03  0.23801627047E+03  0.17158970276E+03 0.  0.
         24    2    3    3    0    0  0.79389935821E+02  0.14036587612E+02 -0.64704313490E+02  0.13156487560E+03  0.81381082598E+02 0.  0.
         -6    2    1    2    0  502 -0.34813891566E+02 -0.77022372206E+01  0.30409793341E+03  0.35115705146E+03  0.17194298528E+03 0.  0.
        -24    2    5    5    0    0 -0.76039540649E+02 -0.11216679364E+02  0.28340413761E+03  0.30465728124E+03  0.81180836178E+02 0.  0.
          5    1    3    3  501    0 -0.44576044255E+02 -0.63343503911E+01 -0.96346571062E+02  0.10645139488E+03  0.47000000000E+01 0. -1.
        -13    1    4    4    0    0 -0.47746333410E+01 -0.16099517021E+02 -0.32430707979E+02  0.36520438003E+02  0.00000000000E+00 0.  1.
         14    1    4    4    0    0  0.84164569163E+02  0.30136104633E+02 -0.32273605510E+02  0.95044437593E+02  0.00000000000E+00 0. -1.
         -5    1    5    5    0  502  0.41225649083E+02  0.35144421430E+01  0.20693795796E+02  0.46499770218E+02  0.47000000000E+01 0.  1.
         11    1    6    6    0    0 -0.54502087356E+02 -0.15872709817E+02  0.70027163506E+02  0.90145571560E+02  0.00000000000E+00 0. -1.
        -12    1    6    6    0    0 -0.21537453292E+02  0.46560304532E+01  0.21337697410E+03  0.21451170969E+03  0.00000000000E+00 0.  1.
</event>
<event>
12    1  0.8313893E-002  0.2373521E+03  0.7818608E-02  0.1121901E+00
         21   -1    0    0  503  502  0.00000000000E+00  0.00000000000E+00  0.10149260943E+03  0.10149260943E+03  0.00000000000E+00 0. -1.
         21   -1    0    0  501  503 -0.00000000000E+00 -0.00000000000E+00 -0.15732917783E+04  0.15732917783E+04  0.00000000000E+00 0. -1.
          6    2    1    2  501    0  0.15987146233E+03 -0.25920281830E+02 -0.14121315283E+04  0.14319397507E+04  0.17350864799E+03 0.  0.
         24    2    3    3    0    0  0.11084654152E+03 -0.81000925100E+02 -0.89822072515E+03  0.91274448520E+03  0.86336078970E+02 0.  0.
         -6    2    1    2    0  502 -0.15987146233E+03  0.25920281830E+02 -0.59667640588E+02  0.24284463706E+03  0.17082899325E+03 0.  0.
        -24    2    5    5    0    0 -0.13394471697E+03  0.71231366487E+02 -0.76299850426E+02  0.18785362941E+03  0.80325737670E+02 0.  0.
          5    1    3    3  501    0  0.49024920814E+02  0.55080643270E+02 -0.51391080317E+03  0.51919526552E+03  0.47000000000E+01 0. -1.
        -13    1    4    4    0    0  0.11836727355E+03 -0.75639218018E+02 -0.68146699652E+03  0.69579405724E+03  0.00000000000E+00 0.  1.
         14    1    4    4    0    0 -0.75207320329E+01 -0.53617070821E+01 -0.21675372864E+03  0.21695042796E+03  0.00000000000E+00 0. -1.
         -5    1    5    5    0  502 -0.25926745362E+02 -0.45311084657E+02  0.16632209838E+02  0.54991007646E+02  0.47000000000E+01 0.  1.
         11    1    6    6    0    0 -0.66105920896E+02  0.14569517365E+02 -0.72780222338E+02  0.99394287448E+02  0.00000000000E+00 0. -1.
        -12    1    6    6    0    0 -0.67838796074E+02  0.56661849122E+02 -0.35196280880E+01  0.88459341963E+02  0.00000000000E+00 0.  1.
</event>
<event>
12    1  0.8313893E-002  0.2398096E+03  0.7818608E-02  0.1120406E+00
         21   -1    0    0  501  502  0.00000000000E+00  0.00000000000E+00  0.57440201669E+03  0.57440201669E+03  0.00000000000E+00 0. -1.
         21   -1    0    0  502  503 -0.00000000000E+00 -0.00000000000E+00 -0.32568706339E+03  0.32568706339E+03  0.00000000000E+00 0. -1.
         -6    2    1    2    0  503  0.11294104852E+03 -0.11097032779E+03 -0.25094644802E+03  0.34710624810E+03  0.18010700599E+03 0.  0.
        -24    2    3    3    0    0  0.68484936386E+02 -0.94263731593E+02 -0.76819064774E+02  0.16655738530E+03  0.90908504989E+02 0.  0.
          6    2    1    2  501    0 -0.11294104852E+03  0.11097032779E+03  0.49966140132E+03  0.55298283197E+03  0.17623394225E+03 0.  0.
         24    2    5    5    0    0 -0.95423793015E+02  0.94164178388E+01  0.34860138984E+03  0.37005861834E+03  0.78905530929E+02 0.  0.
          5    1    5    5  501    0 -0.17517255507E+02  0.10155390995E+03  0.15106001147E+03  0.18292421363E+03  0.47000000000E+01 0. -1.
        -11    1    6    6    0    0  0.41975958268E+01 -0.15581882082E+02  0.19550409887E+02  0.25350214727E+02  0.00000000000E+00 0.  1.
         12    1    6    6    0    0 -0.99621388842E+02  0.24998299921E+02  0.32905097996E+03  0.34470840362E+03  0.00000000000E+00 0. -1.
         -5    1    3    3    0  503  0.44456112136E+02 -0.16706596192E+02 -0.17412738325E+03  0.18054886280E+03  0.47000000000E+01 0.  1.
         13    1    4    4    0    0 -0.60012103995E+01 -0.34500113245E+02  0.11116258390E+02  0.36740216939E+02  0.00000000000E+00 0. -1.
        -14    1    4    4    0    0  0.74486146785E+02 -0.59763618348E+02 -0.87935323164E+02  0.12981716836E+03  0.00000000000E+00 0.  1.
</event>
<event>
12    1  0.8313893E-002  0.1938831E+03  0.7818608E-02  0.1155290E+00
         21   -1    0    0  503  502  0.00000000000E+00  0.00000000000E+00  0.76278839618E+02  0.76278839618E+02  0.00000000000E+00 0.  1.
         21   -1    0    0  501  503 -0.00000000000E+00 -0.00000000000E+00 -0.84226566655E+03  0.84226566655E+03  0.00000000000E+00 0. -1.
          6    2    1    2  501    0 -0.78841634003E+02 -0.41138447406E+02 -0.67946554376E+03  0.70623202349E+03  0.17082701994E+03 0.  0.
         24    2    3    3    0    0 -0.82366993766E+02 -0.14699169311E+02 -0.24597186839E+03  0.27189307731E+03  0.80145481520E+02 0.  0.
         -6    2    1    2    0  502  0.78841634003E+02  0.41138447406E+02 -0.86521283176E+02  0.21231248268E+03  0.17228546878E+03 0.  0.
        -24    2    5    5    0    0  0.11597900446E+03  0.57973118078E+01 -0.51874962698E+02  0.15025897615E+03  0.80012560636E+02 0.  0.
          5    1    3    3  501    0  0.35253597623E+01 -0.26439278095E+02 -0.43349367537E+03  0.43433894618E+03  0.47000000000E+01 0. -1.
        -11    1    4    4    0    0 -0.44768092461E+02 -0.45271543943E+02 -0.17254134626E+03  0.18391359646E+03  0.00000000000E+00 0.  1.
         12    1    4    4    0    0 -0.37598901305E+02  0.30572374632E+02 -0.73430522131E+02  0.87979480849E+02  0.00000000000E+00 0. -1.
         -5    1    5    5    0  502 -0.37137370456E+02  0.35341135598E+02 -0.34646320477E+02  0.62053506527E+02  0.47000000000E+01 0.  1.
         13    1    6    6    0    0  0.11974390168E+03  0.47304581717E+01 -0.65161984189E+02  0.13640771022E+03  0.00000000000E+00 0. -1.
        -14    1    6    6    0    0 -0.37648972220E+01  0.10668536361E+01  0.13287021491E+02  0.13851265930E+02  0.00000000000E+00 0.  1.
</event>
<event>
12    1  0.8313893E-002  0.1701527E+03  0.7818608E-02  0.1177755E+00
         21   -1    0    0  503  502  0.00000000000E+00  0.00000000000E+00  0.13938475752E+03  0.13938475752E+03  0.00000000000E+00 0. -1.
         21   -1    0    0  501  503 -0.00000000000E+00 -0.00000000000E+00 -0.23978133201E+03  0.23978133201E+03  0.00000000000E+00 0. -1.
          6    2    1    2  501    0 -0.80245279693E+00 -0.12826526560E+02 -0.11983272784E+03  0.20790687027E+03  0.16941139374E+03 0.  0.
         24    2    3    3    0    0 -0.11232555036E+02 -0.55574535450E+02 -0.12973426043E+03  0.16256031975E+03  0.79876028589E+02 0.  0.
         -6    2    1    2    0  502  0.80245279693E+00  0.12826526560E+02  0.19436153356E+02  0.17125921926E+03  0.16966670978E+03 0.  0.
        -24    2    5    5    0    0  0.37835417364E+02 -0.17094276154E+02 -0.35733423008E+02  0.98235476160E+02  0.81545068349E+02 0.  0.
          5    1    3    3  501    0  0.10430102239E+02  0.42748008890E+02  0.99015325905E+01  0.45346550524E+02  0.47000000000E+01 0. -1.
        -11    1    4    4    0    0  0.29984589292E+02 -0.16224916314E+02 -0.21684554407E+02  0.40404744824E+02  0.00000000000E+00 0.  1.
         12    1    4    4    0    0 -0.41217144328E+02 -0.39349619136E+02 -0.10804970602E+03  0.12215557492E+03  0.00000000000E+00 0. -1.
         -5    1    5    5    0  502 -0.37032964567E+02  0.29920802714E+02  0.55169576364E+02  0.73023743097E+02  0.47000000000E+01 0.  1.
         11    1    6    6    0    0  0.44856796860E+02 -0.43966976748E+02 -0.18220669809E+02  0.65400459305E+02  0.00000000000E+00 0. -1.
        -12    1    6    6    0    0 -0.70213794958E+01  0.26872700595E+02 -0.17512753199E+02  0.32835016855E+02  0.00000000000E+00 0.  1.
</event>
<event>
12    1  0.8313893E-002  0.2527757E+03  0.7818608E-02  0.1111990E+00
         21   -1    0    0  503  502  0.00000000000E+00  0.00000000000E+00  0.15139956808E+03  0.15139956808E+03  0.00000000000E+00 0. -1.
         21   -1    0    0  501  503 -0.00000000000E+00 -0.00000000000E+00 -0.89621347257E+03  0.89621347257E+03  0.00000000000E+00 0.  1.
          6    2    1    2  501    0  0.14785188378E+03  0.10387216801E+03 -0.75617528328E+03  0.79730584293E+03  0.17676521517E+03 0.  0.
         24    2    3    3    0    0  0.33580285416E+02  0.24354605658E+02 -0.47269274293E+03  0.48144910072E+03  0.81449524099E+02 0.  0.
         -6    2    1    2    0  502 -0.14785188378E+03 -0.10387216801E+03  0.11361378788E+02  0.25030719773E+03  0.17284387603E+03 0.  0.
        -24    2    5    5    0    0 -0.56809223145E+02 -0.11924263312E+02  0.55456194070E+02  0.11352406292E+03  0.80267350215E+02 0.  0.
          5    1    3    3  501    0  0.11427159837E+03  0.79517562353E+02 -0.28348254035E+03  0.31585674221E+03  0.47000000000E+01 0. -1.
        -11    1    4    4    0    0  0.57616304009E+02  0.19012144158E+02 -0.40284926537E+03  0.40739247749E+03  0.00000000000E+00 0.  1.
         12    1    4    4    0    0 -0.24036018594E+02  0.53424615000E+01 -0.69843477566E+02  0.74056623223E+02  0.00000000000E+00 0. -1.
         -5    1    5    5    0  502 -0.91042660637E+02 -0.91947904698E+02 -0.44094815282E+02  0.13678313481E+03  0.47000000000E+01 0.  1.
         13    1    6    6    0    0 -0.59926437450E+02 -0.39112043005E+02  0.37475060505E+02  0.80779390771E+02  0.00000000000E+00 0. -1.
        -14    1    6    6    0    0  0.31172143052E+01  0.27187779693E+02  0.17981133564E+02  0.32744672145E+02  0.00000000000E+00 0.  1.
</event>
<event>
12    1  0.8313893E-002  0.2391379E+03  0.7818608E-02  0.1121263E+00
         21   -1    0    0  503  502  0.00000000000E+00  0.00000000000E+00  0.81036350755E+03  0.81036350755E+03  0.00000000000E+00 0.  1.
         21   -1    0    0  501  503 -0.00000000000E+00 -0.00000000000E+00 -0.18349875112E+03  0.18349875112E+03  0.00000000000E+00 0.  1.
          6    2    1    2  501    0 -0.85327954697E+02 -0.13325204886E+03 -0.77745482691E+02  0.25145836341E+03  0.17930415520E+03 0.  0.
         24    2    3    3    0    0 -0.11758574135E+03 -0.51999777581E+02 -0.57079233035E+02  0.16150459605E+03  0.79343003876E+02 0.  0.
         -6    2    1    2    0  502  0.85327954697E+02  0.13325204886E+03  0.70461023912E+03  0.74240389526E+03  0.17219461736E+03 0.  0.
        -24    2    5    5    0    0  0.21010983470E+02  0.71165490519E+02  0.19984221270E+03  0.22975951169E+03  0.85711928961E+02 0.  0.
          5    1    3    3  501    0  0.32257786649E+02 -0.81252271280E+02 -0.20666249655E+02  0.89953767362E+02  0.47000000000E+01 0. -1.
        -13    1    4    4    0    0 -0.11098857401E+03 -0.47888972501E+02 -0.74802177149E+02  0.14215197133E+03  0.00000000000E+00 0.  1.
         14    1    4    4    0    0 -0.65971673401E+01 -0.41108050798E+01  0.17722944114E+02  0.19352624716E+02  0.00000000000E+00 0. -1.
         -5    1    5    5    0  502  0.64316971227E+02  0.62086558343E+02  0.50476802642E+03  0.51264438357E+03  0.47000000000E+01 0.  1.
         11    1    6    6    0    0  0.15359877148E+02 -0.18175262561E+02  0.44892136034E+02  0.50809151468E+02  0.00000000000E+00 0. -1.
        -12    1    6    6    0    0  0.56511063222E+01  0.89340753080E+02  0.15495007667E+03  0.17895036022E+03  0.00000000000E+00 0.  1.
</event>
<event>
12    1  0.8313893E-002  0.1984333E+03  0.7818608E-02  0.1151924E+00
         21   -1    0    0  503  502  0.00000000000E+00  0.00000000000E+00  0.13683007345E+04  0.13683007345E+04  0.00000000000E+00 0.  1.
         21   -1    0    0  501  503 -0.00000000000E+00 -0.00000000000E+00 -0.11566019116E+03  0.11566019116E+03  0.00000000000E+00 0.  1.
          6    2    1    2  501    0  0.71196247838E+02 -0.65034887654E+02 -0.17330537372E+02  0.19918866364E+03  0.17342818075E+03 0.  0.
         24    2    3    3    0    0  0.90237146848E+02 -0.20503286007E+02 -0.58705196952E+02  0.13531713763E+03  0.79380729259E+02 0.  0.
         -6    2    1    2    0  502 -0.71196247838E+02  0.65034887654E+02  0.12699710808E+04  0.12847722621E+04  0.16886319049E+03 0.  0.
        -24    2    5    5    0    0  0.20053318355E+02  0.65947621847E+01  0.66609460377E+03  0.67123284112E+03  0.80161582857E+02 0.  0.
          5    1    3    3  501    0 -0.19040899011E+02 -0.44531601646E+02  0.41374659581E+02  0.63871526017E+02  0.47000000000E+01 0. -1.
        -11    1    4    4    0    0  0.10430002718E+03 -0.20298203088E+02 -0.44111255025E+02  0.11504918748E+03  0.00000000000E+00 0.  1.
         12    1    4    4    0    0 -0.14062880335E+02 -0.20508291915E+00 -0.14593941928E+02  0.20267950150E+02  0.00000000000E+00 0. -1.
         -5    1    5    5    0  502 -0.91249566193E+02  0.58440125469E+02  0.60387647698E+03  0.61353942094E+03  0.47000000000E+01 0.  1.
         13    1    6    6    0    0 -0.17594272784E+02  0.22671835871E+02  0.11165552647E+03  0.11528454869E+03  0.00000000000E+00 0. -1.
        -14    1    6    6    0    0  0.37647591140E+02 -0.16077073686E+02  0.55443907730E+03  0.55594829243E+03  0.00000000000E+00 0.  1.
</event>
<event>
12    1  0.8313893E-002  0.1847018E+03  0.7818608E-02  0.1163886E+00
         21   -1    0    0  503  502  0.00000000000E+00  0.00000000000E+00  0.24039022294E+02  0.24039022294E+02  0.00000000000E+00 0. -1.
         21   -1    0    0  501  503 -0.00000000000E+00 -0.00000000000E+00 -0.14136820625E+04  0.14136820625E+04  0.00000000000E+00 0.  1.
          6    2    1    2  501    0 -0.56236683533E+02  0.25590682425E+02 -0.75844922623E+03  0.78005826929E+03  0.17154657418E+03 0.  0.
         24    2    3    3    0    0 -0.30718390977E+02 -0.46659054561E+02 -0.55794715896E+03  0.56536225924E+03  0.72171774738E+02 0.  0.
         -6    2    1    2    0  502  0.56236683533E+02 -0.25590682425E+02 -0.63119381396E+03  0.65766281549E+03  0.17406119756E+03 0.  0.
        -24    2    5    5    0    0 -0.10284454092E+02 -0.42004868840E+02 -0.19055972545E+03  0.21170880752E+03  0.81470431547E+02 0.  0.
          5    1    3    3  501    0 -0.25518292556E+02  0.72249736986E+02 -0.20050206727E+03  0.21469601005E+03  0.47000000000E+01 0. -1.
        -11    1    4    4    0    0 -0.46569570229E+02 -0.57576842255E+01 -0.25945159585E+03  0.26366077901E+03  0.00000000000E+00 0.  1.
         12    1    4    4    0    0  0.15851179252E+02 -0.40901370335E+02 -0.29849556311E+03  0.30170148024E+03  0.00000000000E+00 0. -1.
         -5    1    5    5    0  502  0.66521137625E+02  0.16414186414E+02 -0.44063408852E+03  0.44595400797E+03  0.47000000000E+01 0.  1.
         11    1    6    6    0    0 -0.19442837336E+02 -0.44062670132E+02 -0.19532972879E+03  0.20117963558E+03  0.00000000000E+00 0. -1.
        -12    1    6    6    0    0  0.91583832447E+01  0.20578012921E+01  0.47700033435E+01  0.10529171939E+02  0.00000000000E+00 0.  1.
</event>
<event>
12    1  0.8313893E-002  0.2409835E+03  0.7818608E-02  0.1119242E+00
         21   -1    0    0  503  502  0.00000000000E+00  0.00000000000E+00  0.34223077786E+02  0.34223077786E+02  0.00000000000E+00 0.  1.
         21   -1    0    0  501  503 -0.00000000000E+00 -0.00000000000E+00 -0.17723627590E+04  0.17723627590E+04  0.00000000000E+00 0.  1.
          6    2    1    2  501    0  0.16653962641E+03 -0.24566905570E+02 -0.10597141803E+04  0.10866315209E+04  0.17156613363E+03 0.  0.
         24    2    3    3    0    0  0.17562508747E+03  0.38619648207E+01 -0.10118470806E+04  0.10300267905E+04  0.79130198803E+02 0.  0.
         -6    2    1    2    0  502 -0.16653962641E+03  0.24566905570E+02 -0.67842550089E+03  0.71995431589E+03  0.17243571759E+03 0.  0.
        -24    2    5    5    0    0 -0.15429301602E+03  0.44396007468E+01 -0.67330619758E+03  0.69539041694E+03  0.80003446290E+02 0.  0.
          5    1    3    3  501    0 -0.90854610666E+01 -0.28428870391E+02 -0.47867099690E+02  0.56604730432E+02  0.47000000000E+01 0. -1.
        -11    1    4    4    0    0  0.87033832925E+02  0.41039727449E+02 -0.47454818165E+03  0.48420566293E+03  0.00000000000E+00 0.  1.
         12    1    4    4    0    0  0.88591254548E+02 -0.37177762628E+02 -0.53729889898E+03  0.54582112753E+03  0.00000000000E+00 0. -1.
         -5    1    5    5    0  502 -0.12246610386E+02  0.20127304824E+02 -0.51193033056E+01  0.24563898952E+02  0.47000000000E+01 0.  1.
         13    1    6    6    0    0 -0.38465715258E+01  0.21859872405E+02 -0.75226843722E+02  0.78432953218E+02  0.00000000000E+00 0. -1.
        -14    1    6    6    0    0 -0.15044644449E+03 -0.17420271658E+02 -0.59807935386E+03  0.61695746372E+03  0.00000000000E+00 0.  1.
</event>
<event>
12    1  0.8313893E-002  0.2623297E+03  0.7818608E-02  0.1105760E+00
         21   -1    0    0  501  502  0.00000000000E+00  0.00000000000E+00  0.93025223070E+03  0.93025223070E+03  0.00000000000E+00 0.  1.
         21   -1    0    0  502  503 -0.00000000000E+00 -0.00000000000E+00 -0.28179431724E+03  0.28179431724E+03  0.00000000000E+00 0. -1.
         -6    2    1    2    0  503 -0.15698538166E+03 -0.12063534467E+03 -0.19623413082E+03  0.32755712497E+03  0.17201319595E+03 0.  0.
        -24    2    3    3    0    0 -0.17440512891E+03 -0.68302797316E+02 -0.17451003781E+03  0.26809142625E+03  0.79604261331E+02 0.  0.
          6    2    1    2  501    0  0.15698538166E+03  0.12063534467E+03  0.84469204429E+03  0.88448942297E+03  0.17210343756E+03 0.  0.
         24    2    5    5    0    0  0.11919766368E+03  0.15483160113E+03  0.66426526301E+03  0.69694420445E+03  0.79384990666E+02 0.  0.
          5    1    5    5  501    0  0.37787717981E+02 -0.34196256459E+02  0.18042678128E+03  0.18754521852E+03  0.47000000000E+01 0. -1.
        -11    1    6    6    0    0  0.91372695742E+01  0.72739219437E+02  0.24904201423E+03  0.25960818283E+03  0.00000000000E+00 0.  1.
         12    1    6    6    0    0  0.11006039411E+03  0.82092381690E+02  0.41522324878E+03  0.43733602162E+03  0.00000000000E+00 0. -1.
         -5    1    3    3    0  503  0.17419747253E+02 -0.52332547352E+02 -0.21724093013E+02  0.59465698718E+02  0.47000000000E+01 0.  1.
         13    1    4    4    0    0 -0.36679071947E+02 -0.48664660375E+02 -0.77026134158E+02  0.98217253228E+02  0.00000000000E+00 0. -1.
        -14    1    4    4    0    0 -0.13772605697E+03 -0.19638136941E+02 -0.97483903649E+02  0.16987417303E+03  0.00000000000E+00 0.  1.
</event>
<event>
12    1  0.8313893E-002  0.1937734E+03  0.7818608E-02  0.1155138E+00
         21   -1    0    0  501  502  0.00000000000E+00  0.00000000000E+00  0.10027977870E+03  0.10027977870E+03  0.00000000000E+00 0. -1.
         21   -1    0    0  502  503 -0.00000000000E+00 -0.00000000000E+00 -0.75498480525E+03  0.75498480525E+03  0.00000000000E+00 0.  1.
         -6    2    1    2    0  503 -0.64756741928E+02 -0.56989757748E+02 -0.63115443644E+03  0.66023030036E+03  0.17351328122E+03 0.  0.
        -24    2    3    3    0    0 -0.24083065078E+02 -0.57255157693E+02 -0.59986992430E+03  0.60870138493E+03  0.82554847362E+02 0.  0.
          6    2    1    2  501    0  0.64756741928E+02  0.56989757748E+02 -0.23550590111E+02  0.19503428358E+03  0.17332764743E+03 0.  0.
         24    2    5    5    0    0  0.10124539286E+03  0.81519043076E+02 -0.29393597267E+02  0.15043228567E+03  0.69784704999E+02 0.  0.
          5    1    5    5  501    0 -0.36488650931E+02 -0.24529285327E+02  0.58430071559E+01  0.44601997916E+02  0.47000000000E+01 0. -1.
        -13    1    6    6    0    0  0.15573359839E+02  0.25854519931E+02 -0.37273187860E+02  0.47961195469E+02  0.00000000000E+00 0.  1.
         14    1    6    6    0    0  0.85672033020E+02  0.55664523144E+02  0.78795905929E+01  0.10247109020E+03  0.00000000000E+00 0. -1.
         -5    1    3    3    0  503 -0.40673676851E+02  0.26539994434E+00 -0.31284512134E+02  0.51528915428E+02  0.47000000000E+01 0.  1.
         13    1    4    4    0    0  0.80003361639E+01 -0.39848445985E+02 -0.10664054323E+03  0.11412322063E+03  0.00000000000E+00 0. -1.
        -14    1    4    4    0    0 -0.32083401242E+02 -0.17406711708E+02 -0.49322938108E+03  0.49457816430E+03  0.00000000000E+00 0.  1.
</event>
<event>
12    1  0.8313893E-002  0.2470244E+03  0.7818608E-02  0.1115305E+00
         21   -1    0    0  503  502  0.00000000000E+00  0.00000000000E+00  0.19404827440E+03  0.19404827440E+03  0.00000000000E+00 0.  1.
         21   -1    0    0  501  503 -0.00000000000E+00 -0.00000000000E+00 -0.32916318371E+03  0.32916318371E+03  0.00000000000E+00 0.  1.
          6    2    1    2  501    0 -0.16911619053E+03  0.52165062420E+02 -0.10814111154E+02  0.24726096793E+03  0.17233560753E+03 0.  0.
         24    2    3    3    0    0 -0.18911472532E+03  0.18189280415E+02 -0.35642166277E+01  0.20690076318E+03  0.81853484397E+02 0.  0.
         -6    2    1    2    0  502  0.16911619053E+03 -0.52165062420E+02 -0.12430079816E+03  0.27595049018E+03  0.17139575540E+03 0.  0.
        -24    2    5    5    0    0  0.15026672411E+02 -0.12280698485E+02 -0.24018973382E+02  0.87767397258E+02  0.82155879278E+02 0.  0.
          5    1    3    3  501    0  0.19998534791E+02  0.33975782005E+02 -0.72498945262E+01  0.40360204748E+02  0.47000000000E+01 0. -1.
        -11    1    4    4    0    0 -0.63002892574E+02  0.28936067740E+02  0.30629033585E+02  0.75794446942E+02  0.00000000000E+00 0.  1.
         12    1    4    4    0    0 -0.12611183275E+03 -0.10746787325E+02 -0.34193250212E+02  0.13110631624E+03  0.00000000000E+00 0. -1.
         -5    1    5    5    0  502  0.15408951812E+03 -0.39884363936E+02 -0.10028182478E+03  0.18818309292E+03  0.47000000000E+01 0.  1.
         11    1    6    6    0    0 -0.15399752997E+02 -0.29544267139E+02 -0.37603280028E+02  0.50239653482E+02  0.00000000000E+00 0. -1.
        -12    1    6    6    0    0  0.30426425409E+02  0.17263568654E+02  0.13584306646E+02  0.37527743775E+02  0.00000000000E+00 0.  1.
</event>
<event>
12    1  0.8313893E-002  0.1813858E+03  0.7818608E-02  0.1167456E+00
         21   -1    0    0  501  502  0.00000000000E+00  0.00000000000E+00  0.54263359607E+02  0.54263359607E+02  0.00000000000E+00 0. -1.
         21   -1    0    0  502  503 -0.00000000000E+00 -0.00000000000E+00 -0.11303578621E+04  0.11303578621E+04  0.00000000000E+00 0. -1.
         -6    2    1    2    0  503 -0.24368625182E+02  0.53308914666E+02 -0.94970681375E+03  0.96687322036E+03  0.17165407626E+03 0.  0.
        -24    2    3    3    0    0 -0.44507788405E+02 -0.21409292362E+02 -0.39082929324E+03  0.40264403884E+03  0.83278956088E+02 0.  0.
          6    2    1    2  501    0  0.24368625182E+02 -0.53308914666E+02 -0.12638768873E+03  0.21774800133E+03  0.16734597081E+03 0.  0.
         24    2    5    5    0    0 -0.40210345634E+02 -0.79900775736E+01 -0.10117509342E+03  0.13479014800E+03  0.79064981086E+02 0.  0.
          5    1    5    5  501    0  0.64578970816E+02 -0.45318837092E+02 -0.25212595313E+02  0.82957853332E+02  0.47000000000E+01 0. -1.
        -13    1    6    6    0    0  0.13234297577E+02  0.83311124192E+01 -0.68060755640E+02  0.69834236051E+02  0.00000000000E+00 0.  1.
         14    1    6    6    0    0 -0.53444643211E+02 -0.16321189993E+02 -0.33114337780E+02  0.64955911951E+02  0.00000000000E+00 0. -1.
         -5    1    3    3    0  503  0.20139163223E+02  0.74718207028E+02 -0.55887752051E+03  0.56422918153E+03  0.47000000000E+01 0.  1.
         11    1    4    4    0    0  0.50003530161E+01  0.19274565524E+02 -0.20720893823E+03  0.20816353304E+03  0.00000000000E+00 0. -1.
        -12    1    4    4    0    0 -0.49508141421E+02 -0.40683857886E+02 -0.18362035501E+03  0.19448050579E+03  0.00000000000E+00 0.  1.
</event>
<event>
12    1  0.8313893E-002  0.2045304E+03  0.7818608E-02  0.1146174E+00
         21   -1    0    0  501  502  0.00000000000E+00  0.00000000000E+00  0.18396339901E+03  0.18396339901E+03  0.00000000000E+00 0. -1.
         21   -1    0    0  502  503 -0.00000000000E+00 -0.00000000000E+00 -0.23306649445E+03  0.23306649445E+03  0.00000000000E+00 0. -1.
         -6    2    1    2    0  503 -0.94709940782E+02 -0.52746361635E+02  0.10908193318E+02  0.20482104400E+03  0.17343736574E+03 0.  0.
        -24    2    3    3    0    0 -0.87159598506E+02  0.21097908826E+02 -0.29064067682E+02  0.12038257174E+03  0.74868726307E+02 0.  0.
          6    2    1    2  501    0  0.94709940782E+02  0.52746361635E+02 -0.60011288750E+02  0.21220884946E+03  0.17227620110E+03 0.  0.
         24    2    5    5    0    0  0.57418163224E+02 -0.27716006095E+02  0.46190214309E+01  0.10237244253E+03  0.79960985289E+02 0.  0.
          5    1    5    5  501    0  0.37291777558E+02  0.80462367730E+02 -0.64630310180E+02  0.10983640693E+03  0.47000000000E+01 0. -1.
        -11    1    6    6    0    0  0.11510851276E+02 -0.29303716733E+02  0.35172006433E+02  0.47204634815E+02  0.00000000000E+00 0.  1.
         12    1    6    6    0    0  0.45907311949E+02  0.15877106386E+01 -0.30552985002E+02  0.55167807714E+02  0.00000000000E+00 0. -1.
         -5    1    3    3    0  503 -0.75503422760E+01 -0.73844270461E+02  0.39972261001E+02  0.84438472261E+02  0.47000000000E+01 0.  1.
         13    1    4    4    0    0 -0.26373433129E+02  0.34759162788E+02  0.12621303855E+02  0.45420861768E+02  0.00000000000E+00 0. -1.
        -14    1    4    4    0    0 -0.60786165377E+02 -0.13661253962E+02 -0.41685371537E+02  0.74961709967E+02  0.00000000000E+00 0.  1.
</event>
<event>
12    1  0.8313893E-002  0.2364824E+03  0.7818608E-02  0.1122168E+00
         21   -1    0    0  503  502  0.00000000000E+00  0.00000000000E+00  0.89498688629E+02  0.89498688629E+02  0.00000000000E+00 0.  1.
         21   -1    0    0  501  503 -0.00000000000E+00 -0.00000000000E+00 -0.70550443740E+03  0.70550443740E+03  0.00000000000E+00 0.  1.
          6    2    1    2  501    0  0.87001797156E+02  0.13568862637E+03 -0.44248347319E+03  0.50168775212E+03  0.17296895831E+03 0.  0.
         24    2    3    3    0    0 -0.16886902468E+01  0.81650099394E+02 -0.32630619484E+03  0.34578581191E+03  0.80140529841E+02 0.  0.
         -6    2    1    2    0  502 -0.87001797156E+02 -0.13568862637E+03 -0.17352227557E+03  0.29331537391E+03  0.17304107148E+03 0.  0.
        -24    2    5    5    0    0 -0.89612752085E+02 -0.15102615927E+03 -0.18923357353E+03  0.27071024430E+03  0.81457626403E+02 0.  0.
          5    1    3    3  501    0  0.88690487403E+02  0.54038526974E+02 -0.11617727836E+03  0.15590194021E+03  0.47000000000E+01 0. -1.
        -11    1    4    4    0    0  0.38895920258E+02  0.32590402390E+02 -0.14636336543E+03  0.15491049571E+03  0.00000000000E+00 0.  1.
         12    1    4    4    0    0 -0.40584610505E+02  0.49059697005E+02 -0.17994282940E+03  0.19087531620E+03  0.00000000000E+00 0. -1.
         -5    1    5    5    0  502  0.26109549291E+01  0.15337532897E+02  0.15711297960E+02  0.22605129608E+02  0.47000000000E+01 0.  1.
         13    1    6    6    0    0 -0.55008751280E+01 -0.42995756425E+01 -0.53224213087E+02  0.53680190356E+02  0.00000000000E+00 0. -1.
        -14    1    6    6    0    0 -0.84111876957E+02 -0.14672658362E+03 -0.13600936044E+03  0.21703005395E+03  0.00000000000E+00 0.  1.
</event>
<event>
12    1  0.8313893E-002  0.2537609E+03  0.7818608E-02  0.1111039E+00
         21   -1    0    0  501  502  0.00000000000E+00  0.00000000000E+00  0.50398420089E+02  0.50398420089E+02  0.00000000000E+00 0. -1.
         21   -1    0    0  502  503 -0.00000000000E+00 -0.00000000000E+00 -0.13019471657E+04  0.13019471657E+04  0.00000000000E+00 0.  1.
         -6    2    1    2    0  503  0.11178039756E+03  0.14848253692E+03 -0.72263395198E+03  0.76570647294E+03  0.17194374982E+03 0.  0.
        -24    2    3    3    0    0  0.82325453249E+02  0.13581370752E+02 -0.35113782126E+03  0.36935134996E+03  0.78490230669E+02 0.  0.
          6    2    1    2  501    0 -0.11178039756E+03 -0.14848253692E+03 -0.52891479359E+03  0.58663911280E+03  0.17277924861E+03 0.  0.
         24    2    5    5    0    0 -0.23684830256E+02 -0.70106686438E+02 -0.38694299203E+03  0.40202685603E+03  0.80154820279E+02 0.  0.
          5    1    5    5  501    0 -0.88095567302E+02 -0.78375850481E+02 -0.14197180155E+03  0.18461225678E+03  0.47000000000E+01 0. -1.
        -11    1    6    6    0    0  0.75956068238E+01 -0.58112213757E+02 -0.12624601452E+03  0.13918613010E+03  0.00000000000E+00 0.  1.
         12    1    6    6    0    0 -0.31280437080E+02 -0.11994472681E+02 -0.26069697751E+03  0.26284072592E+03  0.00000000000E+00 0. -1.
         -5    1    3    3    0  503  0.29454944308E+02  0.13490116617E+03 -0.37149613072E+03  0.39635512299E+03  0.47000000000E+01 0.  1.
         11    1    4    4    0    0  0.80337494812E+02  0.25448264026E+02 -0.34626096978E+03  0.35636832970E+03  0.00000000000E+00 0. -1.
        -12    1    4    4    0    0  0.19879584368E+01 -0.11866893274E+02 -0.48768514758E+01  0.12983020259E+02  0.00000000000E+00 0.  1.
</event>
<event>
12    1  0.8313893E-002  0.2067329E+03  0.7818608E-02  0.1144276E+00
         21   -1    0    0  503  502  0.00000000000E+00  0.00000000000E+00  0.83149612001E+02  0.83149612001E+02  0.00000000000E+00 0. -1.
         21   -1    0    0  501  503 -0.00000000000E+00 -0.00000000000E+00 -0.75624269850E+03  0.75624269850E+03  0.00000000000E+00 0. -1.
          6    2    1    2  501    0 -0.10477744242E+02  0.11376986822E+03 -0.57440206709E+03  0.61031068451E+03  0.17172079347E+03 0.  0.
         24    2    3    3    0    0  0.33487443166E+02  0.12203869128E+03 -0.51106561546E+03  0.53262601908E+03  0.80545402525E+02 0.  0.
         -6    2    1    2    0  502  0.10477744242E+02 -0.11376986822E+03 -0.98691019412E+02  0.22908162599E+03  0.17229366795E+03 0.  0.
        -24    2    5    5    0    0  0.61334204301E+02 -0.44565672220E+02 -0.90302326784E+02  0.14266368551E+03  0.80314588857E+02 0.  0.
          5    1    3    3  501    0 -0.43965187408E+02 -0.82688230671E+01 -0.63336451623E+02  0.77684665430E+02  0.47000000000E+01 0. -1.
        -13    1    4    4    0    0 -0.15013400787E+02  0.18365625942E+02 -0.19570146070E+03  0.19713386350E+03  0.00000000000E+00 0.  1.
         14    1    4    4    0    0  0.48500843954E+02  0.10367306534E+03 -0.31536415476E+03  0.33549215557E+03  0.00000000000E+00 0. -1.
         -5    1    5    5    0  502 -0.50856460059E+02 -0.69204195998E+02 -0.83886926286E+01  0.86417940484E+02  0.47000000000E+01 0.  1.
         11    1    6    6    0    0  0.54497512729E+01 -0.30765013299E+02 -0.77686758438E+02  0.83734212057E+02  0.00000000000E+00 0. -1.
        -12    1    6    6    0    0  0.55884453028E+02 -0.13800658921E+02 -0.12615568346E+02  0.58929473454E+02  0.00000000000E+00 0.  1.
</event>
<event>
12    1  0.8313893E-002  0.1945801E+03  0.7818608E-02  0.1154706E+00
         21   -1    0    0  503  502  0.00000000000E+00  0.00000000000E+00  0.64414449462E+03  0.64414449462E+03  0.00000000000E+00 0.  1.
         21   -1    0    0  501  503 -0.00000000000E+00 -0.00000000000E+00 -0.17033437484E+03  0.17033437484E+03  0.00000000000E+00 0.  1.
          6    2    1    2  501    0  0.12129976141E+02  0.81672148921E+02 -0.92998561754E+02  0.21566209156E+03  0.17619287448E+03 0.  0.
         24    2    3    3    0    0  0.54020545804E+02  0.91598700220E+02 -0.24396814720E+02  0.13453474756E+03  0.78713737573E+02 0.  0.
         -6    2    1    2    0  502 -0.12129976141E+02 -0.81672148921E+02  0.56680868153E+03  0.59881677789E+03  0.17461951722E+03 0.  0.
        -24    2    5    5    0    0  0.24331254476E+02 -0.50735138930E+02  0.15151678932E+03  0.18075462263E+03  0.80924853348E+02 0.  0.
          5    1    3    3  501    0 -0.41890569663E+02 -0.99265512992E+01 -0.68601747034E+02  0.81127343994E+02  0.47000000000E+01 0. -1.
        -13    1    4    4    0    0 -0.98310763688E+01  0.51927191888E+02 -0.26939344169E+02  0.59319571679E+02  0.00000000000E+00 0.  1.
         14    1    4    4    0    0  0.63851622172E+02  0.39671508332E+02  0.25425294488E+01  0.75215175885E+02  0.00000000000E+00 0. -1.
         -5    1    5    5    0  502 -0.36461230617E+02 -0.30937009991E+02  0.41529189221E+03  0.41806215526E+03  0.47000000000E+01 0.  1.
         11    1    6    6    0    0 -0.17707513129E+02  0.12757248513E+02  0.42504976086E+02  0.47780502330E+02  0.00000000000E+00 0. -1.
        -12    1    6    6    0    0  0.42038767605E+02 -0.63492387443E+02  0.10901181323E+03  0.13297412030E+03  0.00000000000E+00 0.  1.
</event>
<event>
12    1  0.8313893E-002  0.1957091E+03  0.7818608E-02  0.1153420E+00
         21   -1    0    0  501  502  0.00000000000E+00  0.00000000000E+00  0.13648426754E+03  0.13648426754E+03  0.00000000000E+00 0. -1.
         21   -1    0    0  502  503 -0.00000000000E+00 -0.00000000000E+00 -0.28507891241E+03  0.28507891241E+03  0.00000000000E+00 0. -1.
         -6    2    1    2    0  503  0.73337383352E+02  0.55802909055E+02 -0.10078962316E+03  0.22010006865E+03  0.17260693969E+03 0.  0.
        -24    2    3    3    0    0 -0.26792300390E+02  0.29940989330E+02 -0.26359284807E+02  0.92598077586E+02  0.79153659896E+02 0.  0.
          6    2    1    2  501    0 -0.73337383352E+02 -0.55802909055E+02 -0.47805021700E+02  0.20146311130E+03  0.17265494102E+03 0.  0.
         24    2    5    5    0    0 -0.41537728458E+02 -0.10181659631E+02 -0.75440088830E+02  0.13918708553E+03  0.10887051344E+03 0.  0.
          5    1    5    5  501    0 -0.31799654894E+02 -0.45621249423E+02  0.27635067130E+02  0.62276025769E+02  0.47000000000E+01 0. -1.
        -13    1    6    6    0    0 -0.30656733195E+02  0.35505886919E+02  0.38119588730E+01  0.47064151183E+02  0.00000000000E+00 0.  1.
         14    1    6    6    0    0 -0.10880995264E+02 -0.45687546551E+02 -0.79252047703E+02  0.92122934348E+02  0.00000000000E+00 0. -1.
         -5    1    3    3    0  503  0.10012968374E+03  0.25861919724E+02 -0.74430338354E+02  0.12750199107E+03  0.47000000000E+01 0.  1.
         11    1    4    4    0    0 -0.10087343948E+02 -0.98376873736E+01 -0.43838972924E+02  0.46047694272E+02  0.00000000000E+00 0. -1.
        -12    1    4    4    0    0 -0.16704956441E+02  0.39778676704E+02  0.17479688117E+02  0.46550383314E+02  0.00000000000E+00 0.  1.
</event>
<event>
12    1  0.8313893E-002  0.5822919E+03  0.7818608E-02  0.9943450E-01
         21   -1    0    0  503  502  0.00000000000E+00  0.00000000000E+00  0.67590255482E+03  0.67590255482E+03  0.00000000000E+00 0. -1.
         21   -1    0    0  501  503 -0.00000000000E+00 -0.00000000000E+00 -0.50093347397E+03  0.50093347397E+03  0.00000000000E+00 0. -1.
          6    2    1    2  501    0  0.53839623985E+02 -0.55330422623E+03  0.10096442022E+03  0.59098028601E+03  0.17326168770E+03 0.  0.
         24    2    3    3    0    0  0.35016097983E+02 -0.52363018965E+03  0.12805577655E+03  0.54636072566E+03  0.81835554656E+02 0.  0.
         -6    2    1    2    0  502 -0.53839623985E+02  0.55330422623E+03  0.74004660634E+02  0.58585574278E+03  0.16942842051E+03 0.  0.
        -24    2    5    5    0    0  0.27352349655E+02  0.26966300987E+03  0.69007432988E+02  0.29074298723E+03  0.79392498976E+02 0.  0.
          5    1    3    3  501    0  0.18823526002E+02 -0.29674036578E+02 -0.27091356325E+02  0.44619560347E+02  0.47000000000E+01 0. -1.
        -11    1    4    4    0    0  0.18410228582E+02 -0.34709374891E+02  0.24546671767E+02  0.46327274004E+02  0.00000000000E+00 0.  1.
         12    1    4    4    0    0  0.16605869401E+02 -0.48892081476E+03  0.10350910478E+03  0.50003345166E+03  0.00000000000E+00 0. -1.
         -5    1    5    5    0  502 -0.81191973641E+02  0.28364121636E+03  0.49972276452E+01  0.29511275555E+03  0.47000000000E+01 0.  1.
         11    1    6    6    0    0  0.23353792249E+02  0.20521865390E+03  0.15925655685E+02  0.20715627442E+03  0.00000000000E+00 0. -1.
        -12    1    6    6    0    0  0.39985574061E+01  0.64444355966E+02  0.53081777303E+02  0.83586712813E+02  0.00000000000E+00 0.  1.
</event>
<event>
12    1  0.8313893E-002  0.2918140E+03  0.7818608E-02  0.1089695E+00
         21   -1    0    0  503  502  0.00000000000E+00  0.00000000000E+00  0.23459908557E+03  0.23459908557E+03  0.00000000000E+00 0. -1.
         21   -1    0    0  501  503 -0.00000000000E+00 -0.00000000000E+00 -0.36082791870E+03  0.36082791870E+03  0.00000000000E+00 0. -1.
          6    2    1    2  501    0  0.22951417716E+03  0.55486593043E+02 -0.75109407877E+02  0.29916934918E+03  0.16764652342E+03 0.  0.
         24    2    3    3    0    0  0.98623632791E+02  0.88002189118E+02 -0.54695857519E+02  0.16268344650E+03  0.77480711798E+02 0.  0.
         -6    2    1    2    0  502 -0.22951417716E+03 -0.55486593043E+02 -0.51119425257E+02  0.29625765509E+03  0.17146394092E+03 0.  0.
        -24    2    5    5    0    0 -0.10205358981E+03  0.49934381714E+01 -0.80761780907E+02  0.15201898222E+03  0.78405587052E+02 0.  0.
          5    1    3    3  501    0  0.13089054437E+03 -0.32515596075E+02 -0.20413550358E+02  0.13648590269E+03  0.47000000000E+01 0. -1.
        -13    1    4    4    0    0  0.57858223194E+02  0.49375598478E+02  0.10333220015E+02  0.76761312861E+02  0.00000000000E+00 0.  1.
         14    1    4    4    0    0  0.40765409597E+02  0.38626590639E+02 -0.65029077534E+02  0.85922133638E+02  0.00000000000E+00 0. -1.
         -5    1    5    5    0  502 -0.12746058735E+03 -0.60480031214E+02  0.29642355650E+02  0.14423867287E+03  0.47000000000E+01 0.  1.
         13    1    6    6    0    0 -0.45468558717E+02  0.37754317857E+02 -0.19006187200E+02  0.62080701515E+02  0.00000000000E+00 0. -1.
        -14    1    6    6    0    0 -0.56585031093E+02 -0.32760879685E+02 -0.61755593706E+02  0.89938280702E+02  0.00000000000E+00 0.  1.
</event>
<event>
12    1  0.8313893E-002  0.1947406E+03  0.7818608E-02  0.1154317E+00
         21   -1    0    0  503  502  0.00000000000E+00  0.00000000000E+00  0.32827568163E+02  0.32827568163E+02  0.00000000000E+00 0.  1.
         21   -1    0    0  501  503 -0.00000000000E+00 -0.00000000000E+00 -0.13678778247E+04  0.13678778247E+04  0.00000000000E+00 0.  1.
          6    2    1    2  501    0  0.44762151674E+02  0.78685831765E+02 -0.94517815911E+03  0.96503141786E+03  0.17242034295E+03 0.  0.
         24    2    3    3    0    0 -0.73772539399E+01  0.96537460957E+02 -0.45667704536E+03  0.47340897491E+03  0.78665294267E+02 0.  0.
         -6    2    1    2    0  502 -0.44762151674E+02 -0.78685831765E+02 -0.38987209740E+03  0.43567397497E+03  0.17209430494E+03 0.  0.
        -24    2    5    5    0    0 -0.85502135436E+02 -0.43946868482E+02 -0.18207332233E+03  0.22103715900E+03  0.80403908757E+02 0.  0.
          5    1    3    3  501    0  0.52139405614E+02 -0.17851629191E+02 -0.48850111375E+03  0.49162244296E+03  0.47000000000E+01 0. -1.
        -11    1    4    4    0    0  0.35614428901E+02  0.38643916909E+02 -0.18391650867E+03  0.19127734320E+03  0.00000000000E+00 0.  1.
         12    1    4    4    0    0 -0.42991682841E+02  0.57893544047E+02 -0.27276053669E+03  0.28213163171E+03  0.00000000000E+00 0. -1.
         -5    1    5    5    0  502  0.40739983762E+02 -0.34738963283E+02 -0.20779877508E+03  0.21463681597E+03  0.47000000000E+01 0.  1.
         13    1    6    6    0    0 -0.13803028047E+02 -0.44816454415E+02 -0.10899975913E+03  0.11865911537E+03  0.00000000000E+00 0. -1.
        -14    1    6    6    0    0 -0.71699107389E+02  0.86958593251E+00 -0.73073563195E+02  0.10237804363E+03  0.00000000000E+00 0.  1.
</event>
<event>
12    1  0.8313893E-002  0.2270810E+03  0.7818608E-02  0.1131571E+00
         21   -1    0    0  503  502  0.00000000000E+00  0.00000000000E+00  0.26703246873E+03  0.26703246873E+03  0.00000000000E+00 0.  1.
         21   -1    0    0  501  503 -0.00000000000E+00 -0.00000000000E+00 -0.19278900664E+03  0.19278900664E+03  0.00000000000E+00 0. -1.
          6    2    1    2  501    0  0.12121990867E+02 -0.14677490452E+03 -0.22727269091E+02  0.21290223870E+03  0.15205597398E+03 0.  0.
         24    2    3    3    0    0  0.23756417595E+02 -0.16635487598E+03 -0.95495234341E+01  0.18617251464E+03  0.79565694038E+02 0.  0.
         -6    2    1    2    0  502 -0.12121990867E+02  0.14677490452E+03  0.96970731181E+02  0.24691923668E+03  0.17284667042E+03 0.  0.
        -24    2    5    5    0    0 -0.18801216440E+02  0.98696075638E+01  0.48018485365E+02  0.10129614524E+03  0.86627012013E+02 0.  0.
          5    1    3    3  501    0 -0.11634426728E+02  0.19579971463E+02 -0.13177745657E+02  0.26729724061E+02  0.47000000000E+01 0. -1.
        -13    1    4    4    0    0 -0.29019902697E+02 -0.71975927807E+02  0.14258843956E+00  0.77606116174E+02  0.00000000000E+00 0.  1.
         14    1    4    4    0    0  0.52776320292E+02 -0.94378948178E+02 -0.96921118737E+01  0.10856639846E+03  0.00000000000E+00 0. -1.
         -5    1    5    5    0  502  0.66792255728E+01  0.13690529696E+03  0.48952245816E+02  0.14562309144E+03  0.47000000000E+01 0.  1.
         11    1    6    6    0    0 -0.19119207501E+02  0.18781636314E+02 -0.19529746709E+02  0.33161799780E+02  0.00000000000E+00 0. -1.
        -12    1    6    6    0    0  0.31799106083E+00 -0.89120287504E+01  0.67548232074E+02  0.68134345459E+02  0.00000000000E+00 0.  1.
</event>
<event>
12    1  0.8313893E-002  0.2608807E+03  0.7818608E-02  0.1107049E+00
         21   -1    0    0  501  502  0.00000000000E+00  0.00000000000E+00  0.32377998183E+02  0.32377998183E+02  0.00000000000E+00 0.  1.
         21   -1    0    0  502  503 -0.00000000000E+00 -0.00000000000E+00 -0.22694557272E+04  0.22694557272E+04  0.00000000000E+00 0. -1.
         -6    2    1    2    0  503 -0.17292678767E+03 -0.90508915804E+02 -0.77928067469E+03  0.82087762167E+03  0.16871918115E+03 0.  0.
        -24    2    3    3    0    0 -0.61857305000E+02  0.19167709873E+02 -0.29985219587E+03  0.31665629279E+03  0.78524780231E+02 0.  0.
          6    2    1    2  501    0  0.17292678767E+03  0.90508915804E+02 -0.14577970543E+04  0.14809561037E+04  0.17309879194E+03 0.  0.
         24    2    5    5    0    0  0.10130828772E+03 -0.12918774486E+02 -0.88630143875E+03  0.89575885040E+03  0.80146202945E+02 0.  0.
          5    1    5    5  501    0  0.71618499950E+02  0.10342769029E+03 -0.57149561553E+03  0.58519725327E+03  0.47000000000E+01 0. -1.
        -13    1    6    6    0    0  0.40613372255E+02 -0.20964219322E+02 -0.14735731899E+03  0.15428261068E+03  0.00000000000E+00 0.  1.
         14    1    6    6    0    0  0.60694915463E+02  0.80454448361E+01 -0.73894411976E+03  0.74147623972E+03  0.00000000000E+00 0. -1.
         -5    1    3    3    0  503 -0.11106948267E+03 -0.10967662568E+03 -0.47942847882E+03  0.50422132889E+03  0.47000000000E+01 0.  1.
         11    1    4    4    0    0  0.18844652788E+02  0.53016306621E+01 -0.68398939076E+02  0.71145225371E+02  0.00000000000E+00 0. -1.
        -12    1    4    4    0    0 -0.80701957788E+02  0.13866079211E+02 -0.23145325679E+03  0.24551106742E+03  0.00000000000E+00 0.  1.
</event>
<event>
12    1  0.8313893E-002  0.1857926E+03  0.7818608E-02  0.1162482E+00
         21   -1    0    0  503  502  0.00000000000E+00  0.00000000000E+00  0.63066530915E+03  0.63066530915E+03  0.00000000000E+00 0. -1.
         21   -1    0    0  501  503 -0.00000000000E+00 -0.00000000000E+00 -0.23761129269E+03  0.23761129269E+03  0.00000000000E+00 0. -1.
          6    2    1    2  501    0  0.52299767802E+01  0.71620217226E+02 -0.18465305215E+03  0.26142872370E+03  0.17056207003E+03 0.  0.
         24    2    3    3    0    0 -0.50646008690E+02  0.27517635118E+02 -0.52589093530E+02  0.11132828177E+03  0.79411177579E+02 0.  0.
         -6    2    1    2    0  502 -0.52299767802E+01 -0.71620217226E+02  0.57770706861E+03  0.60684787814E+03  0.17135367492E+03 0.  0.
        -24    2    5    5    0    0 -0.26787595031E+02 -0.24701881983E+02  0.52745921512E+03  0.53464678488E+03  0.79411603403E+02 0.  0.
          5    1    3    3  501    0  0.55875985470E+02  0.44102582107E+02 -0.13206395862E+03  0.15010044193E+03  0.47000000000E+01 0. -1.
        -13    1    4    4    0    0 -0.17660063211E+02 -0.19474091838E+02  0.83693877840E+01  0.27589214150E+02  0.00000000000E+00 0.  1.
         14    1    4    4    0    0 -0.32985945479E+02  0.46991726957E+02 -0.60958481314E+02  0.83739067619E+02  0.00000000000E+00 0. -1.
         -5    1    5    5    0  502  0.21557618251E+02 -0.46918335242E+02  0.50247853495E+02  0.72201093256E+02  0.47000000000E+01 0.  1.
         11    1    6    6    0    0 -0.50774545983E+02 -0.24419804959E+02  0.45118550733E+03  0.45468972214E+03  0.00000000000E+00 0. -1.
        -12    1    6    6    0    0  0.23986950952E+02 -0.28207702460E+00  0.76273707782E+02  0.79957062741E+02  0.00000000000E+00 0.  1.
</event>
<event>
12    1  0.8313893E-002  0.2160380E+03  0.7818608E-02  0.1137119E+00
         21   -1    0    0  501  502  0.00000000000E+00  0.00000000000E+00  0.80696154560E+02  0.80696154560E+02  0.00000000000E+00 0.  1.
         21   -1    0    0  502  503 -0.00000000000E+00 -0.00000000000E+00 -0.57535429953E+03  0.57535429953E+03  0.00000000000E+00 0.  1.
         -6    2    1    2    0  503 -0.10225328998E+03  0.77805927177E+02 -0.25563714723E+03  0.33386503420E+03  0.17206397763E+03 0.  0.
        -24    2    3    3    0    0  0.38734936563E+01  0.71396082353E+02 -0.11449968591E+03  0.15710006792E+03  0.80360741274E+02 0.  0.
          6    2    1    2  501    0  0.10225328998E+03 -0.77805927177E+02 -0.23902099774E+03  0.32218541989E+03  0.17367472417E+03 0.  0.
         24    2    5    5    0    0  0.13065102248E+03 -0.48351379278E+02 -0.22916857102E+03  0.27983967730E+03  0.79902850372E+02 0.  0.
          5    1    5    5  501    0 -0.28397732502E+02 -0.29454547899E+02 -0.98524267169E+01  0.42345742589E+02  0.47000000000E+01 0. -1.
        -11    1    6    6    0    0  0.27155525725E+02 -0.35256466840E+02 -0.26227476726E+02  0.51655798967E+02  0.00000000000E+00 0.  1.
         12    1    6    6    0    0  0.10349549675E+03 -0.13094912438E+02 -0.20294109429E+03  0.22818387834E+03  0.00000000000E+00 0. -1.
         -5    1    3    3    0  503 -0.10612678363E+03  0.64098448240E+01 -0.14113746132E+03  0.17676496628E+03  0.47000000000E+01 0.  1.
         11    1    4    4    0    0  0.23680840212E+02  0.27485462971E+02 -0.10063239041E+03  0.10697247715E+03  0.00000000000E+00 0. -1.
        -12    1    4    4    0    0 -0.19807346556E+02  0.43910619381E+02 -0.13867295502E+02  0.50127590772E+02  0.00000000000E+00 0.  1.
</event>
<event>
12    1  0.8313893E-002  0.1838429E+03  0.7818608E-02  0.1164294E+00
         21   -1    0    0  503  502  0.00000000000E+00  0.00000000000E+00  0.35791770141E+03  0.35791770141E+03  0.00000000000E+00 0.  1.
         21   -1    0    0  501  503 -0.00000000000E+00 -0.00000000000E+00 -0.12617687975E+03  0.12617687975E+03  0.00000000000E+00 0.  1.
          6    2    1    2  501    0  0.52491670883E+02 -0.32740715688E+02 -0.60428246192E+01  0.18394213846E+03  0.17312095366E+03 0.  0.
         24    2    3    3    0    0  0.16577947093E+02  0.34440554019E+02 -0.41359785590E+02  0.99844003595E+02  0.82445212710E+02 0.  0.
         -6    2    1    2    0  502 -0.52491670883E+02  0.32740715688E+02  0.23778364628E+03  0.30015244270E+03  0.17240387597E+03 0.  0.
        -24    2    5    5    0    0  0.13275224003E+02  0.66773814957E+02  0.96745531678E+02  0.14078690039E+03  0.76330069332E+02 0.  0.
          5    1    3    3  501    0  0.35913723790E+02 -0.67181269707E+02  0.35316960971E+02  0.84098134867E+02  0.47000000000E+01 0. -1.
        -13    1    4    4    0    0 -0.23581384905E+02  0.30698275142E+02 -0.44985796277E+02  0.59348021681E+02  0.00000000000E+00 0.  1.
         14    1    4    4    0    0  0.40159331998E+02  0.37422788775E+01  0.36260106872E+01  0.40495981915E+02  0.00000000000E+00 0. -1.
         -5    1    5    5    0  502 -0.65766894886E+02 -0.34033099269E+02  0.14103811460E+03  0.15936554232E+03  0.47000000000E+01 0.  1.
         13    1    6    6    0    0 -0.26106376274E+02  0.50374676995E+02  0.38405293060E+02  0.68513630027E+02  0.00000000000E+00 0. -1.
        -14    1    6    6    0    0  0.39381600277E+02  0.16399137962E+02  0.58340238617E+02  0.72273270358E+02  0.00000000000E+00 0.  1.
</event>
<event>
12    1  0.8313893E-002  0.1835798E+03  0.7818608E-02  0.1164798E+00
         21   -1    0    0  501  502  0.00000000000E+00  0.00000000000E+00  0.69417028259E+02  0.69417028259E+02  0.00000000000E+00 0.  1.
         21   -1    0    0  502  503 -0.00000000000E+00 -0.00000000000E+00 -0.57784878921E+03  0.57784878921E+03  0.00000000000E+00 0.  1.
         -6    2    1    2    0  503  0.10923691348E+02 -0.58262235346E+02 -0.12265289150E+03  0.22078330385E+03  0.17374613769E+03 0.  0.
        -24    2    3    3    0    0  0.71243662660E+02 -0.62124379395E+02 -0.78976709181E+02  0.14606306564E+03  0.78498411232E+02 0.  0.
          6    2    1    2  501    0 -0.10923691348E+02  0.58262235346E+02 -0.38577886945E+03  0.42648251362E+03  0.17189584990E+03 0.  0.
         24    2    5    5    0    0  0.30267153030E+02  0.91704682736E+02 -0.30649609231E+03  0.33096847435E+03  0.79211280906E+02 0.  0.
          5    1    5    5  501    0 -0.41190844377E+02 -0.33442447390E+02 -0.79282777134E+02  0.95514039272E+02  0.47000000000E+01 0. -1.
        -11    1    6    6    0    0  0.11319697490E+00  0.11166569742E+02 -0.16507569080E+03  0.16545298059E+03  0.00000000000E+00 0.  1.
         12    1    6    6    0    0  0.30153956055E+02  0.80538112993E+02 -0.14142040151E+03  0.16551549376E+03  0.00000000000E+00 0. -1.
         -5    1    3    3    0  503 -0.60319971312E+02  0.38621440490E+01 -0.43676182323E+02  0.74720238209E+02  0.47000000000E+01 0.  1.
         13    1    4    4    0    0  0.13879767856E+02 -0.38082344351E+02 -0.73102914711E+02  0.83587971899E+02  0.00000000000E+00 0. -1.
        -14    1    4    4    0    0  0.57363894804E+02 -0.24042035044E+02 -0.58737944704E+01  0.62475093738E+02  0.00000000000E+00 0.  1.
</event>
<event>
12    1  0.8313893E-002  0.1854088E+03  0.7818608E-02  0.1163292E+00
         21   -1    0    0  503  502  0.00000000000E+00  0.00000000000E+00  0.59382029491E+03  0.59382029491E+03  0.00000000000E+00 0. -1.
         21   -1    0    0  501  503 -0.00000000000E+00 -0.00000000000E+00 -0.69057936802E+02  0.69057936802E+02  0.00000000000E+00 0. -1.
          6    2    1    2  501    0 -0.65781736959E+02 -0.12055923455E+00  0.12582149564E+03  0.22407026476E+03  0.17334700266E+03 0.  0.
         24    2    3    3    0    0 -0.79430766759E+02 -0.40764294317E+02  0.46395337280E+02  0.13368877413E+03  0.88029464433E+02 0.  0.
         -6    2    1    2    0  502  0.65781736959E+02  0.12055923455E+00  0.39894086247E+03  0.43880796695E+03  0.17050328051E+03 0.  0.
        -24    2    5    5    0    0  0.73807722828E+02 -0.46031254965E+02  0.18687700659E+03  0.22158095351E+03  0.81293585115E+02 0.  0.
          5    1    3    3  501    0  0.13649029799E+02  0.40643735083E+02  0.79426158361E+02  0.90381490626E+02  0.47000000000E+01 0. -1.
        -13    1    4    4    0    0  0.23426724981E+00  0.98596313876E+01 -0.17233413943E+02  0.19855925271E+02  0.00000000000E+00 0.  1.
         14    1    4    4    0    0 -0.79665034008E+02 -0.50623925705E+02  0.63628751223E+02  0.11383284886E+03  0.00000000000E+00 0. -1.
         -5    1    5    5    0  502 -0.80259858684E+01  0.46151814200E+02  0.21206385588E+03  0.21722701345E+03  0.47000000000E+01 0.  1.
         11    1    6    6    0    0  0.72900223604E+02 -0.11528689912E+02  0.16489949090E+03  0.18066320985E+03  0.00000000000E+00 0. -1.
        -12    1    6    6    0    0  0.90749922417E+00 -0.34502565053E+02  0.21977515687E+02  0.40917743656E+02  0.00000000000E+00 0.  1.
</event>
<event>
12    1  0.8313893E-002  0.1757970E+03  0.7818608E-02  0.1173595E+00
         21   -1    0    0  501  502  0.00000000000E+00  0.00000000000E+00  0.23350489090E+03  0.23350489090E+03  0.00000000000E+00 0. -1.
         21   -1    0    0  502  503 -0.00000000000E+00 -0.00000000000E+00 -0.18715999463E+03  0.18715999463E+03  0.00000000000E+00 0. -1.
         -6    2    1    2    0  503  0.26654956946E+02 -0.81643852275E+00 -0.95281606983E+02  0.19995792893E+03  0.17376258346E+03 0.  0.
        -24    2    3    3    0    0  0.64795487411E+02 -0.39612070712E+02 -0.97583995866E+02  0.14530271750E+03  0.76306435699E+02 0.  0.
          6    2    1    2  501    0 -0.26654956946E+02  0.81643852275E+00  0.14162650325E+03  0.22070695661E+03  0.16715962721E+03 0.  0.
         24    2    5    5    0    0  0.25531329680E+02 -0.51141804309E+02  0.67615429488E+02  0.11619477287E+03  0.75246567984E+02 0.  0.
          5    1    5    5  501    0 -0.52186286626E+02  0.51958242832E+02  0.74011073766E+02  0.10451218374E+03  0.47000000000E+01 0. -1.
        -13    1    6    6    0    0  0.27853540154E+02 -0.67611167289E+02  0.67569138460E+02  0.99562433244E+02  0.00000000000E+00 0.  1.
         14    1    6    6    0    0 -0.23222104742E+01  0.16469362980E+02  0.46291028238E-01  0.16632339622E+02  0.00000000000E+00 0. -1.
         -5    1    3    3    0  503 -0.38140530466E+02  0.38795632190E+02  0.23023888838E+01  0.54655211424E+02  0.47000000000E+01 0.  1.
         13    1    4    4    0    0  0.15929024251E+02 -0.54285421722E+02 -0.48847959619E+02  0.74744658566E+02  0.00000000000E+00 0. -1.
        -14    1    4    4    0    0  0.48866463161E+02  0.14673351010E+02 -0.48736036247E+02  0.70558058936E+02  0.00000000000E+00 0.  1.
</event>
<event>
12    1  0.8313893E-002  0.3287560E+03  0.7818608E-02  0.1071874E+00
         21   -1    0    0  501  502  0.00000000000E+00  0.00000000000E+00  0.69050508738E+03  0.69050508738E+03  0.00000000000E+00 0. -1.
         21   -1    0    0  502  503 -0.00000000000E+00 -0.00000000000E+00 -0.27322764261E+03  0.27322764261E+03  0.00000000000E+00 0.  1.
         -6    2    1    2    0  503 -0.27275751411E+03  0.39635141191E+02 -0.10704891671E+03  0.34574551478E+03  0.17920068219E+03 0.  0.
        -24    2    3    3    0    0 -0.30577252604E+02  0.23727479685E+01 -0.11023867463E+02  0.82529510144E+02  0.75822134505E+02 0.  0.
          6    2    1    2  501    0  0.27275751411E+03 -0.39635141191E+02  0.52432636149E+03  0.61798721521E+03  0.17613193604E+03 0.  0.
         24    2    5    5    0    0  0.15224675053E+03  0.47311912841E+02  0.30151503898E+03  0.35012603889E+03  0.79116586337E+02 0.  0.
          5    1    5    5  501    0  0.12051076358E+03 -0.86947054032E+02  0.22281132251E+03  0.26786117633E+03  0.47000000000E+01 0. -1.
        -11    1    6    6    0    0  0.15818818518E+03  0.51367639525E+02  0.26470288852E+03  0.31261758670E+03  0.00000000000E+00 0.  1.
         12    1    6    6    0    0 -0.59414346471E+01 -0.40557266833E+01  0.36812150457E+02  0.37508452192E+02  0.00000000000E+00 0. -1.
         -5    1    3    3    0  503 -0.24218026151E+03  0.37262393222E+02 -0.96025049249E+02  0.26321600464E+03  0.47000000000E+01 0.  1.
         13    1    4    4    0    0 -0.50234324782E+01 -0.28969429511E+02  0.16402056311E+02  0.33667345772E+02  0.00000000000E+00 0. -1.
        -14    1    4    4    0    0 -0.25553820126E+02  0.31342177480E+02 -0.27425923775E+02  0.48862164372E+02  0.00000000000E+00 0.  1.
</event>
<event>
12    1  0.8313893E-002  0.1833386E+03  0.7818608E-02  0.1164795E+00
         21   -1    0    0  503  502  0.00000000000E+00  0.00000000000E+00  0.30969761723E+03  0.30969761723E+03  0.00000000000E+00 0. -1.
         21   -1    0    0  501  503 -0.00000000000E+00 -0.00000000000E+00 -0.16687920132E+03  0.16687920132E+03  0.00000000000E+00 0. -1.
          6    2    1    2  501    0 -0.63140358151E+02 -0.18160446416E+02 -0.70141976130E+02  0.19556938941E+03  0.17032610668E+03 0.  0.
         24    2    3    3    0    0  0.11075322266E+02 -0.51847757793E+02 -0.15009390998E+02  0.97057998638E+02  0.79900691674E+02 0.  0.
         -6    2    1    2    0  502  0.63140358151E+02  0.18160446416E+02  0.21296039204E+03  0.28100742914E+03  0.17116232065E+03 0.  0.
        -24    2    5    5    0    0 -0.22449959526E+02 -0.19317022289E+02  0.12824560606E+03  0.15479749250E+03  0.81475027951E+02 0.  0.
          5    1    3    3  501    0 -0.74215680417E+02  0.33687311377E+02 -0.55132585133E+02  0.98511390767E+02  0.47000000000E+01 0. -1.
        -11    1    4    4    0    0 -0.91129847239E+01 -0.77543281897E+01  0.29124480587E+02  0.31486687118E+02  0.00000000000E+00 0.  1.
         12    1    4    4    0    0  0.20188306990E+02 -0.44093429603E+02 -0.44133871584E+02  0.65571311519E+02  0.00000000000E+00 0. -1.
         -5    1    5    5    0  502  0.85590317676E+02  0.37477468705E+02  0.84714785985E+02  0.12620993663E+03  0.47000000000E+01 0.  1.
         13    1    6    6    0    0  0.40466710283E+00 -0.35814357395E+02  0.16288175094E+02  0.39346367036E+02  0.00000000000E+00 0. -1.
        -14    1    6    6    0    0 -0.22854626628E+02  0.16497335106E+02  0.11195743096E+03  0.11545112547E+03  0.00000000000E+00 0.  1.
</event>
<event>
12    1  0.8313893E-002  0.1738751E+03  0.7818608E-02  0.1174125E+00
         21   -1    0    0  503  502  0.00000000000E+00  0.00000000000E+00  0.73393111713E+03  0.73393111713E+03  0.00000000000E+00 0.  1.
         21   -1    0    0  501  503 -0.00000000000E+00 -0.00000000000E+00 -0.63216289418E+02  0.63216289418E+02  0.00000000000E+00 0.  1.
          6    2    1    2  501    0  0.39401104795E+00  0.25275359257E+02  0.57125792333E+03  0.59683710408E+03  0.17099682692E+03 0.  0.
         24    2    3    3    0    0 -0.46380175719E+02 -0.13993708187E+02  0.20130428059E+03  0.22184687491E+03  0.79659763699E+02 0.  0.
         -6    2    1    2    0  502 -0.39401104795E+00 -0.25275359257E+02  0.99456904388E+02  0.20031030247E+03  0.17202773734E+03 0.  0.
        -24    2    5    5    0    0  0.31440705741E+02 -0.65429996020E+02  0.27406888556E+02  0.11177139109E+03  0.80449387623E+02 0.  0.
          5    1    3    3  501    0  0.46774186767E+02  0.39269067444E+02  0.36995364274E+03  0.37499022918E+03  0.47000000000E+01 0. -1.
        -11    1    4    4    0    0  0.76265231218E+00 -0.56948393318E+01  0.15546294432E+03  0.15556908398E+03  0.00000000000E+00 0.  1.
         12    1    4    4    0    0 -0.47142828031E+02 -0.82988688550E+01  0.45841336274E+02  0.66277790929E+02  0.00000000000E+00 0. -1.
         -5    1    5    5    0  502 -0.31834716789E+02  0.40154636763E+02  0.72050015833E+02  0.88538911379E+02  0.47000000000E+01 0.  1.
         11    1    6    6    0    0 -0.13461371442E+02  0.96173710648E+01 -0.67704705630E+01  0.17875727088E+02  0.00000000000E+00 0. -1.
        -12    1    6    6    0    0  0.44902077183E+02 -0.75047367085E+02  0.34177359119E+02  0.93895664000E+02  0.00000000000E+00 0.  1.
</event>
<event>
12    1  0.8313893E-002  0.1784552E+03  0.7818608E-02  0.1169690E+00
         21   -1    0    0  503  502  0.00000000000E+00  0.00000000000E+00  0.20583614501E+03  0.20583614501E+03  0.00000000000E+00 0.  1.
         21   -1    0    0  501  503 -0.00000000000E+00 -0.00000000000E+00 -0.15633161904E+03  0.15633161904E+03  0.00000000000E+00 0.  1.
          6    2    1    2  501    0  0.40367730810E+02 -0.14415050219E+02 -0.76098269257E-01  0.17845518432E+03  0.17323076994E+03 0.  0.
         24    2    3    3    0    0  0.78442985585E+02  0.27759800647E+02 -0.22001007824E+02  0.11737135069E+03  0.79800257504E+02 0.  0.
         -6    2    1    2    0  502 -0.40367730810E+02  0.14415050219E+02  0.49580624240E+02  0.18371257973E+03  0.17162379289E+03 0.  0.
        -24    2    5    5    0    0 -0.21671614510E+01 -0.20736731188E+02 -0.30415323641E+02  0.88232880774E+02  0.80157599317E+02 0.  0.
          5    1    3    3  501    0 -0.38075254776E+02 -0.42174850866E+02  0.21924909554E+02  0.61083833629E+02  0.47000000000E+01 0. -1.
        -13    1    4    4    0    0  0.69061528817E+02  0.30522336094E+02  0.16803986507E+02  0.77352968435E+02  0.00000000000E+00 0.  1.
         14    1    4    4    0    0  0.93814567682E+01 -0.27625354467E+01 -0.38804994331E+02  0.40018382254E+02  0.00000000000E+00 0. -1.
         -5    1    5    5    0  502 -0.38200569359E+02  0.35151781407E+02  0.79995947881E+02  0.95479698956E+02  0.47000000000E+01 0.  1.
         13    1    6    6    0    0  0.27697667866E+02  0.68120170164E+01  0.10666869037E+02  0.30452364048E+02  0.00000000000E+00 0. -1.
        -14    1    6    6    0    0 -0.29864829317E+02 -0.27548748205E+02 -0.41082192679E+02  0.57780516726E+02  0.00000000000E+00 0.  1.
</event>
<event>
12    1  0.8313893E-002  0.1862690E+03  0.7818608E-02  0.1162147E+00
         21   -1    0    0  503  502  0.00000000000E+00  0.00000000000E+00  0.17345417428E+03  0.17345417428E+03  0.00000000000E+00 0. -1.
         21   -1    0    0  501  503 -0.00000000000E+00 -0.00000000000E+00 -0.42723625939E+03  0.42723625939E+03  0.00000000000E+00 0. -1.
          6    2    1    2  501    0  0.32563618124E+02 -0.64226380405E+02 -0.34672173718E+03  0.39358874582E+03  0.17178684652E+03 0.  0.
         24    2    3    3    0    0  0.95581955606E+00 -0.10286574818E+03 -0.19847279396E+03  0.23708988692E+03  0.78980306391E+02 0.  0.
         -6    2    1    2    0  502 -0.32563618124E+02  0.64226380405E+02  0.92939652071E+02  0.20710168785E+03  0.17049314655E+03 0.  0.
        -24    2    5    5    0    0 -0.42571934669E+02  0.76948461393E+02  0.12395868099E+03  0.17179888486E+03  0.80097858358E+02 0.  0.
          5    1    3    3  501    0  0.31607798568E+02  0.38639367772E+02 -0.14824894322E+03  0.15649885890E+03  0.47000000000E+01 0. -1.
        -11    1    4    4    0    0  0.50190202946E+01 -0.27244199977E+02 -0.34960894596E+01  0.27922385977E+02  0.00000000000E+00 0.  1.
         12    1    4    4    0    0 -0.40632007386E+01 -0.75621548200E+02 -0.19497670450E+03  0.20916750094E+03  0.00000000000E+00 0. -1.
         -5    1    5    5    0  502  0.10008316546E+02 -0.12722080988E+02 -0.31019028914E+02  0.35302802998E+02  0.47000000000E+01 0.  1.
         11    1    6    6    0    0 -0.27856547086E+02  0.70629912338E+02  0.39021959548E+02  0.85365596462E+02  0.00000000000E+00 0. -1.
        -12    1    6    6    0    0 -0.14715387583E+02  0.63185490554E+01  0.84936721437E+02  0.86433288393E+02  0.00000000000E+00 0.  1.
</event>
<event>
12    1  0.8313893E-002  0.1831621E+03  0.7818608E-02  0.1165262E+00
         21   -1    0    0  503  502  0.00000000000E+00  0.00000000000E+00  0.15105724710E+03  0.15105724710E+03  0.00000000000E+00 0. -1.
         21   -1    0    0  501  503 -0.00000000000E+00 -0.00000000000E+00 -0.24345888660E+03  0.24345888660E+03  0.00000000000E+00 0. -1.
          6    2    1    2  501    0 -0.62080933737E+02  0.52305847633E+00 -0.10814931231E+03  0.21270785109E+03  0.17231958750E+03 0.  0.
         24    2    3    3    0    0  0.22898549273E+02  0.59506850950E+01 -0.11037299408E+02  0.83464651215E+02  0.79276552727E+02 0.  0.
         -6    2    1    2    0  502  0.62080933737E+02 -0.52305847633E+00  0.15747672811E+02  0.18180828261E+03  0.17015271523E+03 0.  0.
        -24    2    5    5    0    0  0.13211370017E+02  0.47090643640E+02 -0.31423905050E+02  0.98726716389E+02  0.79796201064E+02 0.  0.
          5    1    3    3  501    0 -0.84979483009E+02 -0.54276266187E+01 -0.97112012906E+02  0.12924319987E+03  0.47000000000E+01 0. -1.
        -13    1    4    4    0    0  0.29233013799E+02  0.33223591177E+01 -0.42262651982E+02  0.51495037804E+02  0.00000000000E+00 0.  1.
         14    1    4    4    0    0 -0.63344645264E+01  0.26283259773E+01  0.31225352574E+02  0.31969613411E+02  0.00000000000E+00 0. -1.
         -5    1    5    5    0  502  0.48869563720E+02 -0.47613702116E+02  0.47171577861E+02  0.83081566218E+02  0.47000000000E+01 0.  1.
         11    1    6    6    0    0  0.32659277757E+02  0.18109079545E+02  0.15342034282E+02  0.40372579822E+02  0.00000000000E+00 0. -1.
        -12    1    6    6    0    0 -0.19447907740E+02  0.28981564094E+02 -0.46765939332E+02  0.58354136567E+02  0.00000000000E+00 0.  1.
</event>
<event>
12    1  0.8313893E-002  0.2457303E+03  0.7818608E-02  0.1116379E+00
         21   -1    0    0  503  502  0.00000000000E+00  0.00000000000E+00  0.47811756276E+03  0.47811756276E+03  0.00000000000E+00 0.  1.
         21   -1    0    0  501  503 -0.00000000000E+00 -0.00000000000E+00 -0.16193653036E+03  0.16193653036E+03  0.00000000000E+00 0. -1.
          6    2    1    2  501    0 -0.17128971876E+03  0.44534829054E+02  0.61977354739E+01  0.24580848759E+03  0.17046959229E+03 0.  0.
         24    2    3    3    0    0 -0.85264290120E+02  0.53274313065E+02 -0.54973897983E+02  0.13978579335E+03  0.80061145140E+02 0.  0.
         -6    2    1    2    0  502  0.17128971876E+03 -0.44534829054E+02  0.30998329693E+03  0.39424560553E+03  0.16738110512E+03 0.  0.
        -24    2    5    5    0    0  0.11130205077E+03 -0.61525482685E+02  0.10378855712E+03  0.17877968398E+03  0.70827814388E+02 0.  0.
          5    1    3    3  501    0 -0.86025428645E+02 -0.87394840102E+01  0.61171633457E+02  0.10602269424E+03  0.47000000000E+01 0. -1.
        -13    1    4    4    0    0 -0.31915759282E+01  0.35728927571E+02  0.55683933800E+01  0.36300818546E+02  0.00000000000E+00 0.  1.
         14    1    4    4    0    0 -0.82072714191E+02  0.17545385494E+02 -0.60542291363E+02  0.10348497480E+03  0.00000000000E+00 0. -1.
         -5    1    5    5    0  502  0.59987667996E+02  0.16990653630E+02  0.20619473981E+03  0.21546592155E+03  0.47000000000E+01 0.  1.
         13    1    6    6    0    0  0.95140523324E+02 -0.16261535844E+02  0.59261349110E+02  0.11326104460E+03  0.00000000000E+00 0. -1.
        -14    1    6    6    0    0  0.16161527445E+02 -0.45263946841E+02  0.44527208009E+02  0.65518639379E+02  0.00000000000E+00 0.  1.
</event>
<event>
12    1  0.8313893E-002  0.1853561E+03  0.7818608E-02  0.1162775E+00
         21   -1    0    0  503  502  0.00000000000E+00  0.00000000000E+00  0.37151559173E+03  0.37151559173E+03  0.00000000000E+00 0.  1.
         21   -1    0    0  501  503 -0.00000000000E+00 -0.00000000000E+00 -0.17887504958E+03  0.17887504958E+03  0.00000000000E+00 0.  1.
          6    2    1    2  501    0  0.63928110340E+02 -0.27104302240E+02 -0.95039338914E+02  0.20830113969E+03  0.17185878611E+03 0.  0.
         24    2    3    3    0    0  0.24239615106E+02 -0.60439000159E+02 -0.11298996593E+03  0.15324940266E+03  0.80487361325E+02 0.  0.
         -6    2    1    2    0  502 -0.63928110340E+02  0.27104302240E+02  0.28767988106E+03  0.34208950162E+03  0.17159273488E+03 0.  0.
        -24    2    5    5    0    0 -0.24482224741E+02 -0.46838171144E+02  0.11377848411E+03  0.14899042570E+03  0.80370454150E+02 0.  0.
          5    1    3    3  501    0  0.39688495234E+02  0.33334697919E+02  0.17950627020E+02  0.55051737027E+02  0.47000000000E+01 0. -1.
        -13    1    4    4    0    0 -0.28034377031E+02 -0.10808369142E+02 -0.45358535547E+02  0.54407204357E+02  0.00000000000E+00 0.  1.
         14    1    4    4    0    0  0.52273992136E+02 -0.49630631017E+02 -0.67631430387E+02  0.98842198302E+02  0.00000000000E+00 0. -1.
         -5    1    5    5    0  502 -0.39445885599E+02  0.73942473384E+02  0.17390139695E+03  0.19309907592E+03  0.47000000000E+01 0.  1.
         11    1    6    6    0    0  0.20565155716E+02 -0.61183707614E+01  0.17052609890E+01  0.21523661525E+02  0.00000000000E+00 0. -1.
        -12    1    6    6    0    0 -0.45047380456E+02 -0.40719800383E+02  0.11207322312E+03  0.12746676418E+03  0.00000000000E+00 0.  1.
</event>
<event>
12    1  0.8313893E-002  0.1735902E+03  0.7818608E-02  0.1174169E+00
         21   -1    0    0  503  502  0.00000000000E+00  0.00000000000E+00  0.73573003824E+03  0.73573003824E+03  0.00000000000E+00 0.  1.
         21   -1    0    0  501  503 -0.00000000000E+00 -0.00000000000E+00 -0.55622003186E+02  0.55622003186E+02  0.00000000000E+00 0.  1.
          6    2    1    2  501    0 -0.90720714789E+00  0.22756826765E+02  0.13683550868E+03  0.22103736336E+03  0.17208969574E+03 0.  0.
         24    2    3    3    0    0  0.64806316813E+02  0.28834628813E+02  0.95578656563E+02  0.14306669737E+03  0.79382024339E+02 0.  0.
         -6    2    1    2    0  502  0.90720714789E+00 -0.22756826765E+02  0.54327252637E+03  0.57031467806E+03  0.17203225834E+03 0.  0.
        -24    2    5    5    0    0  0.62749727366E+02 -0.15983782896E+02  0.24645023278E+03  0.26700636066E+03  0.79760076449E+02 0.  0.
          5    1    3    3  501    0 -0.65713523961E+02 -0.60778020473E+01  0.41256852114E+02  0.77970665993E+02  0.47000000000E+01 0. -1.
        -11    1    4    4    0    0  0.20022795737E+02  0.50681473179E+02  0.35603839993E+02  0.65093452013E+02  0.00000000000E+00 0.  1.
         12    1    4    4    0    0  0.44783521076E+02 -0.21846844367E+02  0.59974816570E+02  0.77973245356E+02  0.00000000000E+00 0. -1.
         -5    1    5    5    0  502 -0.61842520219E+02 -0.67730438699E+01  0.29682229359E+03  0.30330831740E+03  0.47000000000E+01 0.  1.
         11    1    6    6    0    0  0.48215667034E+02 -0.17074115189E+02  0.55403212492E+02  0.75404190278E+02  0.00000000000E+00 0. -1.
        -12    1    6    6    0    0  0.14534060333E+02  0.10903322931E+01  0.19104702029E+03  0.19160217038E+03  0.00000000000E+00 0.  1.
</event>
<event>
12    1  0.8313893E-002  0.1724360E+03  0.7818608E-02  0.1175619E+00
         21   -1    0    0  501  502  0.00000000000E+00  0.00000000000E+00  0.83762443904E+03  0.83762443904E+03  0.00000000000E+00 0. -1.
         21   -1    0    0  502  503 -0.00000000000E+00 -0.00000000000E+00 -0.35999251066E+02  0.35999251066E+02  0.00000000000E+00 0. -1.
         -6    2    1    2    0  503 -0.65633589048E+01 -0.11505390891E+02  0.33981532281E+03  0.38106251798E+03  0.17192654620E+03 0.  0.
        -24    2    3    3    0    0  0.17933108285E+02 -0.37585320789E+02  0.33204565835E+03  0.34414778739E+03  0.80306460667E+02 0.  0.
          6    2    1    2  501    0  0.65633589048E+01  0.11505390891E+02  0.46180986516E+03  0.49256117213E+03  0.17080019037E+03 0.  0.
         24    2    5    5    0    0  0.31053079312E+02  0.44347885170E+00  0.45734205399E+03  0.46491766222E+03  0.77602756945E+02 0.  0.
          5    1    5    5  501    0 -0.24489720407E+02  0.11061912039E+02  0.44678111713E+01  0.27643509912E+02  0.47000000000E+01 0. -1.
        -13    1    6    6    0    0  0.33767322695E+02  0.54816827660E+01  0.73911496059E+02  0.81444399302E+02  0.00000000000E+00 0.  1.
         14    1    6    6    0    0 -0.27142433830E+01 -0.50382039143E+01  0.38343055793E+03  0.38347326292E+03  0.00000000000E+00 0. -1.
         -5    1    3    3    0  503 -0.24496467190E+02  0.26079929898E+02  0.77696644610E+01  0.36914730584E+02  0.47000000000E+01 0.  1.
         13    1    4    4    0    0 -0.15995992650E+02 -0.49885557906E+02  0.23053759167E+03  0.23641493574E+03  0.00000000000E+00 0. -1.
        -14    1    4    4    0    0  0.33929100935E+02  0.12300237116E+02  0.10150806668E+03  0.10773285165E+03  0.00000000000E+00 0.  1.
</event>
<event>
12    1  0.8313893E-002  0.1907643E+03  0.7818608E-02  0.1158396E+00
         21   -1    0    0  503  502  0.00000000000E+00  0.00000000000E+00  0.73532450876E+02  0.73532450876E+02  0.00000000000E+00 0. -1.
         21   -1    0    0  501  503 -0.00000000000E+00 -0.00000000000E+00 -0.18680981871E+04  0.18680981871E+04  0.00000000000E+00 0. -1.
          6    2    1    2  501    0 -0.71985861935E+02 -0.39415574450E+02 -0.17334767721E+04  0.17439417204E+04  0.17220758599E+03 0.  0.
         24    2    3    3    0    0 -0.11351582665E+03 -0.44152734153E+02 -0.11860141760E+04  0.11948656211E+04  0.78986833750E+02 0.  0.
         -6    2    1    2    0  502  0.71985861935E+02  0.39415574450E+02 -0.61088964129E+02  0.19768891765E+03  0.16915523875E+03 0.  0.
        -24    2    5    5    0    0  0.10094966914E+03  0.62090822847E+02 -0.26325348110E+02  0.14685912308E+03  0.82634569630E+02 0.  0.
          5    1    3    3  501    0  0.41529964719E+02  0.47371597034E+01 -0.54746259609E+03  0.54907609925E+03  0.47000000000E+01 0. -1.
        -13    1    4    4    0    0 -0.67999198368E+02 -0.36501486128E+02 -0.39281422589E+03  0.40032395073E+03  0.00000000000E+00 0.  1.
         14    1    4    4    0    0 -0.45516628286E+02 -0.76512480249E+01 -0.79319995016E+03  0.79454167038E+03  0.00000000000E+00 0. -1.
         -5    1    5    5    0  502 -0.28963807201E+02 -0.22675248398E+02 -0.34763616019E+02  0.50829794572E+02  0.47000000000E+01 0.  1.
         13    1    6    6    0    0  0.65613533111E+02  0.78287133872E+02 -0.44243147195E+01  0.10224277783E+03  0.00000000000E+00 0. -1.
        -14    1    6    6    0    0  0.35336136025E+02 -0.16196311025E+02 -0.21901033391E+02  0.44616345252E+02  0.00000000000E+00 0.  1.
</event>
<event>
12    1  0.8313893E-002  0.2022200E+03  0.7818608E-02  0.1148033E+00
         21   -1    0    0  501  502  0.00000000000E+00  0.00000000000E+00  0.64284279677E+03  0.64284279677E+03  0.00000000000E+00 0. -1.
         21   -1    0    0  502  503 -0.00000000000E+00 -0.00000000000E+00 -0.80382475089E+02  0.80382475089E+02  0.00000000000E+00 0. -1.
         -6    2    1    2    0  503 -0.92679084942E+02  0.50928456420E+02  0.11533156877E+03  0.23279665378E+03  0.17236528304E+03 0.  0.
        -24    2    3    3    0    0 -0.11861774958E+03  0.18655208080E+02  0.12439380856E+03  0.19015171185E+03  0.79155963814E+02 0.  0.
          6    2    1    2  501    0  0.92679084942E+02 -0.50928456420E+02  0.44712875292E+03  0.49042861808E+03  0.17150214952E+03 0.  0.
         24    2    5    5    0    0  0.23443317585E+01 -0.72235920859E+02  0.27046847250E+03  0.29081569177E+03  0.78721330088E+02 0.  0.
          5    1    5    5  501    0  0.90334753184E+02  0.21307464439E+02  0.17666028042E+03  0.19961292631E+03  0.47000000000E+01 0. -1.
        -11    1    6    6    0    0 -0.15668344171E+02 -0.13314081537E+02  0.18111681253E+03  0.18228017324E+03  0.00000000000E+00 0.  1.
         12    1    6    6    0    0  0.18012675929E+02 -0.58921839322E+02  0.89351659972E+02  0.10853551853E+03  0.00000000000E+00 0. -1.
         -5    1    3    3    0  503  0.25938664637E+02  0.32273248340E+02 -0.90622397982E+01  0.42644941924E+02  0.47000000000E+01 0.  1.
         13    1    4    4    0    0 -0.30009822509E+02  0.15358304696E+02 -0.41778602327E+01  0.33969419870E+02  0.00000000000E+00 0. -1.
        -14    1    4    4    0    0 -0.88607927070E+02  0.32969033836E+01  0.12857166880E+03  0.15618229198E+03  0.00000000000E+00 0.  1.
</event>
<event>
12    1  0.8313893E-002  0.2639335E+03  0.7818608E-02  0.1105064E+00
         21   -1    0    0  501  502  0.00000000000E+00  0.00000000000E+00  0.79991969069E+03  0.79991969069E+03  0.00000000000E+00 0. -1.
         21   -1    0    0  502  503 -0.00000000000E+00 -0.00000000000E+00 -0.10251006645E+03  0.10251006645E+03  0.00000000000E+00 0. -1.
         -6    2    1    2    0  503  0.14050605866E+03 -0.13916964252E+03  0.16941187370E+03  0.31213958208E+03  0.17210634454E+03 0.  0.
        -24    2    3    3    0    0  0.15172643636E+03 -0.10954369664E+03  0.18797825215E+03  0.27512074966E+03  0.73040198851E+02 0.  0.
          6    2    1    2  501    0 -0.14050605866E+03  0.13916964252E+03  0.52799775054E+03  0.59029017506E+03  0.17478765480E+03 0.  0.
         24    2    5    5    0    0 -0.37802980415E+02  0.82257938284E+02  0.40035453693E+03  0.41679163229E+03  0.72360733611E+02 0.  0.
          5    1    5    5  501    0 -0.10270307825E+03  0.56911704237E+02  0.12764321362E+03  0.17349854277E+03  0.47000000000E+01 0. -1.
        -13    1    6    6    0    0 -0.18883244147E+02 -0.44620027397E+01  0.14833243337E+03  0.14959611348E+03  0.00000000000E+00 0.  1.
         14    1    6    6    0    0 -0.18919736268E+02  0.86719941024E+02  0.25202210356E+03  0.26719551881E+03  0.00000000000E+00 0. -1.
         -5    1    3    3    0  503 -0.11220377701E+02 -0.29625945885E+02 -0.18566378448E+02  0.37018832424E+02  0.47000000000E+01 0.  1.
         11    1    4    4    0    0  0.36937459676E+02 -0.42667389914E+02  0.17691757869E+02  0.59142881109E+02  0.00000000000E+00 0. -1.
        -12    1    4    4    0    0  0.11478897669E+03 -0.66876306722E+02  0.17028649428E+03  0.21597786855E+03  0.00000000000E+00 0.  1.
</event>
<event>
12    1  0.8313893E-002  0.1741363E+03  0.7818608E-02  0.1173700E+00
         21   -1    0    0  501  502  0.00000000000E+00  0.00000000000E+00  0.28062006123E+03  0.28062006123E+03  0.00000000000E+00 0.  1.
         21   -1    0    0  502  503 -0.00000000000E+00 -0.00000000000E+00 -0.12527858898E+03  0.12527858898E+03  0.00000000000E+00 0.  1.
         -6    2    1    2    0  503  0.24222112282E+02 -0.82755474086E+01  0.18308740809E+01  0.17375869292E+03  0.17185323930E+03 0.  0.
        -24    2    3    3    0    0  0.81049697048E+02  0.63925877150E+01  0.61850918968E+01  0.11471991082E+03  0.80699962879E+02 0.  0.
          6    2    1    2  501    0 -0.24222112282E+02  0.82755474086E+01  0.15351059817E+03  0.23213995729E+03  0.17224476947E+03 0.  0.
         24    2    5    5    0    0 -0.67041394935E+02 -0.20766622575E+02  0.14681134252E+03  0.17975762601E+03  0.76376911222E+02 0.  0.
          5    1    5    5  501    0  0.42819282654E+02  0.29042169983E+02  0.66992556543E+01  0.52382331283E+02  0.47000000000E+01 0. -1.
        -11    1    6    6    0    0  0.16619514503E+02 -0.85162158561E+01  0.33811984864E+02  0.38626215389E+02  0.00000000000E+00 0.  1.
         12    1    6    6    0    0 -0.83660909439E+02 -0.12250406719E+02  0.11299935766E+03  0.14113141062E+03  0.00000000000E+00 0. -1.
         -5    1    3    3    0  503 -0.56827584766E+02 -0.14668135124E+02 -0.43542178158E+01  0.59038782094E+02  0.47000000000E+01 0.  1.
         11    1    4    4    0    0  0.44596457983E+02 -0.34943347624E+02 -0.94340862848E+01  0.57435908558E+02  0.00000000000E+00 0. -1.
        -12    1    4    4    0    0  0.36453239065E+02  0.41335935339E+02  0.15619178182E+02  0.57284002267E+02  0.00000000000E+00 0.  1.
</event>
<event>
12    1  0.8313893E-002  0.3919869E+03  0.7818608E-02  0.1046699E+00
         21   -1    0    0  501  502  0.00000000000E+00  0.00000000000E+00  0.20040886434E+03  0.20040886434E+03  0.00000000000E+00 0.  1.
         21   -1    0    0  502  503 -0.00000000000E+00 -0.00000000000E+00 -0.76460223940E+03  0.76460223940E+03  0.00000000000E+00 0. -1.
         -6    2    1    2    0  503 -0.18168151500E+03 -0.30338473714E+03 -0.27322073036E+03  0.47781097954E+03  0.16912508109E+03 0.  0.
        -24    2    3    3    0    0 -0.16488396177E+03 -0.15496310160E+03 -0.18150688443E+03  0.30246942935E+03  0.85689689507E+02 0.  0.
          6    2    1    2  501    0  0.18168151500E+03  0.30338473714E+03 -0.29097264470E+03  0.48720012420E+03  0.16627810869E+03 0.  0.
         24    2    5    5    0    0  0.17889685925E+03  0.27198376612E+03 -0.19874844462E+03  0.38962364973E+03  0.79538600095E+02 0.  0.
          5    1    5    5  501    0  0.27846557510E+01  0.31400971019E+02 -0.92224200086E+02  0.97576474470E+02  0.47000000000E+01 0. -1.
        -13    1    6    6    0    0  0.78511701904E+02  0.69880714974E+02 -0.93292061930E+02  0.14053757676E+03  0.00000000000E+00 0.  1.
         14    1    6    6    0    0  0.10038515735E+03  0.20210305115E+03 -0.10545638269E+03  0.24908607297E+03  0.00000000000E+00 0. -1.
         -5    1    3    3    0  503 -0.16797553231E+02 -0.14842163553E+03 -0.91713845926E+02  0.17534155019E+03  0.47000000000E+01 0.  1.
         13    1    4    4    0    0 -0.68959298858E+02 -0.12206397044E+03 -0.97244926961E+02  0.17062114054E+03  0.00000000000E+00 0. -1.
        -14    1    4    4    0    0 -0.95924662914E+02 -0.32899131164E+02 -0.84261957471E+02  0.13184828881E+03  0.00000000000E+00 0.  1.
</event>
<event>
12    1  0.8313893E-002  0.2928742E+03  0.7818608E-02  0.1089835E+00
         21   -1    0    0  501  502  0.00000000000E+00  0.00000000000E+00  0.43430899077E+03  0.43430899077E+03  0.00000000000E+00 0.  1.
         21   -1    0    0  502  503 -0.00000000000E+00 -0.00000000000E+00 -0.46229556770E+03  0.46229556770E+03  0.00000000000E+00 0.  1.
         -6    2    1    2    0  503 -0.25190537150E+02  0.22459286794E+03 -0.35638931444E+03  0.45657769307E+03  0.17427945050E+03 0.  0.
        -24    2    3    3    0    0 -0.70585066445E+02  0.20046769742E+03 -0.32374293397E+03  0.39549935566E+03  0.80253995020E+02 0.  0.
          6    2    1    2  501    0  0.25190537150E+02 -0.22459286794E+03  0.32840273752E+03  0.44002686540E+03  0.18627604456E+03 0.  0.
         24    2    5    5    0    0 -0.20105217047E+02 -0.12926067843E+03  0.28877711895E+03  0.32718976444E+03  0.80922029073E+02 0.  0.
          5    1    5    5  501    0  0.45295754197E+02 -0.95332189516E+02  0.39625618568E+02  0.11283710096E+03  0.47000000000E+01 0. -1.
        -11    1    6    6    0    0 -0.12107740652E+01 -0.34866435373E+02  0.17364124212E+03  0.17711130753E+03  0.00000000000E+00 0.  1.
         12    1    6    6    0    0 -0.18894442982E+02 -0.94394243053E+02  0.11513587683E+03  0.15007845691E+03  0.00000000000E+00 0. -1.
         -5    1    3    3    0  503  0.45394529294E+02  0.24125170519E+02 -0.32646380468E+02  0.61078337405E+02  0.47000000000E+01 0.  1.
         11    1    4    4    0    0 -0.38914293946E+02  0.16122324142E+03 -0.18805339137E+03  0.25074156786E+03  0.00000000000E+00 0. -1.
        -12    1    4    4    0    0 -0.31670772499E+02  0.39244456004E+02 -0.13568954260E+03  0.14475778780E+03  0.00000000000E+00 0.  1.
</event>
<event>
12    1  0.8313893E-002  0.1923994E+03  0.7818608E-02  0.1157796E+00
         21   -1    0    0  501  502  0.00000000000E+00  0.00000000000E+00  0.78237821870E+02  0.78237821870E+02  0.00000000000E+00 0.  1.
         21   -1    0    0  502  503 -0.00000000000E+00 -0.00000000000E+00 -0.55633885554E+03  0.55633885554E+03  0.00000000000E+00 0. -1.
         -6    2    1    2    0  503 -0.86872774197E+02  0.13953188981E+01 -0.36959343396E+03  0.41368884638E+03  0.16428733788E+03 0.  0.
        -24    2    3    3    0    0 -0.90446930478E+02  0.47620634238E+02 -0.20706103857E+03  0.24460772999E+03  0.80686404299E+02 0.  0.
          6    2    1    2  501    0  0.86872774197E+02 -0.13953188981E+01 -0.10850759971E+03  0.22088783102E+03  0.17166452425E+03 0.  0.
         24    2    5    5    0    0  0.11263267102E+03 -0.41015321117E+02 -0.87958510216E+02  0.16914160469E+03  0.80646188823E+02 0.  0.
          5    1    5    5  501    0 -0.25759896824E+02  0.39620002219E+02 -0.20549089496E+02  0.51746226329E+02  0.47000000000E+01 0. -1.
        -11    1    6    6    0    0  0.92268247267E+01  0.20822189069E+02 -0.22537066598E+02  0.32040868012E+02  0.00000000000E+00 0.  1.
         12    1    6    6    0    0  0.10340584629E+03 -0.61837510186E+02 -0.65421443618E+02  0.13710073668E+03  0.00000000000E+00 0. -1.
         -5    1    3    3    0  503  0.35741562802E+01 -0.46225315340E+02 -0.16253239539E+03  0.16908111640E+03  0.47000000000E+01 0.  1.
         11    1    4    4    0    0 -0.28409094801E+02  0.50223111183E+02 -0.14825531174E+03  0.15908826174E+03  0.00000000000E+00 0. -1.
        -12    1    4    4    0    0 -0.62037835677E+02 -0.26024769441E+01 -0.58805726830E+02  0.85519468250E+02  0.00000000000E+00 0.  1.
</event>
<event>
12    1  0.8313893E-002  0.1914684E+03  0.7818608E-02  0.1157280E+00
         21   -1    0    0  501  502  0.00000000000E+00  0.00000000000E+00  0.55707149376E+03  0.55707149376E+03  0.00000000000E+00 0.  1.
         21   -1    0    0  502  503 -0.00000000000E+00 -0.00000000000E+00 -0.65717363682E+02  0.65717363682E+02  0.00000000000E+00 0.  1.
         -6    2    1    2    0  503 -0.25516513341E+02 -0.78034915017E+02  0.25923996548E+03  0.32228174947E+03  0.17297290517E+03 0.  0.
        -24    2    3    3    0    0  0.44907355542E+02 -0.78903294581E+02  0.15234828140E+03  0.19418726280E+03  0.79096736393E+02 0.  0.
          6    2    1    2  501    0  0.25516513341E+02  0.78034915017E+02  0.23211416460E+03  0.30050710797E+03  0.17229914718E+03 0.  0.
         24    2    5    5    0    0 -0.80543030607E+01  0.11046567755E+03  0.20437229762E+03  0.24600522492E+03  0.80517059931E+02 0.  0.
          5    1    5    5  501    0  0.33570816402E+02 -0.32430762535E+02  0.27741866979E+02  0.54501883050E+02  0.47000000000E+01 0. -1.
        -11    1    6    6    0    0  0.97646288051E+01  0.19896512782E+02  0.45376964425E+00  0.22168110056E+02  0.00000000000E+00 0.  1.
         12    1    6    6    0    0 -0.17818931866E+02  0.90569164770E+02  0.20391852797E+03  0.22383711486E+03  0.00000000000E+00 0. -1.
         -5    1    3    3    0  503 -0.70423868883E+02  0.86837956467E+00  0.10689168408E+03  0.12809448667E+03  0.47000000000E+01 0.  1.
         11    1    4    4    0    0  0.49280003998E+02 -0.39769831961E+02  0.13876792527E+03  0.15253424341E+03  0.00000000000E+00 0. -1.
        -12    1    4    4    0    0 -0.43726484561E+01 -0.39133462621E+02  0.13580356128E+02  0.41653019384E+02  0.00000000000E+00 0.  1.
</event>
<event>
12    1  0.8313893E-002  0.1825821E+03  0.7818608E-02  0.1165658E+00
         21   -1    0    0  501  502  0.00000000000E+00  0.00000000000E+00  0.24358914767E+03  0.24358914767E+03  0.00000000000E+00 0. -1.
         21   -1    0    0  502  503 -0.00000000000E+00 -0.00000000000E+00 -0.86700695174E+03  0.86700695174E+03  0.00000000000E+00 0. -1.
         -6    2    1    2    0  503 -0.20695045251E+02 -0.56047186621E+02 -0.82184742188E+03  0.84188443566E+03  0.17253013106E+03 0.  0.
        -24    2    3    3    0    0 -0.38284278703E+01  0.11687495270E+02 -0.66795421862E+03  0.67283509989E+03  0.79956107147E+02 0.  0.
          6    2    1    2  501    0  0.20695045251E+02  0.56047186621E+02  0.19842961782E+03  0.26871166375E+03  0.17106160581E+03 0.  0.
         24    2    5    5    0    0  0.59868300499E+02  0.37144960137E+02  0.18027732508E+03  0.22134676299E+03  0.10738023132E+03 0.  0.
          5    1    5    5  501    0 -0.39173255247E+02  0.18902226484E+02  0.18152292733E+02  0.47364900762E+02  0.47000000000E+01 0. -1.
        -13    1    6    6    0    0 -0.10232356708E+02 -0.58626338806E+01 -0.90913122850E+01  0.14890384780E+02  0.00000000000E+00 0.  1.
         14    1    6    6    0    0  0.70100657207E+02  0.43007594017E+02  0.18936863737E+03  0.20645637821E+03  0.00000000000E+00 0. -1.
         -5    1    3    3    0  503 -0.16866617381E+02 -0.67734681891E+02 -0.15389320326E+03  0.16904933577E+03  0.47000000000E+01 0.  1.
         13    1    4    4    0    0  0.22498863098E+02  0.81371287021E+01 -0.58988039341E+03  0.59036538706E+03  0.00000000000E+00 0. -1.
        -14    1    4    4    0    0 -0.26327290968E+02  0.35503665676E+01 -0.78073825207E+02  0.82469712834E+02  0.00000000000E+00 0.  1.
</event>
<event>
12    1  0.8313893E-002  0.2098104E+03  0.7818608E-02  0.1141785E+00
         21   -1    0    0  501  502  0.00000000000E+00  0.00000000000E+00  0.22158223525E+03  0.22158223525E+03  0.00000000000E+00 0. -1.
         21   -1    0    0  502  503 -0.00000000000E+00 -0.00000000000E+00 -0.32937139695E+03  0.32937139695E+03  0.00000000000E+00 0.  1.
         -6    2    1    2    0  503 -0.21004258571E+02 -0.11824489265E+03 -0.22762332010E+03  0.30933275724E+03  0.17161394270E+03 0.  0.
        -24    2    3    3    0    0 -0.66329995916E+02 -0.12604976963E+03 -0.18865663998E+03  0.24886929116E+03  0.77822769762E+02 0.  0.
          6    2    1    2  501    0  0.21004258571E+02  0.11824489265E+03  0.11983415840E+03  0.24162087496E+03  0.17203891472E+03 0.  0.
         24    2    5    5    0    0 -0.25496968992E+02  0.12187478215E+03  0.12720599174E+03  0.19416590484E+03  0.77559501764E+02 0.  0.
          5    1    5    5  501    0  0.46501227563E+02 -0.36298894926E+01 -0.73718333414E+01  0.47454970124E+02  0.47000000000E+01 0. -1.
        -13    1    6    6    0    0  0.10302527615E+02 -0.59160257932E+01  0.26771645827E+01  0.12178203753E+02  0.00000000000E+00 0.  1.
         14    1    6    6    0    0 -0.35799496607E+02  0.12779080794E+03  0.12452882716E+03  0.18198770108E+03  0.00000000000E+00 0. -1.
         -5    1    3    3    0  503  0.45325737345E+02  0.78048769739E+01 -0.38966680122E+02  0.60463466078E+02  0.47000000000E+01 0.  1.
         13    1    4    4    0    0  0.13382320218E+02 -0.88391210744E+01 -0.48515064229E+01  0.16755705606E+02  0.00000000000E+00 0. -1.
        -14    1    4    4    0    0 -0.79712316134E+02 -0.11721064855E+03 -0.18380513356E+03  0.23211358555E+03  0.00000000000E+00 0.  1.
</event>
<event>
12    1  0.8313893E-002  0.2588138E+03  0.7818608E-02  0.1107865E+00
         21   -1    0    0  501  502  0.00000000000E+00  0.00000000000E+00  0.95102965809E+02  0.95102965809E+02  0.00000000000E+00 0. -1.
         21   -1    0    0  502  503 -0.00000000000E+00 -0.00000000000E+00 -0.71277713501E+03  0.71277713501E+03  0.00000000000E+00 0.  1.
         -6    2    1    2    0  503  0.54347111783E+02 -0.18488275937E+03 -0.35310639224E+03  0.43777106588E+03  0.17269666647E+03 0.  0.
        -24    2    3    3    0    0 -0.55626047765E+01 -0.11973418644E+03 -0.11788375982E+03  0.18640422738E+03  0.80515446854E+02 0.  0.
          6    2    1    2  501    0 -0.54347111783E+02  0.18488275937E+03 -0.26456777697E+03  0.37010903494E+03  0.17276963237E+03 0.  0.
         24    2    5    5    0    0 -0.98018150257E+02  0.12137058317E+03 -0.21890257315E+03  0.28039639946E+03  0.79783632761E+02 0.  0.
          5    1    5    5  501    0  0.43671038474E+02  0.63512176196E+02 -0.45665203810E+02  0.89712635484E+02  0.47000000000E+01 0. -1.
        -13    1    6    6    0    0  0.10589988206E+02  0.13569072628E+02 -0.48015761212E+02  0.51007655376E+02  0.00000000000E+00 0.  1.
         14    1    6    6    0    0 -0.10860813846E+03  0.10780151055E+03 -0.17088681194E+03  0.22938874408E+03  0.00000000000E+00 0. -1.
         -5    1    3    3    0  503  0.59909716560E+02 -0.65148572929E+02 -0.23522263242E+03  0.25136683850E+03  0.47000000000E+01 0.  1.
         11    1    4    4    0    0 -0.25649782061E+02 -0.40872208527E+02 -0.68453730662E+01  0.48737130425E+02  0.00000000000E+00 0. -1.
        -12    1    4    4    0    0  0.20087177284E+02 -0.78861977914E+02 -0.11103838675E+03  0.13766709696E+03  0.00000000000E+00 0.  1.
</event>
<event>
12    1  0.8313893E-002  0.2704879E+03  0.7818608E-02  0.1101119E+00
         21   -1    0    0  503  502  0.00000000000E+00  0.00000000000E+00  0.21455952197E+03  0.21455952197E+03  0.00000000000E+00 0.  1.
         21   -1    0    0  501  503 -0.00000000000E+00 -0.00000000000E+00 -0.34029512144E+03  0.34029512144E+03  0.00000000000E+00 0. -1.
          6    2    1    2  501    0  0.31660237190E+02  0.20628511016E+03 -0.71559022006E+02  0.27899453360E+03  0.17076691381E+03 0.  0.
         24    2    3    3    0    0  0.38885861746E+02  0.21731357642E+03 -0.93282992775E+02  0.25315159212E+03  0.81527364183E+02 0.  0.
         -6    2    1    2    0  502 -0.31660237190E+02 -0.20628511016E+03 -0.54176577467E+02  0.27586010981E+03  0.17206911793E+03 0.  0.
        -24    2    5    5    0    0  0.47384289708E+02 -0.11153346015E+03 -0.45153509363E+02  0.15204808224E+03  0.79967470020E+02 0.  0.
          5    1    3    3  501    0 -0.72256245563E+01 -0.11028466259E+02  0.21723970769E+02  0.25842941477E+02  0.47000000000E+01 0. -1.
        -11    1    4    4    0    0  0.13929939649E+02  0.43218063580E+02  0.13532144401E+02  0.47381042310E+02  0.00000000000E+00 0.  1.
         12    1    4    4    0    0  0.24955922097E+02  0.17409551284E+03 -0.10681513718E+03  0.20577054981E+03  0.00000000000E+00 0. -1.
         -5    1    5    5    0  502 -0.79044526898E+02 -0.94751650013E+02 -0.90230681036E+01  0.12381202757E+03  0.47000000000E+01 0.  1.
         11    1    6    6    0    0  0.19750978462E+02 -0.95356681192E+02 -0.62420512028E+02  0.11566900242E+03  0.00000000000E+00 0. -1.
        -12    1    6    6    0    0  0.27633311246E+02 -0.16176778960E+02  0.17267002665E+02  0.36379079826E+02  0.00000000000E+00 0.  1.
</event>
<event>
12    1  0.8313893E-002  0.3311001E+03  0.7818608E-02  0.1070693E+00
         21   -1    0    0  501  502  0.00000000000E+00  0.00000000000E+00  0.77185102672E+02  0.77185102672E+02  0.00000000000E+00 0.  1.
         21   -1    0    0  502  503 -0.00000000000E+00 -0.00000000000E+00 -0.16704968383E+04  0.16704968383E+04  0.00000000000E+00 0. -1.
         -6    2    1    2    0  503  0.22816955542E+03 -0.16650984262E+03 -0.11355312594E+04  0.11827127286E+04  0.17202117236E+03 0.  0.
        -24    2    3    3    0    0  0.10526971412E+03 -0.13009127878E+03 -0.84575486013E+03  0.86581663471E+03  0.79572030134E+02 0.  0.
          6    2    1    2  501    0 -0.22816955542E+03  0.16650984262E+03 -0.45778047625E+03  0.56496921234E+03  0.17274366195E+03 0.  0.
         24    2    5    5    0    0 -0.34751793992E+02  0.31477659040E+02 -0.15090833287E+03  0.17788172426E+03  0.81670390560E+02 0.  0.
          5    1    5    5  501    0 -0.19341776143E+03  0.13503218358E+03 -0.30687214338E+03  0.38708748807E+03  0.47000000000E+01 0. -1.
        -13    1    6    6    0    0 -0.45963321278E+02  0.43563352771E+02 -0.66309065586E+02  0.91691247055E+02  0.00000000000E+00 0.  1.
         14    1    6    6    0    0  0.11211527287E+02 -0.12085693731E+02 -0.84599267281E+02  0.86190477209E+02  0.00000000000E+00 0. -1.
         -5    1    3    3    0  503  0.12289984130E+03 -0.36418563840E+02 -0.28977639925E+03  0.31689609393E+03  0.47000000000E+01 0.  1.
         13    1    4    4    0    0  0.95071136820E+02 -0.61778231109E+02 -0.59591249678E+03  0.60660264978E+03  0.00000000000E+00 0. -1.
        -14    1    4    4    0    0  0.10198577298E+02 -0.68313047671E+02 -0.24984236335E+03  0.25921398493E+03  0.00000000000E+00 0.  1.
</event>
<event>
12    1  0.8313893E-002  0.1857262E+03  0.7818608E-02  0.1162552E+00
         21   -1    0    0  501  502  0.00000000000E+00  0.00000000000E+00  0.10088484314E+04  0.10088484314E+04  0.00000000000E+00 0.  1.
         21   -1    0    0  502  503 -0.00000000000E+00 -0.00000000000E+00 -0.41994023918E+02  0.41994023918E+02  0.00000000000E+00 0.  1.
         -6    2    1    2    0  503  0.37039891242E+02 -0.55976838952E+02  0.25572332380E+03  0.31605162215E+03  0.17317288900E+03 0.  0.
        -24    2    3    3    0    0  0.63139216449E+02 -0.78434234338E+02  0.11956986975E+03  0.17553342961E+03  0.79853249083E+02 0.  0.
          6    2    1    2  501    0 -0.37039891242E+02  0.55976838952E+02  0.71113108363E+03  0.73479083312E+03  0.17235077687E+03 0.  0.
         24    2    5    5    0    0 -0.77023268801E+02  0.87165098079E+01  0.56915027332E+03  0.57983003263E+03  0.79134516109E+02 0.  0.
          5    1    5    5  501    0  0.39983377559E+02  0.47260329144E+02  0.14198081032E+03  0.15496080050E+03  0.47000000000E+01 0. -1.
        -13    1    6    6    0    0 -0.38713215957E+02  0.42980606667E+02  0.34886913222E+03  0.35363217763E+03  0.00000000000E+00 0.  1.
         14    1    6    6    0    0 -0.38310052844E+02 -0.34264096859E+02  0.22028114109E+03  0.22619785499E+03  0.00000000000E+00 0. -1.
         -5    1    3    3    0  503 -0.26099325207E+02  0.22457395386E+02  0.13615345406E+03  0.14051819254E+03  0.47000000000E+01 0.  1.
         13    1    4    4    0    0  0.26288395435E+02 -0.27746605586E+02  0.10422775881E+03  0.11101522221E+03  0.00000000000E+00 0. -1.
        -14    1    4    4    0    0  0.36850821014E+02 -0.50687628752E+02  0.15342110939E+02  0.64518207399E+02  0.00000000000E+00 0.  1.
</event>
<event>
12    1  0.8313893E-002  0.1772266E+03  0.7818608E-02  0.1170887E+00
         21   -1    0    0  503  502  0.00000000000E+00  0.00000000000E+00  0.24289764799E+03  0.24289764799E+03  0.00000000000E+00 0.  1.
         21   -1    0    0  501  503 -0.00000000000E+00 -0.00000000000E+00 -0.12823101394E+03  0.12823101394E+03  0.00000000000E+00 0.  1.
          6    2    1    2  501    0 -0.34680439072E+02  0.11791827345E+02  0.58972882843E+02  0.18535711581E+03  0.17186529442E+03 0.  0.
         24    2    3    3    0    0  0.63705394432E+01  0.43550773833E+02 -0.14249318654E+02  0.95482790720E+02  0.83526442324E+02 0.  0.
         -6    2    1    2    0  502  0.34680439072E+02 -0.11791827345E+02  0.55693751205E+02  0.18577154611E+03  0.17339980789E+03 0.  0.
        -24    2    5    5    0    0  0.59277284868E+02 -0.53343088743E+02  0.72004632639E+02  0.13458905887E+03  0.81057177523E+02 0.  0.
          5    1    3    3  501    0 -0.41050978515E+02 -0.31758946489E+02  0.73222201497E+02  0.89874325094E+02  0.47000000000E+01 0. -1.
        -13    1    4    4    0    0  0.41700986739E+01  0.60734459035E+02  0.13886552766E+02  0.62441176999E+02  0.00000000000E+00 0.  1.
         14    1    4    4    0    0  0.22004407693E+01 -0.17183685202E+02 -0.28135871420E+02  0.33041613721E+02  0.00000000000E+00 0. -1.
         -5    1    5    5    0  502 -0.24596845797E+02  0.41551261398E+02 -0.16310881434E+02  0.51182487240E+02  0.47000000000E+01 0.  1.
         13    1    6    6    0    0  0.17376475214E+02  0.20727121651E+02  0.27427238730E+02  0.38520239967E+02  0.00000000000E+00 0. -1.
        -14    1    6    6    0    0  0.41900809654E+02 -0.74070210395E+02  0.44577393909E+02  0.96068818902E+02  0.00000000000E+00 0.  1.
</event>
<event>
12    1  0.8313893E-002  0.1866334E+03  0.7818608E-02  0.1161571E+00
         21   -1    0    0  503  502  0.00000000000E+00  0.00000000000E+00  0.20661842639E+04  0.20661842639E+04  0.00000000000E+00 0. -1.
         21   -1    0    0  501  503 -0.00000000000E+00 -0.00000000000E+00 -0.86441251048E+02  0.86441251048E+02  0.00000000000E+00 0. -1.
          6    2    1    2  501    0  0.16713662769E+02  0.70361585677E+02  0.24011472256E+02  0.18800904242E+03  0.17187422718E+03 0.  0.
         24    2    3    3    0    0 -0.50523379482E+02  0.65094495455E+02  0.22315768543E+02  0.12038118203E+03  0.84874791589E+02 0.  0.
         -6    2    1    2    0  502 -0.16713662769E+02 -0.70361585677E+02  0.19557315406E+04  0.19646164725E+04  0.17205210256E+03 0.  0.
        -24    2    5    5    0    0 -0.37282767059E+02 -0.10526215182E+03  0.16965246447E+04  0.17022208887E+04  0.83005772724E+02 0.  0.
          5    1    3    3  501    0  0.67237042251E+02  0.52670902217E+01  0.16957037133E+01  0.67627860392E+02  0.47000000000E+01 0. -1.
        -11    1    4    4    0    0 -0.40081501932E+02  0.35435474015E+02  0.53808514269E+02  0.75878559710E+02  0.00000000000E+00 0.  1.
         12    1    4    4    0    0 -0.10441877550E+02  0.29659021440E+02 -0.31492745726E+02  0.44502622316E+02  0.00000000000E+00 0. -1.
         -5    1    5    5    0  502  0.20569104290E+02  0.34900566139E+02  0.25920689586E+03  0.26239558386E+03  0.47000000000E+01 0.  1.
         11    1    6    6    0    0  0.10317662919E+02 -0.40752587249E+02  0.25275451194E+03  0.25622660057E+03  0.00000000000E+00 0. -1.
        -12    1    6    6    0    0 -0.47600429978E+02 -0.64509564566E+02  0.14437701328E+04  0.14459942881E+04  0.00000000000E+00 0.  1.
</event>
<event>
12    1  0.8313893E-002  0.1998189E+03  0.7818608E-02  0.1149993E+00
         21   -1    0    0  503  502  0.00000000000E+00  0.00000000000E+00  0.57951833648E+02  0.57951833648E+02  0.00000000000E+00 0.  1.
         21   -1    0    0  501  503 -0.00000000000E+00 -0.00000000000E+00 -0.79409817529E+03  0.79409817529E+03  0.00000000000E+00 0.  1.
          6    2    1    2  501    0  0.78101192343E+02  0.64419827364E+02 -0.52466097951E+03  0.56142385732E+03  0.17227273072E+03 0.  0.
         24    2    3    3    0    0  0.65616715820E+02  0.45977469425E+02 -0.16640020843E+03  0.20244077581E+03  0.82908125382E+02 0.  0.
         -6    2    1    2    0  502 -0.78101192343E+02 -0.64419827364E+02 -0.21148536213E+03  0.29062615161E+03  0.17172009551E+03 0.  0.
        -24    2    5    5    0    0 -0.11972643120E+02  0.11298162159E+02 -0.37291122233E+02  0.89449805653E+02  0.79621902028E+02 0.  0.
          5    1    3    3  501    0  0.12484476523E+02  0.18442357939E+02 -0.35826077108E+03  0.35898308151E+03  0.47000000000E+01 0. -1.
        -11    1    4    4    0    0  0.46808325852E+01  0.18668076429E+02  0.37933004930E+01  0.19616227973E+02  0.00000000000E+00 0.  1.
         12    1    4    4    0    0  0.60935883235E+02  0.27309392996E+02 -0.17019350892E+03  0.18282454783E+03  0.00000000000E+00 0. -1.
         -5    1    5    5    0  502 -0.66128549223E+02 -0.75717989522E+02 -0.17419423990E+03  0.20117634596E+03  0.47000000000E+01 0.  1.
         11    1    6    6    0    0 -0.28311837520E+02  0.38905413043E+02 -0.15054617573E+02  0.50416592686E+02  0.00000000000E+00 0. -1.
        -12    1    6    6    0    0  0.16339194400E+02 -0.27607250884E+02 -0.22236504660E+02  0.39033212967E+02  0.00000000000E+00 0.  1.
</event>
<event>
12    1  0.8313893E-002  0.3086377E+03  0.7818608E-02  0.1082793E+00
         21   -1    0    0  503  502  0.00000000000E+00  0.00000000000E+00  0.78815231244E+03  0.78815231244E+03  0.00000000000E+00 0.  1.
         21   -1    0    0  501  503 -0.00000000000E+00 -0.00000000000E+00 -0.16701811056E+03  0.16701811056E+03  0.00000000000E+00 0.  1.
          6    2    1    2  501    0  0.22233855958E+03 -0.91790789904E+02  0.49889931662E+02  0.31264394157E+03  0.19338367235E+03 0.  0.
         24    2    3    3    0    0  0.23638306995E+03 -0.10160331762E+03  0.10483000672E+02  0.26941744296E+03  0.79219160273E+02 0.  0.
         -6    2    1    2    0  502 -0.22233855958E+03  0.91790789904E+02  0.57124427022E+03  0.64252648143E+03  0.16929346971E+03 0.  0.
        -24    2    5    5    0    0 -0.16266347717E+03  0.10148985716E+03  0.30192182864E+03  0.36646153453E+03  0.79860301575E+02 0.  0.
          5    1    3    3  501    0 -0.14044510378E+02  0.98125277200E+01  0.39406930990E+02  0.43226498610E+02  0.47000000000E+01 0. -1.
        -11    1    4    4    0    0  0.79409593630E+02 -0.58733727081E+02  0.35146110015E+02  0.10483693675E+03  0.00000000000E+00 0.  1.
         12    1    4    4    0    0  0.15697347632E+03 -0.42869590543E+02 -0.24663109342E+02  0.16458050621E+03  0.00000000000E+00 0. -1.
         -5    1    5    5    0  502 -0.59675082403E+02 -0.96990672561E+01  0.26932244159E+03  0.27606494690E+03  0.47000000000E+01 0.  1.
         11    1    6    6    0    0  0.29781451297E+01  0.21257244792E+02  0.17550935427E+02  0.27726794602E+02  0.00000000000E+00 0. -1.
        -12    1    6    6    0    0 -0.16564162230E+03  0.80232612368E+02  0.28437089321E+03  0.33873473992E+03  0.00000000000E+00 0.  1.
</event>
<event>
12    1  0.8313893E-002  0.1725330E+03  0.7818608E-02  0.1175508E+00
         21   -1    0    0  501  502  0.00000000000E+00  0.00000000000E+00  0.16844000879E+03  0.16844000879E+03  0.00000000000E+00 0.  1.
         21   -1    0    0  502  503 -0.00000000000E+00 -0.00000000000E+00 -0.23060592986E+03  0.23060592986E+03  0.00000000000E+00 0.  1.
         -6    2    1    2    0  503  0.63770212043E+01 -0.13973774617E+01 -0.12858118266E+03  0.21517612105E+03  0.17240946457E+03 0.  0.
        -24    2    3    3    0    0 -0.29380316335E+02 -0.44170026631E+02 -0.12646504834E+03  0.15918813368E+03  0.80828579176E+02 0.  0.
          6    2    1    2  501    0 -0.63770212043E+01  0.13973774617E+01  0.66415261585E+02  0.18386981760E+03  0.17133156098E+03 0.  0.
         24    2    5    5    0    0  0.14524372435E+02  0.17984740268E+02 -0.25253428117E+02  0.88280866706E+02  0.81371785759E+02 0.  0.
          5    1    5    5  501    0 -0.20901393639E+02 -0.16587362806E+02  0.91668689702E+02  0.95588950892E+02  0.47000000000E+01 0. -1.
        -11    1    6    6    0    0  0.25671279394E+02 -0.12309562990E+02 -0.42903737613E+02  0.51490490655E+02  0.00000000000E+00 0.  1.
         12    1    6    6    0    0 -0.11146906959E+02  0.30294303258E+02  0.17650309496E+02  0.36790376051E+02  0.00000000000E+00 0. -1.
         -5    1    3    3    0  503  0.35757337539E+02  0.42772649170E+02 -0.21161343109E+01  0.55987987366E+02  0.47000000000E+01 0.  1.
         11    1    4    4    0    0  0.26189072355E+02 -0.23874246595E+02 -0.32115916947E+02  0.47825508703E+02  0.00000000000E+00 0. -1.
        -12    1    4    4    0    0 -0.55569388690E+02 -0.20295780036E+02 -0.94349131397E+02  0.11136262498E+03  0.00000000000E+00 0.  1.
</event>
<event>
12    1  0.8313893E-002  0.1846690E+03  0.7818608E-02  0.1164583E+00
         21   -1    0    0  503  502  0.00000000000E+00  0.00000000000E+00  0.11074105691E+03  0.11074105691E+03  0.00000000000E+00 0. -1.
         21   -1    0    0  501  503 -0.00000000000E+00 -0.00000000000E+00 -0.30136709574E+03  0.30136709574E+03  0.00000000000E+00 0. -1.
          6    2    1    2  501    0  0.11733448083E+02 -0.69213649522E+02 -0.80088732784E+02  0.20128792687E+03  0.17080521450E+03 0.  0.
         24    2    3    3    0    0  0.33442108812E+02 -0.10144317934E+03 -0.89030059309E+02  0.16113763593E+03  0.81424154739E+02 0.  0.
         -6    2    1    2    0  502 -0.11733448083E+02  0.69213649522E+02 -0.11053730605E+03  0.21082022577E+03  0.16522248177E+03 0.  0.
        -24    2    5    5    0    0 -0.43037978651E+01  0.10445709984E+03 -0.50760766247E+02  0.14087292273E+03  0.79616057332E+02 0.  0.
          5    1    3    3  501    0 -0.21708660728E+02  0.32229529820E+02  0.89413265247E+01  0.40150290946E+02  0.47000000000E+01 0. -1.
        -13    1    4    4    0    0  0.23333325377E+02  0.77239176904E+01 -0.18709933153E+02  0.30889554484E+02  0.00000000000E+00 0.  1.
         14    1    4    4    0    0  0.10108783434E+02 -0.10916709703E+03 -0.70320126156E+02  0.13024808144E+03  0.00000000000E+00 0. -1.
         -5    1    5    5    0  502 -0.74296502182E+01 -0.35243450317E+02 -0.59776539803E+02  0.69947303046E+02  0.47000000000E+01 0.  1.
         13    1    6    6    0    0 -0.15164160573E+02  0.12827995012E+02 -0.44095046542E+02  0.48361992840E+02  0.00000000000E+00 0. -1.
        -14    1    6    6    0    0  0.10860362708E+02  0.91629104827E+02 -0.66657197051E+01  0.92510929888E+02  0.00000000000E+00 0.  1.
</event>
<event>
12    1  0.8313893E-002  0.1964684E+03  0.7818608E-02  0.1153031E+00
         21   -1    0    0  503  502  0.00000000000E+00  0.00000000000E+00  0.15936225876E+03  0.15936225876E+03  0.00000000000E+00 0.  1.
         21   -1    0    0  501  503 -0.00000000000E+00 -0.00000000000E+00 -0.27549830561E+03  0.27549830561E+03  0.00000000000E+00 0.  1.
          6    2    1    2  501    0 -0.90295484778E+02 -0.17914567581E+02 -0.13558166399E+03  0.23870947373E+03  0.17356733258E+03 0.  0.
         24    2    3    3    0    0  0.20116810246E+02 -0.10326647882E+02 -0.26737126344E+02  0.83410810531E+02  0.75704449522E+02 0.  0.
         -6    2    1    2    0  502  0.90295484778E+02  0.17914567581E+02  0.19445617140E+02  0.19615109064E+03  0.17211307919E+03 0.  0.
        -24    2    5    5    0    0 -0.42249476178E+01 -0.30760152987E+02  0.17829358775E+02  0.89717811755E+02  0.82263980681E+02 0.  0.
          5    1    3    3  501    0 -0.11041229502E+03 -0.75879196990E+01 -0.10884453764E+03  0.15529866320E+03  0.47000000000E+01 0. -1.
        -13    1    4    4    0    0 -0.15289949580E+02 -0.32281677720E+02 -0.20784113797E+02  0.41326367623E+02  0.00000000000E+00 0.  1.
         14    1    4    4    0    0  0.35406759826E+02  0.21955029838E+02 -0.59530125467E+01  0.42084442909E+02  0.00000000000E+00 0. -1.
         -5    1    5    5    0  502  0.94520432396E+02  0.48674720568E+02  0.16162583641E+01  0.10643327888E+03  0.47000000000E+01 0.  1.
         13    1    6    6    0    0 -0.48489547205E+00 -0.34759431272E+02  0.47881994704E+02  0.59170419999E+02  0.00000000000E+00 0. -1.
        -14    1    6    6    0    0 -0.37400521457E+01  0.39992782846E+01 -0.30052635929E+02  0.30547391756E+02  0.00000000000E+00 0.  1.
</event>
<event>
12    1  0.8313893E-002  0.2221756E+03  0.7818608E-02  0.1133703E+00
         21   -1    0    0  501  502  0.00000000000E+00  0.00000000000E+00  0.23209335827E+03  0.23209335827E+03  0.00000000000E+00 0.  1.
         21   -1    0    0  502  503 -0.00000000000E+00 -0.00000000000E+00 -0.24422127074E+03  0.24422127074E+03  0.00000000000E+00 0. -1.
         -6    2    1    2    0  503  0.11339085604E+03 -0.82011961035E+02 -0.10105263381E+03  0.24407707507E+03  0.17256458440E+03 0.  0.
        -24    2    3    3    0    0  0.93915728486E+02 -0.12456259239E+03 -0.83361231722E+02  0.19382856733E+03  0.79274302771E+02 0.  0.
          6    2    1    2  501    0 -0.11339085604E+03  0.82011961035E+02  0.88924721332E+02  0.23223755394E+03  0.16261373685E+03 0.  0.
         24    2    5    5    0    0 -0.43791662931E+02 -0.12605698567E+02  0.63834548713E+02  0.11203707162E+03  0.80005265003E+02 0.  0.
          5    1    5    5  501    0 -0.69599193104E+02  0.94617659601E+02  0.25090172619E+02  0.12020048233E+03  0.47000000000E+01 0. -1.
        -13    1    6    6    0    0 -0.50695206169E+02  0.14764346598E+02  0.65051517167E+02  0.83783588756E+02  0.00000000000E+00 0.  1.
         14    1    6    6    0    0  0.69035432377E+01 -0.27370045164E+02 -0.12169684542E+01  0.28253482861E+02  0.00000000000E+00 0. -1.
         -5    1    3    3    0  503  0.19475127549E+02  0.42550631357E+02 -0.17691402088E+02  0.50248507736E+02  0.47000000000E+01 0.  1.
         13    1    4    4    0    0  0.80571038343E+02 -0.84822129801E+02 -0.94572433192E+02  0.15043414188E+03  0.00000000000E+00 0. -1.
        -14    1    4    4    0    0  0.13344690143E+02 -0.39740462590E+02  0.11211201470E+02  0.43394425452E+02  0.00000000000E+00 0.  1.
</event>
<event>
12    1  0.8313893E-002  0.1825023E+03  0.7818608E-02  0.1167250E+00
         21   -1    0    0  501  502  0.00000000000E+00  0.00000000000E+00  0.22460406211E+03  0.22460406211E+03  0.00000000000E+00 0. -1.
         21   -1    0    0  502  503 -0.00000000000E+00 -0.00000000000E+00 -0.15724835737E+03  0.15724835737E+03  0.00000000000E+00 0. -1.
         -6    2    1    2    0  503 -0.31513514406E+02  0.88034174594E+01  0.92112436803E+02  0.19767863584E+03  0.17181833518E+03 0.  0.
        -24    2    3    3    0    0 -0.67514806628E+02 -0.23034331339E+02  0.10313222544E+03  0.14814823071E+03  0.78884807190E+02 0.  0.
          6    2    1    2  501    0  0.31513514406E+02 -0.88034174594E+01 -0.24756732064E+02  0.18417378363E+03  0.17954521727E+03 0.  0.
         24    2    5    5    0    0  0.39414937377E+02  0.55382230945E+02  0.19779212511E+02  0.10551140187E+03  0.78234965861E+02 0.  0.
          5    1    5    5  501    0 -0.79014229710E+01 -0.64185648405E+02 -0.44535944574E+02  0.78662381767E+02  0.47000000000E+01 0. -1.
        -13    1    6    6    0    0  0.39381528630E+01  0.65481694262E+02  0.50537325353E+01  0.65794388392E+02  0.00000000000E+00 0.  1.
         14    1    6    6    0    0  0.35476784514E+02 -0.10099463317E+02  0.14725479976E+02  0.39717013474E+02  0.00000000000E+00 0. -1.
         -5    1    3    3    0  503  0.36001292221E+02  0.31837748799E+02 -0.11019788637E+02  0.49530405124E+02  0.47000000000E+01 0.  1.
         13    1    4    4    0    0 -0.60476644395E+01  0.23780187601E+02  0.84724483064E+01  0.25958696959E+02  0.00000000000E+00 0. -1.
        -14    1    4    4    0    0 -0.61467142188E+02 -0.46814518940E+02  0.94659777134E+02  0.12218953376E+03  0.00000000000E+00 0.  1.
</event>
<event>
12    1  0.8313893E-002  0.1768993E+03  0.7818608E-02  0.1170979E+00
         21   -1    0    0  501  502  0.00000000000E+00  0.00000000000E+00  0.11719757398E+04  0.11719757398E+04  0.00000000000E+00 0. -1.
         21   -1    0    0  502  503 -0.00000000000E+00 -0.00000000000E+00 -0.26764301252E+02  0.26764301252E+02  0.00000000000E+00 0. -1.
         -6    2    1    2    0  503 -0.10352900939E+02 -0.43027175110E+02  0.52887877586E+03  0.55767921759E+03  0.17127413648E+03 0.  0.
        -24    2    3    3    0    0 -0.57982489050E+02 -0.21590129741E+02  0.46101767840E+03  0.47191592051E+03  0.79619303555E+02 0.  0.
          6    2    1    2  501    0  0.10352900939E+02  0.43027175110E+02  0.61633266269E+03  0.64106082346E+03  0.17068833563E+03 0.  0.
         24    2    5    5    0    0 -0.57100486175E+02  0.28213070287E+02  0.29081260602E+03  0.30826236428E+03  0.79982939166E+02 0.  0.
          5    1    5    5  501    0  0.67453387114E+02  0.14814104824E+02  0.32552005668E+03  0.33279845918E+03  0.47000000000E+01 0. -1.
        -13    1    6    6    0    0 -0.26049468363E+02 -0.27538340235E+02  0.12378462190E+03  0.12945874866E+03  0.00000000000E+00 0.  1.
         14    1    6    6    0    0 -0.31051017812E+02  0.55751410521E+02  0.16702798412E+03  0.17880361563E+03  0.00000000000E+00 0. -1.
         -5    1    3    3    0  503  0.47629588111E+02 -0.21437045369E+02  0.67861097462E+02  0.85763297083E+02  0.47000000000E+01 0.  1.
         11    1    4    4    0    0 -0.19345437808E+02 -0.46174317182E+02  0.31291902350E+03  0.31689845187E+03  0.00000000000E+00 0. -1.
        -12    1    4    4    0    0 -0.38637051242E+02  0.24584187440E+02  0.14809865490E+03  0.15501746864E+03  0.00000000000E+00 0.  1.
</event>
<event>
12    1  0.8313893E-002  0.1946530E+03  0.7818608E-02  0.1155123E+00
         21   -1    0    0  503  502  0.00000000000E+00  0.00000000000E+00  0.39424703809E+03  0.39424703809E+03  0.00000000000E+00 0. -1.
         21   -1    0    0  501  503 -0.00000000000E+00 -0.00000000000E+00 -0.94386472849E+02  0.94386472849E+02  0.00000000000E+00 0. -1.
          6    2    1    2  501    0  0.46609405897E+02  0.67749976655E+02  0.14601939186E+03  0.24333407179E+03  0.17642933894E+03 0.  0.
         24    2    3    3    0    0  0.12302569805E+02  0.22171338365E+02  0.16341876128E+03  0.18350766184E+03  0.79538977544E+02 0.  0.
         -6    2    1    2    0  502 -0.46609405897E+02 -0.67749976655E+02  0.15384117338E+03  0.24529943915E+03  0.17245930583E+03 0.  0.
        -24    2    5    5    0    0 -0.31097357975E+02 -0.37313024173E+02  0.17932447234E+03  0.20242147006E+03  0.80360921569E+02 0.  0.
          5    1    3    3  501    0  0.34306836091E+02  0.45578638291E+02 -0.17399369414E+02  0.59826409946E+02  0.47000000000E+01 0. -1.
        -13    1    4    4    0    0  0.42200069858E+01 -0.30069381233E+02  0.66676714712E+02  0.73265001409E+02  0.00000000000E+00 0.  1.
         14    1    4    4    0    0  0.80825628194E+01  0.52240719598E+02  0.96742046563E+02  0.11024266043E+03  0.00000000000E+00 0. -1.
         -5    1    5    5    0  502 -0.15512047921E+02 -0.30436952482E+02 -0.25483298964E+02  0.42877969089E+02  0.47000000000E+01 0.  1.
         13    1    6    6    0    0 -0.37707711421E+01 -0.58477442270E+02  0.10019886553E+03  0.11607602088E+03  0.00000000000E+00 0. -1.
        -14    1    6    6    0    0 -0.27326586833E+02  0.21164418097E+02  0.79125606814E+02  0.86345449186E+02  0.00000000000E+00 0.  1.
</event>
<event>
12    1  0.8313893E-002  0.1733596E+03  0.7818608E-02  0.1174395E+00
         21   -1    0    0  501  502  0.00000000000E+00  0.00000000000E+00  0.37709057648E+03  0.37709057648E+03  0.00000000000E+00 0.  1.
         21   -1    0    0  502  503 -0.00000000000E+00 -0.00000000000E+00 -0.82071572470E+02  0.82071572470E+02  0.00000000000E+00 0.  1.
         -6    2    1    2    0  503  0.30357496542E+01 -0.12885177075E+02  0.10836864202E+03  0.20442327238E+03  0.17282901421E+03 0.  0.
        -24    2    3    3    0    0  0.43844579592E+02  0.36288109041E+02  0.29629045005E+02  0.10290782130E+03  0.80454741068E+02 0.  0.
          6    2    1    2  501    0 -0.30357496542E+01  0.12885177075E+02  0.18665036199E+03  0.25473887657E+03  0.17285338887E+03 0.  0.
         24    2    5    5    0    0 -0.64505258671E+02  0.33729758901E+02  0.13937753868E+03  0.17430376637E+03  0.75213560274E+02 0.  0.
          5    1    5    5  501    0  0.61469509017E+02 -0.20844581827E+02  0.47272823307E+02  0.80435110205E+02  0.47000000000E+01 0. -1.
        -11    1    6    6    0    0 -0.20724305376E+02  0.97106995659E+01 -0.33151620447E+01  0.23125414996E+02  0.00000000000E+00 0.  1.
         12    1    6    6    0    0 -0.43780953295E+02  0.24019059336E+02  0.14269270072E+03  0.15117835137E+03  0.00000000000E+00 0. -1.
         -5    1    3    3    0  503 -0.40808829938E+02 -0.49173286116E+02  0.78739597017E+02  0.10151545107E+03  0.47000000000E+01 0.  1.
         13    1    4    4    0    0  0.27675679914E+02 -0.21428076112E+02 -0.21473947460E+01  0.35067321095E+02  0.00000000000E+00 0. -1.
        -14    1    4    4    0    0  0.16168899678E+02  0.57716185153E+02  0.31776439751E+02  0.67840500210E+02  0.00000000000E+00 0.  1.
</event>
<event>
12    1  0.8313893E-002  0.2510370E+03  0.7818608E-02  0.1112809E+00
         21   -1    0    0  503  502  0.00000000000E+00  0.00000000000E+00  0.37739157488E+03  0.37739157488E+03  0.00000000000E+00 0.  1.
         21   -1    0    0  501  503 -0.00000000000E+00 -0.00000000000E+00 -0.32350290139E+03  0.32350290139E+03  0.00000000000E+00 0. -1.
          6    2    1    2  501    0  0.14401565442E+02  0.18272820959E+03 -0.21735979430E+03  0.33130642647E+03  0.17006370681E+03 0.  0.
         24    2    3    3    0    0 -0.46490651320E+02  0.14003316471E+03 -0.18646370182E+03  0.25063804697E+03  0.79246770385E+02 0.  0.
         -6    2    1    2    0  502 -0.14401565442E+02 -0.18272820959E+03  0.27124846779E+03  0.36958804981E+03  0.17153014782E+03 0.  0.
        -24    2    5    5    0    0 -0.16151718989E+02 -0.20631271346E+03  0.21642685402E+03  0.30969822432E+03  0.79035392336E+02 0.  0.
          5    1    3    3  501    0  0.60892216762E+02  0.42695044886E+02 -0.30896092478E+02  0.80668379495E+02  0.47000000000E+01 0. -1.
        -11    1    4    4    0    0 -0.66079708764E+02  0.81275522223E+02 -0.10513668250E+03  0.14841145654E+03  0.00000000000E+00 0.  1.
         12    1    4    4    0    0  0.19589057444E+02  0.58757642483E+02 -0.81327019317E+02  0.10222659044E+03  0.00000000000E+00 0. -1.
         -5    1    5    5    0  502  0.17501535468E+01  0.23584503873E+02  0.54821613774E+02  0.59889825489E+02  0.47000000000E+01 0.  1.
         13    1    6    6    0    0 -0.41717726375E+02 -0.79457662763E+02  0.66803050612E+02  0.11187732763E+03  0.00000000000E+00 0. -1.
        -14    1    6    6    0    0  0.25566007386E+02 -0.12685505070E+03  0.14962380340E+03  0.19782089669E+03  0.00000000000E+00 0.  1.
</event>
<event>
12    1  0.8313893E-002  0.1737908E+03  0.7818608E-02  0.1174041E+00
         21   -1    0    0  501  502  0.00000000000E+00  0.00000000000E+00  0.18048783765E+02  0.18048783765E+02  0.00000000000E+00 0.  1.
         21   -1    0    0  502  503 -0.00000000000E+00 -0.00000000000E+00 -0.16814176279E+04  0.16814176279E+04  0.00000000000E+00 0.  1.
         -6    2    1    2    0  503 -0.22107881640E+02 -0.15694801879E+02 -0.90079370385E+03  0.91733848131E+03  0.17130530394E+03 0.  0.
        -24    2    3    3    0    0 -0.53502351553E+02 -0.62037423964E+02 -0.53891852605E+03  0.55112954413E+03  0.81237018029E+02 0.  0.
          6    2    1    2  501    0  0.22107881640E+02  0.15694801879E+02 -0.76257514029E+03  0.78212793036E+03  0.17166295356E+03 0.  0.
         24    2    5    5    0    0  0.43503793005E+02 -0.50163900853E+02 -0.43197760084E+03  0.44432328735E+03  0.80059597179E+02 0.  0.
          5    1    5    5  501    0 -0.21395911365E+02  0.65858702732E+02 -0.33059753945E+03  0.33780464301E+03  0.47000000000E+01 0. -1.
        -11    1    6    6    0    0  0.33841479971E+02 -0.53195029053E+02 -0.15737751023E+03  0.16953653768E+03  0.00000000000E+00 0.  1.
         12    1    6    6    0    0  0.96623130340E+01  0.30311282005E+01 -0.27460009061E+03  0.27478674967E+03  0.00000000000E+00 0. -1.
         -5    1    3    3    0  503  0.31394469913E+02  0.46342622085E+02 -0.36187517780E+03  0.36620893718E+03  0.47000000000E+01 0.  1.
         11    1    4    4    0    0 -0.11683529146E+01 -0.58113275427E+02 -0.36038535330E+03  0.36504262861E+03  0.00000000000E+00 0. -1.
        -12    1    4    4    0    0 -0.52333998638E+02 -0.39241485377E+01 -0.17853317275E+03  0.18608691552E+03  0.00000000000E+00 0.  1.
</event>
<event>
12    1  0.8313893E-002  0.2689143E+03  0.7818608E-02  0.1102606E+00
         21   -1    0    0  503  502  0.00000000000E+00  0.00000000000E+00  0.24791600162E+03  0.24791600162E+03  0.00000000000E+00 0.  1.
         21   -1    0    0  501  503 -0.00000000000E+00 -0.00000000000E+00 -0.28667717783E+03  0.28667717783E+03  0.00000000000E+00 0.  1.
          6    2    1    2  501    0 -0.16852674475E+03 -0.12038882370E+03 -0.11857701673E+02  0.26433646471E+03  0.16382438438E+03 0.  0.
         24    2    3    3    0    0 -0.66281472510E+02 -0.24065218697E+02 -0.48366786849E+02  0.11912167250E+03  0.82935266561E+02 0.  0.
         -6    2    1    2    0  502  0.16852674475E+03  0.12038882370E+03 -0.26903474535E+02  0.27025671473E+03  0.17152306651E+03 0.  0.
        -24    2    5    5    0    0  0.22764786615E+02  0.85081854421E+02 -0.15672618253E+02  0.11978627693E+03  0.79661557329E+02 0.  0.
          5    1    3    3  501    0 -0.10224527224E+03 -0.96323605007E+02  0.36509085176E+02  0.14521479221E+03  0.47000000000E+01 0. -1.
        -13    1    4    4    0    0 -0.84747216599E+02 -0.26987629049E+02 -0.46418199561E+02  0.10032483288E+03  0.00000000000E+00 0.  1.
         14    1    4    4    0    0  0.18465744089E+02  0.29224103519E+01 -0.19485872885E+01  0.18796839613E+02  0.00000000000E+00 0. -1.
         -5    1    5    5    0  502  0.14576195814E+03  0.35306969283E+02 -0.11230856283E+02  0.15047043780E+03  0.47000000000E+01 0.  1.
         13    1    6    6    0    0  0.19040928153E+02  0.33534365958E+02 -0.45872092797E+02  0.59927952933E+02  0.00000000000E+00 0. -1.
        -14    1    6    6    0    0  0.37238584615E+01  0.51547488463E+02  0.30199474544E+02  0.59858323995E+02  0.00000000000E+00 0.  1.
</event>
<event>
12    1  0.8313893E-002  0.1824117E+03  0.7818608E-02  0.1166655E+00
         21   -1    0    0  501  502  0.00000000000E+00  0.00000000000E+00  0.53183250124E+02  0.53183250124E+02  0.00000000000E+00 0. -1.
         21   -1    0    0  502  503 -0.00000000000E+00 -0.00000000000E+00 -0.64445679840E+03  0.64445679840E+03  0.00000000000E+00 0. -1.
         -6    2    1    2    0  503  0.24422781632E+02  0.38793042112E+02 -0.37348208324E+03  0.41354999662E+03  0.17156153656E+03 0.  0.
        -24    2    3    3    0    0  0.76338909841E+02  0.29551000281E+02 -0.31460791260E+03  0.33437324705E+03  0.78271571436E+02 0.  0.
          6    2    1    2  501    0 -0.24422781632E+02 -0.38793042112E+02 -0.21779146504E+03  0.28409005190E+03  0.17655781763E+03 0.  0.
         24    2    5    5    0    0  0.57680825115E+01 -0.90642488855E+02 -0.16314616082E+03  0.20280012215E+03  0.79132093321E+02 0.  0.
          5    1    5    5  501    0 -0.30190864143E+02  0.51849446743E+02 -0.54645304215E+02  0.81289929746E+02  0.47000000000E+01 0. -1.
        -11    1    6    6    0    0  0.28927494028E+02 -0.21705478606E+01 -0.39596060820E+02  0.49085224063E+02  0.00000000000E+00 0.  1.
         12    1    6    6    0    0 -0.23159411517E+02 -0.88471940995E+02 -0.12355010000E+03  0.15371489809E+03  0.00000000000E+00 0. -1.
         -5    1    3    3    0  503 -0.51916128209E+02  0.92420418313E+01 -0.58874170636E+02  0.79176749576E+02  0.47000000000E+01 0.  1.
         13    1    4    4    0    0  0.20712359978E+02  0.16683396178E+01 -0.22097888334E+03  0.22195371611E+03  0.00000000000E+00 0. -1.
        -14    1    4    4    0    0  0.55626549862E+02  0.27882660663E+02 -0.93629029262E+02  0.11241953094E+03  0.00000000000E+00 0.  1.
</event>
<event>
12    1  0.8313893E-002  0.1841730E+03  0.7818608E-02  0.1163831E+00
         21   -1    0    0  501  502  0.00000000000E+00  0.00000000000E+00  0.11604699595E+03  0.11604699595E+03  0.00000000000E+00 0.  1.
         21   -1    0    0  502  503 -0.00000000000E+00 -0.00000000000E+00 -0.30097429183E+03  0.30097429183E+03  0.00000000000E+00 0. -1.
         -6    2    1    2    0  503  0.40284014129E+02 -0.49432845331E+02 -0.12797064573E+03  0.22426813836E+03  0.17278108613E+03 0.  0.
        -24    2    3    3    0    0 -0.32471273878E+02 -0.19676945778E+02 -0.11442650044E+03  0.14436645276E+03  0.79414626216E+02 0.  0.
          6    2    1    2  501    0 -0.40284014129E+02  0.49432845331E+02 -0.56956650151E+02  0.19275314941E+03  0.17275215952E+03 0.  0.
         24    2    5    5    0    0  0.40116345601E+02  0.23101405945E+02 -0.42798765280E+01  0.92980933719E+02  0.80524161288E+02 0.  0.
          5    1    5    5  501    0 -0.80400359730E+02  0.26331439387E+02 -0.52676773623E+02  0.99772215693E+02  0.47000000000E+01 0. -1.
        -11    1    6    6    0    0  0.42224173147E+02 -0.18128111863E+02 -0.18185060001E+02  0.49418677086E+02  0.00000000000E+00 0.  1.
         12    1    6    6    0    0 -0.21078275457E+01  0.41229517807E+02  0.13905183473E+02  0.43562256634E+02  0.00000000000E+00 0. -1.
         -5    1    3    3    0  503  0.72755288008E+02 -0.29755899553E+02 -0.13544145293E+02  0.79901685608E+02  0.47000000000E+01 0.  1.
         13    1    4    4    0    0 -0.26637191365E+01 -0.44655904232E+02 -0.83306006316E+02  0.94557579657E+02  0.00000000000E+00 0. -1.
        -14    1    4    4    0    0 -0.29807554742E+02  0.24978958453E+02 -0.31120494120E+02  0.49808873099E+02  0.00000000000E+00 0.  1.
</event>
<event>
12    1  0.8313893E-002  0.2012487E+03  0.7818608E-02  0.1148972E+00
         21   -1    0    0  503  502  0.00000000000E+00  0.00000000000E+00  0.12606405230E+04  0.12606405230E+04  0.00000000000E+00 0.  1.
         21   -1    0    0  501  503 -0.00000000000E+00 -0.00000000000E+00 -0.82110668440E+02  0.82110668440E+02  0.00000000000E+00 0.  1.
          6    2    1    2  501    0 -0.26123775821E+01 -0.10328496961E+03  0.65096770237E+02  0.21151510069E+03  0.17270332614E+03 0.  0.
         24    2    3    3    0    0 -0.60732465229E+02 -0.91143714942E+02  0.21508569300E+02  0.13770876008E+03  0.80656524492E+02 0.  0.
         -6    2    1    2    0  502  0.26123775821E+01  0.10328496961E+03  0.11134330844E+04  0.11312360908E+04  0.17113518135E+03 0.  0.
        -24    2    5    5    0    0 -0.61875445821E+02  0.78441078952E+02  0.80241979995E+03  0.81260267862E+03  0.80399031651E+02 0.  0.
          5    1    3    3  501    0  0.58120087647E+02 -0.12141254664E+02  0.43588200938E+02  0.73806340608E+02  0.47000000000E+01 0. -1.
        -13    1    4    4    0    0 -0.68849937856E+02 -0.57098633676E+02 -0.10776490048E+02  0.90092733604E+02  0.00000000000E+00 0.  1.
         14    1    4    4    0    0  0.81174726274E+01 -0.34045081266E+02  0.32285059347E+02  0.47616026476E+02  0.00000000000E+00 0. -1.
         -5    1    5    5    0  502  0.64487823403E+02  0.24843890654E+02  0.31101328440E+03  0.31863341216E+03  0.47000000000E+01 0.  1.
         13    1    6    6    0    0 -0.11017809480E+01  0.27207746554E+02  0.59409018275E+02  0.65352175528E+02  0.00000000000E+00 0. -1.
        -14    1    6    6    0    0 -0.60773664873E+02  0.51233332398E+02  0.74301078168E+03  0.74725050310E+03  0.00000000000E+00 0.  1.
</event>
<event>
12    1  0.8313893E-002  0.1964880E+03  0.7818608E-02  0.1155079E+00
         21   -1    0    0  503  502  0.00000000000E+00  0.00000000000E+00  0.33551583858E+03  0.33551583858E+03  0.00000000000E+00 0.  1.
         21   -1    0    0  501  503 -0.00000000000E+00 -0.00000000000E+00 -0.17892457309E+03  0.17892457309E+03  0.00000000000E+00 0.  1.
          6    2    1    2  501    0  0.66695860542E+02 -0.25491991022E+02 -0.83804674451E+02  0.20396055801E+03  0.17169305852E+03 0.  0.
         24    2    3    3    0    0  0.10284843049E+03  0.13604235230E+02 -0.47037714928E+02  0.13908049533E+03  0.79799515565E+02 0.  0.
         -6    2    1    2    0  502 -0.66695860542E+02  0.25491991022E+02  0.24039593993E+03  0.31047985366E+03  0.18305559858E+03 0.  0.
        -24    2    5    5    0    0 -0.23065086351E+02  0.84261237237E+02  0.89178634524E+02  0.14241369939E+03  0.68533777133E+02 0.  0.
          5    1    3    3  501    0 -0.36152569947E+02 -0.39096226251E+02 -0.36766959523E+02  0.64880062681E+02  0.47000000000E+01 0. -1.
        -11    1    4    4    0    0  0.49701268159E+02  0.13303081748E+02 -0.65072885322E+02  0.82955822247E+02  0.00000000000E+00 0.  1.
         12    1    4    4    0    0  0.53147162331E+02  0.30115348183E+00  0.18035170393E+02  0.56124673080E+02  0.00000000000E+00 0. -1.
         -5    1    5    5    0  502 -0.43630774191E+02 -0.58769246215E+02  0.15121730541E+03  0.16806615427E+03  0.47000000000E+01 0.  1.
         13    1    6    6    0    0  0.14321442333E+02  0.28030510940E+02  0.11883622428E+01  0.31499610457E+02  0.00000000000E+00 0. -1.
        -14    1    6    6    0    0 -0.37386528684E+02  0.56230726297E+02  0.87990272281E+02  0.11091408893E+03  0.00000000000E+00 0.  1.
</event>
<event>
12    1  0.8313893E-002  0.1788540E+03  0.7818608E-02  0.1170841E+00
         21   -1    0    0  503  502  0.00000000000E+00  0.00000000000E+00  0.46392738435E+03  0.46392738435E+03  0.00000000000E+00 0. -1.
         21   -1    0    0  501  503 -0.00000000000E+00 -0.00000000000E+00 -0.68836165501E+02  0.68836165501E+02  0.00000000000E+00 0. -1.
          6    2    1    2  501    0  0.17651132666E+02  0.54996439250E+01  0.14779455154E+03  0.23201718987E+03  0.17789586382E+03 0.  0.
         24    2    3    3    0    0 -0.51033636069E+02  0.32360397081E+01  0.13042265928E+03  0.16097780642E+03  0.79302459886E+02 0.  0.
         -6    2    1    2    0  502 -0.17651132666E+02 -0.54996439250E+01  0.24729666731E+03  0.30074635998E+03  0.17014970705E+03 0.  0.
        -24    2    5    5    0    0 -0.60715029304E+02 -0.22393285506E+02  0.89509913005E+02  0.13625124104E+03  0.79778456617E+02 0.  0.
          5    1    3    3  501    0  0.68684768734E+02  0.22636042169E+01  0.17371892257E+02  0.71039383448E+02  0.47000000000E+01 0. -1.
        -11    1    4    4    0    0 -0.42082783836E+02  0.31136583850E+02  0.11811643331E+03  0.12919728854E+03  0.00000000000E+00 0.  1.
         12    1    4    4    0    0 -0.89508522333E+01 -0.27900544142E+02  0.12306225971E+02  0.31780517881E+02  0.00000000000E+00 0. -1.
         -5    1    5    5    0  502  0.43063896639E+02  0.16893641581E+02  0.15778675431E+03  0.16449511894E+03  0.47000000000E+01 0.  1.
         11    1    6    6    0    0  0.18080956679E+02 -0.14565571133E+02  0.24974424183E+02  0.34099834606E+02  0.00000000000E+00 0. -1.
        -12    1    6    6    0    0 -0.78795985984E+02 -0.78277143735E+01  0.64535488822E+02  0.10215140644E+03  0.00000000000E+00 0.  1.
</event>
<event>
12    1  0.8313893E-002  0.2088716E+03  0.7818608E-02  0.1143354E+00
         21   -1    0    0  501  502  0.00000000000E+00  0.00000000000E+00  0.18196282448E+02  0.18196282448E+02  0.00000000000E+00 0. -1.
         21   -1    0    0  502  503 -0.00000000000E+00 -0.00000000000E+00 -0.24351280458E+04  0.24351280458E+04  0.00000000000E+00 0.  1.
         -6    2    1    2    0  503 -0.12619564520E+02  0.11421563482E+03 -0.14541165062E+04  0.14690412366E+04  0.17442154821E+03 0.  0.
        -24    2    3    3    0    0 -0.30616581088E+02  0.14762310617E+03 -0.11509364485E+04  0.11634595141E+04  0.79078289299E+02 0.  0.
          6    2    1    2  501    0  0.12619564520E+02 -0.11421563482E+03 -0.96281525720E+03  0.98428309173E+03  0.16910210089E+03 0.  0.
         24    2    5    5    0    0  0.62590420100E+02 -0.83509860175E+02 -0.46964938679E+03  0.48761962746E+03  0.79441155189E+02 0.  0.
          5    1    5    5  501    0 -0.49970855579E+02 -0.30705774643E+02 -0.49316587041E+03  0.49666346427E+03  0.47000000000E+01 0. -1.
        -13    1    6    6    0    0  0.42602387427E+02 -0.41631299224E+02 -0.39680125761E+03  0.40124726358E+03  0.00000000000E+00 0.  1.
         14    1    6    6    0    0  0.19988032673E+02 -0.41878560951E+02 -0.72848129187E+02  0.86372363888E+02  0.00000000000E+00 0. -1.
         -5    1    3    3    0  503  0.17997016568E+02 -0.33407471352E+02 -0.30318005764E+03  0.30558172246E+03  0.47000000000E+01 0.  1.
         13    1    4    4    0    0 -0.60314097024E+01  0.58067467835E+01 -0.82848688246E+01  0.11778593407E+02  0.00000000000E+00 0. -1.
        -14    1    4    4    0    0 -0.24585171386E+02  0.14181635939E+03 -0.11426515797E+04  0.11516809207E+04  0.00000000000E+00 0.  1.
</event>
<event>
12    1  0.8313893E-002  0.1955752E+03  0.7818608E-02  0.1153600E+00
         21   -1    0    0  503  502  0.00000000000E+00  0.00000000000E+00  0.12204368714E+04  0.12204368714E+04  0.00000000000E+00 0.  1.
         21   -1    0    0  501  503 -0.00000000000E+00 -0.00000000000E+00 -0.39509153180E+02  0.39509153180E+02  0.00000000000E+00 0.  1.
          6    2    1    2  501    0 -0.25560766944E+02  0.88275967841E+02  0.30347759006E+03  0.36103781054E+03  0.17263734723E+03 0.  0.
         24    2    3    3    0    0  0.37482229345E+02  0.15134479600E+02  0.20530690564E+03  0.22325657101E+03  0.77837015673E+02 0.  0.
         -6    2    1    2    0  502  0.25560766944E+02 -0.88275967841E+02  0.87745012818E+03  0.89890821407E+03  0.17225344865E+03 0.  0.
        -24    2    5    5    0    0  0.21634603295E+02 -0.12206282127E+03  0.52894796785E+03  0.54871853406E+03  0.77062886900E+02 0.  0.
          5    1    3    3  501    0 -0.63042996290E+02  0.73141488241E+02  0.98170684425E+02  0.13778123952E+03  0.47000000000E+01 0. -1.
        -11    1    4    4    0    0  0.26572153171E+02  0.36623489243E+02  0.55896943225E+02  0.71915419420E+02  0.00000000000E+00 0.  1.
         12    1    4    4    0    0  0.10910076174E+02 -0.21489009643E+02  0.14940996241E+03  0.15134115159E+03  0.00000000000E+00 0. -1.
         -5    1    5    5    0  502  0.39261636489E+01  0.33786853432E+02  0.34850216033E+03  0.35018968000E+03  0.47000000000E+01 0.  1.
         13    1    6    6    0    0  0.38941344087E+02 -0.47017298419E+02  0.32561963717E+03  0.33129322773E+03  0.00000000000E+00 0. -1.
        -14    1    6    6    0    0 -0.17306740792E+02 -0.75045522854E+02  0.20332833068E+03  0.21742530633E+03  0.00000000000E+00 0.  1.
</event>
<event>
12    1  0.8313893E-002  0.2039107E+03  0.7818608E-02  0.1146545E+00
         21   -1    0    0  501  502  0.00000000000E+00  0.00000000000E+00  0.19228814507E+03  0.19228814507E+03  0.00000000000E+00 0. -1.
         21   -1    0    0  502  503 -0.00000000000E+00 -0.00000000000E+00 -0.24627597528E+03  0.24627597528E+03  0.00000000000E+00 0.  1.
         -6    2    1    2    0  503 -0.49468509179E+02  0.95746360018E+02 -0.10398004476E+03  0.22861464362E+03  0.17273768180E+03 0.  0.
        -24    2    3    3    0    0  0.40983205331E+01  0.33987568204E+02  0.89714841912E+01  0.89102309026E+02  0.81772751706E+02 0.  0.
          6    2    1    2  501    0  0.49468509179E+02 -0.95746360018E+02  0.49992214554E+02  0.20994947673E+03  0.17310419523E+03 0.  0.
         24    2    5    5    0    0 -0.16342208524E+02  0.42025611152E+01  0.99510133446E+01  0.83671112808E+02  0.81345578568E+02 0.  0.
          5    1    5    5  501    0  0.65810717703E+02 -0.99948921134E+02  0.40041201210E+02  0.12627836392E+03  0.47000000000E+01 0. -1.
        -11    1    6    6    0    0 -0.41310987042E+02 -0.13616454120E+02 -0.12957226189E+02  0.45386068167E+02  0.00000000000E+00 0.  1.
         12    1    6    6    0    0  0.24968778518E+02  0.17819015235E+02  0.22908239534E+02  0.38285044641E+02  0.00000000000E+00 0. -1.
         -5    1    3    3    0  503 -0.53566829712E+02  0.61758791814E+02 -0.11295152895E+03  0.13951233459E+03  0.47000000000E+01 0.  1.
         11    1    4    4    0    0 -0.31639355480E+02  0.29852879915E+01 -0.16027544245E+02  0.35592737098E+02  0.00000000000E+00 0. -1.
        -12    1    4    4    0    0  0.35737676013E+02  0.31002280213E+02  0.24999028436E+02  0.53509571928E+02  0.00000000000E+00 0.  1.
</event>
<event>
12    1  0.8313893E-002  0.1919880E+03  0.7818608E-02  0.1156723E+00
         21   -1    0    0  501  502  0.00000000000E+00  0.00000000000E+00  0.34548398966E+03  0.34548398966E+03  0.00000000000E+00 0. -1.
         21   -1    0    0  502  503 -0.00000000000E+00 -0.00000000000E+00 -0.42936763542E+03  0.42936763542E+03  0.00000000000E+00 0. -1.
         -6    2    1    2    0  503  0.84782018207E+02 -0.52470164932E+01 -0.37786299117E+03  0.42383940396E+03  0.17217397730E+03 0.  0.
        -24    2    3    3    0    0  0.49681439977E+02 -0.43997981869E+02 -0.11265149744E+03  0.15348239126E+03  0.80389157634E+02 0.  0.
          6    2    1    2  501    0 -0.84782018207E+02  0.52470164932E+01  0.29397934541E+03  0.35101222113E+03  0.17195988503E+03 0.  0.
         24    2    5    5    0    0 -0.23618988781E+02 -0.41391861859E+02  0.23886702990E+03  0.25627279711E+03  0.79668975798E+02 0.  0.
          5    1    5    5  501    0 -0.61163029426E+02  0.46638878352E+02  0.55112315507E+02  0.94739424017E+02  0.47000000000E+01 0. -1.
        -13    1    6    6    0    0  0.21555866817E+02 -0.30924106907E+02  0.55205457173E+02  0.66847575004E+02  0.00000000000E+00 0.  1.
         14    1    6    6    0    0 -0.45174855599E+02 -0.10467754951E+02  0.18366157273E+03  0.18942522211E+03  0.00000000000E+00 0. -1.
         -5    1    3    3    0  503  0.35100578230E+02  0.38750965375E+02 -0.26521149372E+03  0.27035701269E+03  0.47000000000E+01 0.  1.
         11    1    4    4    0    0  0.43879981832E+02 -0.77330178741E+01 -0.10753669539E+03  0.11640186093E+03  0.00000000000E+00 0. -1.
        -12    1    4    4    0    0  0.58014581445E+01 -0.36264963994E+02 -0.51148020512E+01  0.37080530338E+02  0.00000000000E+00 0.  1.
</event>
<event>
12    1  0.8313893E-002  0.2842547E+03  0.7818608E-02  0.1093392E+00
         21   -1    0    0  501  502  0.00000000000E+00  0.00000000000E+00  0.24789571950E+03  0.24789571950E+03  0.00000000000E+00 0.  1.
         21   -1    0    0  502  503 -0.00000000000E+00 -0.00000000000E+00 -0.37279129825E+03  0.37279129825E+03  0.00000000000E+00 0.  1.
         -6    2    1    2    0  503 -0.19512334407E+03 -0.11501908948E+03 -0.17250544144E+03  0.33250392215E+03  0.17175046017E+03 0.  0.
        -24    2    3    3    0    0 -0.21033700218E+02 -0.40415091127E+02 -0.75432899197E+02  0.11962337084E+03  0.80893957957E+02 0.  0.
          6    2    1    2  501    0  0.19512334407E+03  0.11501908948E+03  0.47609862681E+02  0.28818309561E+03  0.17169824467E+03 0.  0.
         24    2    5    5    0    0  0.42021096298E+02  0.61467764803E+02 -0.22481477197E+02  0.11142640246E+03  0.79789521262E+02 0.  0.
          5    1    5    5  501    0  0.15310224777E+03  0.53551324679E+02  0.70091339878E+02  0.17675669315E+03  0.47000000000E+01 0. -1.
        -11    1    6    6    0    0  0.46595812059E+02  0.69221387878E+02 -0.39388017712E+02  0.92272347865E+02  0.00000000000E+00 0.  1.
         12    1    6    6    0    0 -0.45747157602E+01 -0.77536230750E+01  0.16906540515E+02  0.19154054591E+02  0.00000000000E+00 0. -1.
         -5    1    3    3    0  503 -0.17408964385E+03 -0.74603998355E+02 -0.97072542241E+02  0.21288055131E+03  0.47000000000E+01 0.  1.
         13    1    4    4    0    0  0.13841970995E+01 -0.60566072180E+02 -0.37802954058E+02  0.71408882055E+02  0.00000000000E+00 0. -1.
        -14    1    4    4    0    0 -0.22417897318E+02  0.20150981052E+02 -0.37629945139E+02  0.48214488784E+02  0.00000000000E+00 0.  1.
</event>
<event>
12    1  0.8313893E-002  0.1740685E+03  0.7818608E-02  0.1173754E+00
         21   -1    0    0  501  502  0.00000000000E+00  0.00000000000E+00  0.13301604056E+03  0.13301604056E+03  0.00000000000E+00 0.  1.
         21   -1    0    0  502  503 -0.00000000000E+00 -0.00000000000E+00 -0.54363622930E+03  0.54363622930E+03  0.00000000000E+00 0.  1.
         -6    2    1    2    0  503 -0.25759529655E+01 -0.24030600468E+02 -0.46344877985E+03  0.49506020936E+03  0.17238252247E+03 0.  0.
        -24    2    3    3    0    0 -0.54188408213E+02 -0.40438496890E+02 -0.37972289298E+03  0.39523446752E+03  0.86308477257E+02 0.  0.
          6    2    1    2  501    0  0.25759529655E+01  0.24030600468E+02  0.52828591106E+02  0.18159206050E+03  0.17204857194E+03 0.  0.
         24    2    5    5    0    0 -0.14728192916E+02  0.56353798773E+02  0.86792037995E+02  0.13139416873E+03  0.79617205522E+02 0.  0.
          5    1    5    5  501    0  0.17304145881E+02 -0.32323198306E+02 -0.33963446889E+02  0.50197891768E+02  0.47000000000E+01 0. -1.
        -11    1    6    6    0    0 -0.43852775542E+02  0.19116148104E+02  0.26203562939E+02  0.54544658325E+02  0.00000000000E+00 0.  1.
         12    1    6    6    0    0  0.29124582626E+02  0.37237650669E+02  0.60588475055E+02  0.76849510409E+02  0.00000000000E+00 0. -1.
         -5    1    3    3    0  503  0.51612455247E+02  0.16407896423E+02 -0.83725886873E+02  0.99825741842E+02  0.47000000000E+01 0.  1.
         13    1    4    4    0    0 -0.85136088426E+01  0.26367629089E+02 -0.75217258112E+02  0.80158401414E+02  0.00000000000E+00 0. -1.
        -14    1    4    4    0    0 -0.45674799370E+02 -0.66806125980E+02 -0.30450563487E+03  0.31507606610E+03  0.00000000000E+00 0.  1.
</event>
<event>
12    1  0.8313893E-002  0.2144452E+03  0.7818608E-02  0.1138391E+00
         21   -1    0    0  503  502  0.00000000000E+00  0.00000000000E+00  0.13899278924E+03  0.13899278924E+03  0.00000000000E+00 0. -1.
         21   -1    0    0  501  503 -0.00000000000E+00 -0.00000000000E+00 -0.36373355861E+03  0.36373355861E+03  0.00000000000E+00 0. -1.
          6    2    1    2  501    0  0.48717795411E+02  0.11674478749E+03 -0.19025396677E+03  0.28552581294E+03  0.17124733279E+03 0.  0.
         24    2    3    3    0    0  0.25593395732E+02  0.14908482862E+03 -0.14576301322E+03  0.22567473886E+03  0.82467713119E+02 0.  0.
         -6    2    1    2    0  502 -0.48717795411E+02 -0.11674478749E+03 -0.34486802602E+02  0.21720053491E+03  0.17315878210E+03 0.  0.
        -24    2    5    5    0    0 -0.71881941078E+02 -0.12950569191E+03  0.59636852436E+01  0.16864386397E+03  0.80414237691E+02 0.  0.
          5    1    3    3  501    0  0.23124399679E+02 -0.32340041132E+02 -0.44490953547E+02  0.59851074079E+02  0.47000000000E+01 0. -1.
        -11    1    4    4    0    0  0.27254208714E+01 -0.30590768325E+01 -0.37081274768E+02  0.37306927083E+02  0.00000000000E+00 0.  1.
         12    1    4    4    0    0  0.22867974861E+02  0.15214390546E+03 -0.10868173845E+03  0.18836781178E+03  0.00000000000E+00 0. -1.
         -5    1    5    5    0  502  0.23164145667E+02  0.12760904417E+02 -0.40450487846E+02  0.48556670942E+02  0.47000000000E+01 0.  1.
         13    1    6    6    0    0 -0.46214055115E+02 -0.11587919437E+03  0.32899609269E+02  0.12901980804E+03  0.00000000000E+00 0. -1.
        -14    1    6    6    0    0 -0.25667885963E+02 -0.13626497541E+02 -0.26935924026E+02  0.39624055928E+02  0.00000000000E+00 0.  1.
</event>
<event>
12    1  0.8313893E-002  0.2102321E+03  0.7818608E-02  0.1141461E+00
         21   -1    0    0  503  502  0.00000000000E+00  0.00000000000E+00  0.48285386537E+03  0.48285386537E+03  0.00000000000E+00 0. -1.
         21   -1    0    0  501  503 -0.00000000000E+00 -0.00000000000E+00 -0.14382795560E+03  0.14382795560E+03  0.00000000000E+00 0. -1.
          6    2    1    2  501    0 -0.97077877411E+02  0.75922896831E+02 -0.19637100947E+02  0.21114720787E+03  0.17032065968E+03 0.  0.
         24    2    3    3    0    0 -0.69975675284E+02  0.36630008386E+02  0.53044684624E+02  0.12406568058E+03  0.79625384672E+02 0.  0.
         -6    2    1    2    0  502  0.97077877411E+02 -0.75922896831E+02  0.35866301072E+03  0.41553461309E+03  0.16982773294E+03 0.  0.
        -24    2    5    5    0    0  0.10523425496E+03 -0.22292319697E+02  0.32321934366E+03  0.35056455204E+03  0.82786261539E+02 0.  0.
          5    1    3    3  501    0 -0.27102202127E+02  0.39292888445E+02 -0.72681785571E+02  0.87081527296E+02  0.47000000000E+01 0. -1.
        -13    1    4    4    0    0 -0.52649611602E+02 -0.16249282007E+02  0.16594312543E+02  0.57544695467E+02  0.00000000000E+00 0.  1.
         14    1    4    4    0    0 -0.17326063682E+02  0.52879290393E+02  0.36450372081E+02  0.66520985110E+02  0.00000000000E+00 0. -1.
         -5    1    5    5    0  502 -0.81563775482E+01 -0.53630577134E+02  0.35443667060E+02  0.64970061052E+02  0.47000000000E+01 0.  1.
         13    1    6    6    0    0  0.43543484869E+02 -0.46987359418E+02  0.20703937784E+03  0.21672367428E+03  0.00000000000E+00 0. -1.
        -14    1    6    6    0    0  0.61690770090E+02  0.24695039721E+02  0.11617996582E+03  0.13384087776E+03  0.00000000000E+00 0.  1.
</event>
<event>
12    1  0.8313893E-002  0.2013298E+03  0.7818608E-02  0.1148983E+00
         21   -1    0    0  503  502  0.00000000000E+00  0.00000000000E+00  0.24286362638E+02  0.24286362638E+02  0.00000000000E+00 0. -1.
         21   -1    0    0  501  503 -0.00000000000E+00 -0.00000000000E+00 -0.19970153394E+04  0.19970153394E+04  0.00000000000E+00 0. -1.
          6    2    1    2  501    0  0.89643872643E+02 -0.56785252746E+02 -0.14012444914E+04  0.14153906589E+04  0.16906804481E+03 0.  0.
         24    2    3    3    0    0  0.10256510149E+02  0.20332581042E+02 -0.46999439246E+03  0.47757492519E+03  0.81636207483E+02 0.  0.
         -6    2    1    2    0  502 -0.89643872643E+02  0.56785252746E+02 -0.57148448536E+03  0.60591104314E+03  0.17109379405E+03 0.  0.
        -24    2    5    5    0    0 -0.29164196400E+02  0.62193940988E+02 -0.18150024116E+03  0.21119995150E+03  0.83333338597E+02 0.  0.
          5    1    3    3  501    0  0.79387362494E+02 -0.77117833787E+02 -0.93125009896E+03  0.93781573372E+03  0.47000000000E+01 0. -1.
        -11    1    4    4    0    0 -0.27232600955E+02 -0.16789948265E+02 -0.17882719252E+03  0.18166640224E+03  0.00000000000E+00 0.  1.
         12    1    4    4    0    0  0.37489111105E+02  0.37122529307E+02 -0.29116719993E+03  0.29590852294E+03  0.00000000000E+00 0. -1.
         -5    1    5    5    0  502 -0.60479676243E+02 -0.54086882428E+01 -0.38998424420E+03  0.39471109165E+03  0.47000000000E+01 0.  1.
         13    1    6    6    0    0 -0.41202807771E+02 -0.24565295132E+01 -0.84025803762E+02  0.93616460108E+02  0.00000000000E+00 0. -1.
        -14    1    6    6    0    0  0.12038611371E+02  0.64650470502E+02 -0.97474437403E+02  0.11758349139E+03  0.00000000000E+00 0.  1.
</event>
<event>
12    1  0.8313893E-002  0.2101274E+03  0.7818608E-02  0.1141980E+00
         21   -1    0    0  501  502  0.00000000000E+00  0.00000000000E+00  0.83902152183E+02  0.83902152183E+02  0.00000000000E+00 0. -1.
         21   -1    0    0  502  503 -0.00000000000E+00 -0.00000000000E+00 -0.74968602062E+03  0.74968602062E+03  0.00000000000E+00 0. -1.
         -6    2    1    2    0  503 -0.11968369036E+03 -0.69262558557E+01 -0.56512412881E+03  0.60292521927E+03  0.17257282610E+03 0.  0.
        -24    2    3    3    0    0 -0.55492209576E+02  0.61838969802E+02 -0.27809523286E+03  0.30083768299E+03  0.79138545960E+02 0.  0.
          6    2    1    2  501    0  0.11968369036E+03  0.69262558557E+01 -0.10065973963E+03  0.23066295353E+03  0.16941327041E+03 0.  0.
         24    2    5    5    0    0  0.62279721013E+02 -0.35154666499E+02 -0.34964414176E+02  0.13368880487E+03  0.10740378048E+03 0.  0.
          5    1    5    5  501    0  0.57403969350E+02  0.42080922355E+02 -0.65695325450E+02  0.96974148665E+02  0.47000000000E+01 0. -1.
        -11    1    6    6    0    0 -0.15070138047E+02  0.23562588492E+02  0.54627102604E+01  0.28498172583E+02  0.00000000000E+00 0.  1.
         12    1    6    6    0    0  0.77349859060E+02 -0.58717254991E+02 -0.40427124436E+02  0.10519063228E+03  0.00000000000E+00 0. -1.
         -5    1    3    3    0  503 -0.64191480787E+02 -0.68765225658E+02 -0.28702889595E+03  0.30208753628E+03  0.47000000000E+01 0.  1.
         11    1    4    4    0    0 -0.28815391758E+02 -0.14389326508E+02 -0.57242201155E+02  0.65681421365E+02  0.00000000000E+00 0. -1.
        -12    1    4    4    0    0 -0.26676817819E+02  0.76228296311E+02 -0.22085303170E+03  0.23515626162E+03  0.00000000000E+00 0.  1.
</event>
<event>
12    1  0.8313893E-002  0.2317546E+03  0.7818608E-02  0.1126622E+00
         21   -1    0    0  503  502  0.00000000000E+00  0.00000000000E+00  0.11056890365E+04  0.11056890365E+04  0.00000000000E+00 0.  1.
         21   -1    0    0  501  503 -0.00000000000E+00 -0.00000000000E+00 -0.52925178097E+02  0.52925178097E+02  0.00000000000E+00 0.  1.
          6    2    1    2  501    0 -0.14454094905E+03 -0.52686182182E+02  0.32805327348E+03  0.39774915807E+03  0.16406560503E+03 0.  0.
         24    2    3    3    0    0 -0.40975392896E+02  0.27468310074E+02  0.15280023460E+03  0.17891980746E+03  0.78936017925E+02 0.  0.
         -6    2    1    2    0  502  0.14454094905E+03  0.52686182182E+02  0.72471058488E+03  0.76086505649E+03  0.17332709715E+03 0.  0.
        -24    2    5    5    0    0  0.11098037102E+03 -0.24914495027E+02  0.53499088632E+03  0.55310598564E+03  0.82301932454E+02 0.  0.
          5    1    3    3  501    0 -0.10356555615E+03 -0.80154492256E+02  0.17525303888E+03  0.21882935060E+03  0.47000000000E+01 0. -1.
        -13    1    4    4    0    0 -0.32163747663E+02 -0.22358562849E+02  0.43884326205E+02  0.58823856409E+02  0.00000000000E+00 0.  1.
         14    1    4    4    0    0 -0.88116452334E+01  0.49826872923E+02  0.10891590840E+03  0.12009595105E+03  0.00000000000E+00 0. -1.
         -5    1    5    5    0  502  0.33560578024E+02  0.77600677209E+02  0.18971969856E+03  0.20775907085E+03  0.47000000000E+01 0.  1.
         13    1    6    6    0    0 -0.39882863856E+01 -0.14328772102E+02  0.16134603296E+03  0.16203012835E+03  0.00000000000E+00 0. -1.
        -14    1    6    6    0    0  0.11496865741E+03 -0.10585722925E+02  0.37364485336E+03  0.39107585729E+03  0.00000000000E+00 0.  1.
</event>
<event>
12    1  0.8313893E-002  0.2315410E+03  0.7818608E-02  0.1126304E+00
         21   -1    0    0  501  502  0.00000000000E+00  0.00000000000E+00  0.11132323500E+03  0.11132323500E+03  0.00000000000E+00 0.  1.
         21   -1    0    0  502  503 -0.00000000000E+00 -0.00000000000E+00 -0.92093849700E+03  0.92093849700E+03  0.00000000000E+00 0.  1.
         -6    2    1    2    0  503 -0.14749912796E+03 -0.19171784637E+02 -0.76673736462E+03  0.80093534213E+03  0.17744769905E+03 0.  0.
        -24    2    3    3    0    0 -0.26891633414E+02  0.24775785498E+02 -0.17825031938E+03  0.19859270785E+03  0.79554306967E+02 0.  0.
          6    2    1    2  501    0  0.14749912796E+03  0.19171784637E+02 -0.42877897373E+02  0.23132638987E+03  0.17190065297E+03 0.  0.
         24    2    5    5    0    0  0.93598028902E+02 -0.52094806667E+02  0.34469596650E+01  0.13056757936E+03  0.74575809429E+02 0.  0.
          5    1    5    5  501    0  0.53901099061E+02  0.71266591304E+02 -0.46324857038E+02  0.10075881051E+03  0.47000000000E+01 0. -1.
        -13    1    6    6    0    0  0.63176774737E+02  0.61417030594E+00  0.22070640235E+02  0.66923801684E+02  0.00000000000E+00 0.  1.
         14    1    6    6    0    0  0.30421254165E+02 -0.52708976973E+02 -0.18623680570E+02  0.63643777673E+02  0.00000000000E+00 0. -1.
         -5    1    3    3    0  503 -0.12060749455E+03 -0.43947570135E+02 -0.58848704524E+03  0.60234263429E+03  0.47000000000E+01 0.  1.
         11    1    4    4    0    0 -0.11074234124E+02  0.46042415450E+02 -0.15881917026E+03  0.16572890974E+03  0.00000000000E+00 0. -1.
        -12    1    4    4    0    0 -0.15817399289E+02 -0.21266629952E+02 -0.19431149114E+02  0.32863798102E+02  0.00000000000E+00 0.  1.
</event>
<event>
12    1  0.8313893E-002  0.2311807E+03  0.7818608E-02  0.1125913E+00
         21   -1    0    0  503  502  0.00000000000E+00  0.00000000000E+00  0.43920998012E+02  0.43920998012E+02  0.00000000000E+00 0.  1.
         21   -1    0    0  501  503 -0.00000000000E+00 -0.00000000000E+00 -0.14016673295E+04  0.14016673295E+04  0.00000000000E+00 0. -1.
          6    2    1    2  501    0 -0.31894764828E+02  0.15143622339E+03 -0.94276943882E+03  0.97056163387E+03  0.17095456880E+03 0.  0.
         24    2    3    3    0    0  0.29244436508E+02  0.26484326199E+02 -0.46974009286E+03  0.47747966230E+03  0.75989581308E+02 0.  0.
         -6    2    1    2    0  502  0.31894764828E+02 -0.15143622339E+03 -0.41497689271E+03  0.47502669368E+03  0.17173914071E+03 0.  0.
        -24    2    5    5    0    0  0.15941631661E+02 -0.17580176122E+03 -0.39400601536E+03  0.43883208650E+03  0.78565037636E+02 0.  0.
          5    1    3    3  501    0 -0.61139201336E+02  0.12495189719E+03 -0.47302934596E+03  0.49308197157E+03  0.47000000000E+01 0. -1.
        -11    1    4    4    0    0  0.42692819598E+01 -0.20705564535E+02 -0.26671298121E+03  0.26754954965E+03  0.00000000000E+00 0.  1.
         12    1    4    4    0    0  0.24975154548E+02  0.47189890734E+02 -0.20302711165E+03  0.20993011265E+03  0.00000000000E+00 0. -1.
         -5    1    5    5    0  502  0.15953133167E+02  0.24365537834E+02 -0.20970877349E+02  0.36194607176E+02  0.47000000000E+01 0.  1.
         13    1    6    6    0    0  0.11902387885E+02 -0.66929720560E+01 -0.89152678490E+02  0.90192365499E+02  0.00000000000E+00 0. -1.
        -14    1    6    6    0    0  0.40392437756E+01 -0.16910878916E+03 -0.30485333687E+03  0.34863972100E+03  0.00000000000E+00 0.  1.
</event>
<event>
12    1  0.8313893E-002  0.2236612E+03  0.7818608E-02  0.1131355E+00
         21   -1    0    0  501  502  0.00000000000E+00  0.00000000000E+00  0.75486711577E+03  0.75486711577E+03  0.00000000000E+00 0. -1.
         21   -1    0    0  502  503 -0.00000000000E+00 -0.00000000000E+00 -0.46105108801E+03  0.46105108801E+03  0.00000000000E+00 0. -1.
         -6    2    1    2    0  503 -0.11707817647E+03 -0.82314250307E+02 -0.41581911578E+03  0.47215450811E+03  0.17187613933E+03 0.  0.
        -24    2    3    3    0    0 -0.11510844740E+02  0.11047042167E+02 -0.11702141015E+03  0.14175633719E+03  0.78398418420E+02 0.  0.
          6    2    1    2  501    0  0.11707817647E+03  0.82314250307E+02  0.70963514354E+03  0.74376369568E+03  0.17064425816E+03 0.  0.
         24    2    5    5    0    0  0.22842375067E+02 -0.97052544390E+01  0.20548900837E+03  0.22267503611E+03  0.82112563487E+02 0.  0.
          5    1    5    5  501    0  0.94235801403E+02  0.92019504746E+02  0.50414613517E+03  0.52108865957E+03  0.47000000000E+01 0. -1.
        -11    1    6    6    0    0  0.21543928655E+02 -0.14839872125E+02  0.21237931675E+03  0.21398443133E+03  0.00000000000E+00 0.  1.
         12    1    6    6    0    0  0.12984464112E+01  0.51346176860E+01 -0.68903083814E+01  0.86906047807E+01  0.00000000000E+00 0. -1.
         -5    1    3    3    0  503 -0.10556733173E+03 -0.93361292474E+02 -0.29879770563E+03  0.33039817092E+03  0.47000000000E+01 0.  1.
         11    1    4    4    0    0 -0.12268464736E+02  0.36840081834E+02 -0.10742227544E+03  0.11422456880E+03  0.00000000000E+00 0. -1.
        -12    1    4    4    0    0  0.75761999584E+00 -0.25793039666E+02 -0.95991347133E+01  0.27531768387E+02  0.00000000000E+00 0.  1.
</event>
<event>
12    1  0.8313893E-002  0.2618666E+03  0.7818608E-02  0.1106040E+00
         21   -1    0    0  501  502  0.00000000000E+00  0.00000000000E+00  0.80123025641E+02  0.80123025641E+02  0.00000000000E+00 0.  1.
         21   -1    0    0  502  503 -0.00000000000E+00 -0.00000000000E+00 -0.11749751018E+04  0.11749751018E+04  0.00000000000E+00 0.  1.
         -6    2    1    2    0  503 -0.47106414562E+02  0.19172852800E+03 -0.87455163114E+03  0.91288998702E+03  0.17189744074E+03 0.  0.
        -24    2    3    3    0    0 -0.91995033573E+02  0.10634843206E+03 -0.47622472740E+03  0.50302273883E+03  0.80428910135E+02 0.  0.
          6    2    1    2  501    0  0.47106414562E+02 -0.19172852800E+03 -0.22030044505E+03  0.34220814045E+03  0.17203279501E+03 0.  0.
         24    2    5    5    0    0 -0.20180222603E+02 -0.31997960120E+02 -0.85519867121E+02  0.12259657417E+03  0.79279010402E+02 0.  0.
          5    1    5    5  501    0  0.67286637164E+02 -0.15973056788E+03 -0.13478057793E+03  0.21961156628E+03  0.47000000000E+01 0. -1.
        -13    1    6    6    0    0  0.17568208433E+02  0.60975200634E+01  0.32556940359E+01  0.18879121858E+02  0.00000000000E+00 0.  1.
         14    1    6    6    0    0 -0.37748431035E+02 -0.38095480183E+02 -0.88775561157E+02  0.10371745232E+03  0.00000000000E+00 0. -1.
         -5    1    3    3    0  503  0.44888619012E+02  0.85380095939E+02 -0.39832690373E+03  0.40986724819E+03  0.47000000000E+01 0.  1.
         11    1    4    4    0    0 -0.62289050667E+02  0.12467288821E+02 -0.18707619683E+03  0.19756736204E+03  0.00000000000E+00 0. -1.
        -12    1    4    4    0    0 -0.29705982907E+02  0.93881143239E+02 -0.28914853057E+03  0.30545537679E+03  0.00000000000E+00 0.  1.
</event>
<event>
12    1  0.8313893E-002  0.2365766E+03  0.7818608E-02  0.1122154E+00
         21   -1    0    0  501  502  0.00000000000E+00  0.00000000000E+00  0.31548589086E+03  0.31548589086E+03  0.00000000000E+00 0.  1.
         21   -1    0    0  502  503 -0.00000000000E+00 -0.00000000000E+00 -0.25716176058E+03  0.25716176058E+03  0.00000000000E+00 0.  1.
         -6    2    1    2    0  503  0.35508692341E+02  0.15783184195E+03 -0.13057102208E+03  0.26991038254E+03  0.17213676316E+03 0.  0.
        -24    2    3    3    0    0  0.52831721689E+02  0.37482906269E+02 -0.64366605172E+02  0.13138576926E+03  0.94461639961E+02 0.  0.
          6    2    1    2  501    0 -0.35508692341E+02 -0.15783184195E+03  0.18889515235E+03  0.30273726890E+03  0.17261725821E+03 0.  0.
         24    2    5    5    0    0 -0.49967203417E+02 -0.15809024158E+03  0.93093090616E+02  0.20573603001E+03  0.78560452046E+02 0.  0.
          5    1    5    5  501    0  0.14458511076E+02  0.25839962350E+00  0.95802061737E+02  0.97001238889E+02  0.47000000000E+01 0. -1.
        -13    1    6    6    0    0  0.20451669403E+02 -0.45229154948E+02  0.34047332855E+02  0.60192757980E+02  0.00000000000E+00 0.  1.
         14    1    6    6    0    0 -0.70418872820E+02 -0.11286108663E+03  0.59045757761E+02  0.14554327203E+03  0.00000000000E+00 0. -1.
         -5    1    3    3    0  503 -0.17323029347E+02  0.12034893568E+03 -0.66204416908E+02  0.13852461328E+03  0.47000000000E+01 0.  1.
         11    1    4    4    0    0  0.43065350640E+02 -0.44235605328E+00  0.12732618735E+02  0.44910351640E+02  0.00000000000E+00 0. -1.
        -12    1    4    4    0    0  0.97663710486E+01  0.37925262322E+02 -0.77099223908E+02  0.86475417622E+02  0.00000000000E+00 0.  1.
</event>
<event>
12    1  0.8313893E-002  0.1860464E+03  0.7818608E-02  0.1162101E+00
         21   -1    0    0  501  502  0.00000000000E+00  0.00000000000E+00  0.96576975531E+02  0.96576975531E+02  0.00000000000E+00 0. -1.
         21   -1    0    0  502  503 -0.00000000000E+00 -0.00000000000E+00 -0.23841133206E+04  0.23841133206E+04  0.00000000000E+00 0. -1.
         -6    2    1    2    0  503 -0.49119156838E+02 -0.52787902308E+02 -0.22870973728E+04  0.22946433333E+04  0.17138955654E+03 0.  0.
        -24    2    3    3    0    0 -0.68110185462E+02 -0.89385127259E+02 -0.19834099287E+04  0.19881336764E+04  0.78306268700E+02 0.  0.
          6    2    1    2  501    0  0.49119156838E+02  0.52787902308E+02 -0.43897229360E+00  0.18604696288E+03  0.17150517631E+03 0.  0.
         24    2    5    5    0    0  0.73444261177E+02  0.86207570646E+02 -0.18801127900E+02  0.14057341352E+03  0.81127045066E+02 0.  0.
          5    1    5    5  501    0 -0.24325104339E+02 -0.33419668338E+02  0.18362155606E+02  0.45473549360E+02  0.47000000000E+01 0. -1.
        -11    1    6    6    0    0  0.79972590444E+02  0.65772548778E+02  0.10700319093E+02  0.10409678297E+03  0.00000000000E+00 0.  1.
         12    1    6    6    0    0 -0.65283292665E+01  0.20435021868E+02 -0.29501446993E+02  0.36476630552E+02  0.00000000000E+00 0. -1.
         -5    1    3    3    0  503  0.18991028624E+02  0.36597224951E+02 -0.30368744411E+03  0.30650965687E+03  0.47000000000E+01 0.  1.
         11    1    4    4    0    0 -0.42159042416E+02 -0.41801656305E+01 -0.93016694872E+03  0.93113125344E+03  0.00000000000E+00 0. -1.
        -12    1    4    4    0    0 -0.25951143046E+02 -0.85204961629E+02 -0.10532429799E+04  0.10570024229E+04  0.00000000000E+00 0.  1.
</event>
<event>
12    1  0.8313893E-002  0.1828190E+03  0.7818608E-02  0.1166170E+00
         21   -1    0    0  503  502  0.00000000000E+00  0.00000000000E+00  0.89002237669E+02  0.89002237669E+02  0.00000000000E+00 0.  1.
         21   -1    0    0  501  503 -0.00000000000E+00 -0.00000000000E+00 -0.58102798844E+03  0.58102798844E+03  0.00000000000E+00 0.  1.
          6    2    1    2  501    0 -0.32908656889E+02 -0.51788752589E+02 -0.44768218358E+03  0.48191016676E+03  0.16749034820E+03 0.  0.
         24    2    3    3    0    0 -0.79153199528E+02 -0.19737260212E+02 -0.35892130392E+03  0.37671302020E+03  0.80208532842E+02 0.  0.
         -6    2    1    2    0  502  0.32908656889E+02  0.51788752589E+02 -0.44343567189E+02  0.18812005935E+03  0.17221425662E+03 0.  0.
        -24    2    5    5    0    0  0.47840266063E+02 -0.15915231509E+02 -0.65974128752E+02  0.11534126018E+03  0.80056448731E+02 0.  0.
          5    1    3    3  501    0  0.46244542639E+02 -0.32051492377E+02 -0.88760879654E+02  0.10519714656E+03  0.47000000000E+01 0. -1.
        -13    1    4    4    0    0 -0.63314316464E+02 -0.35785818880E+02 -0.33871712844E+03  0.34643703699E+03  0.00000000000E+00 0.  1.
         14    1    4    4    0    0 -0.15838883064E+02  0.16048558669E+02 -0.20204175484E+02  0.30275983205E+02  0.00000000000E+00 0. -1.
         -5    1    5    5    0  502 -0.14931609174E+02  0.67703984098E+02  0.21630561563E+02  0.72778799171E+02  0.47000000000E+01 0.  1.
         13    1    6    6    0    0  0.70047416752E+02 -0.95013429486E+01 -0.55926622957E+02  0.90137135892E+02  0.00000000000E+00 0. -1.
        -14    1    6    6    0    0 -0.22207150689E+02 -0.64138885607E+01 -0.10047505795E+02  0.25204124284E+02  0.00000000000E+00 0.  1.
</event>
<event>
12    1  0.8313893E-002  0.2235537E+03  0.7818608E-02  0.1131614E+00
         21   -1    0    0  501  502  0.00000000000E+00  0.00000000000E+00  0.25958423614E+04  0.25958423614E+04  0.00000000000E+00 0. -1.
         21   -1    0    0  502  503 -0.00000000000E+00 -0.00000000000E+00 -0.35734190917E+02  0.35734190917E+02  0.00000000000E+00 0.  1.
         -6    2    1    2    0  503 -0.44213106635E+02  0.13485473034E+03  0.38493724862E+03  0.44514371316E+03  0.17272997104E+03 0.  0.
        -24    2    3    3    0    0 -0.53340040603E+02  0.11004692714E+02  0.20573482020E+03  0.22706635739E+03  0.79158393272E+02 0.  0.
          6    2    1    2  501    0  0.44213106635E+02 -0.13485473034E+03  0.21751709218E+04  0.21864328391E+04  0.17023343896E+03 0.  0.
         24    2    5    5    0    0 -0.13505315605E+02 -0.22274287621E+02  0.11865125231E+04  0.11897015355E+04  0.83061655050E+02 0.  0.
          5    1    5    5  501    0  0.57718422240E+02 -0.11258044272E+03  0.98865839870E+03  0.99673130365E+03  0.47000000000E+01 0. -1.
        -11    1    6    6    0    0 -0.26325413779E+02 -0.39457563349E+02  0.10806228451E+04  0.10816633765E+04  0.00000000000E+00 0.  1.
         12    1    6    6    0    0  0.12820098174E+02  0.17183275728E+02  0.10588967808E+03  0.10803815903E+03  0.00000000000E+00 0. -1.
         -5    1    3    3    0  503  0.91269339684E+01  0.12385003763E+03  0.17920242843E+03  0.21807735577E+03  0.47000000000E+01 0.  1.
         11    1    4    4    0    0 -0.55272336308E+02  0.38324673420E+02  0.16271501782E+03  0.17606813675E+03  0.00000000000E+00 0. -1.
        -12    1    4    4    0    0  0.19322957051E+01 -0.27319980706E+02  0.43019802373E+02  0.50998220642E+02  0.00000000000E+00 0.  1.
</event>
<event>
12    1  0.8313893E-002  0.1854174E+03  0.7818608E-02  0.1162666E+00
         21   -1    0    0  503  502  0.00000000000E+00  0.00000000000E+00  0.52586355431E+02  0.52586355431E+02  0.00000000000E+00 0. -1.
         21   -1    0    0  501  503 -0.00000000000E+00 -0.00000000000E+00 -0.67040570723E+03  0.67040570723E+03  0.00000000000E+00 0. -1.
          6    2    1    2  501    0  0.68693112164E+02  0.91142797004E+00 -0.36596472923E+03  0.41024558234E+03  0.17219663304E+03 0.  0.
         24    2    3    3    0    0 -0.28054023207E+02 -0.91531923819E+01 -0.12786156269E+03  0.15299762277E+03  0.78669461749E+02 0.  0.
         -6    2    1    2    0  502 -0.68693112164E+02 -0.91142797004E+00 -0.25185462257E+03  0.31274648032E+03  0.17222089212E+03 0.  0.
        -24    2    5    5    0    0 -0.11843324600E+03  0.70305078256E+01 -0.18597466388E+03  0.22968376778E+03  0.63970272606E+02 0.  0.
          5    1    3    3  501    0  0.96747135371E+02  0.10064620352E+02 -0.23810316654E+03  0.25724795957E+03  0.47000000000E+01 0. -1.
        -11    1    4    4    0    0 -0.30251487296E+02 -0.38746735843E+02 -0.10358578358E+03  0.11465808555E+03  0.00000000000E+00 0.  1.
         12    1    4    4    0    0  0.21974640891E+01  0.29593543462E+02 -0.24275779107E+02  0.38339537221E+02  0.00000000000E+00 0. -1.
         -5    1    5    5    0  502  0.49740133834E+02 -0.79419357957E+01 -0.65879958690E+02  0.83062712543E+02  0.47000000000E+01 0.  1.
         13    1    6    6    0    0 -0.11648846767E+03  0.22429163017E+02 -0.15658189559E+03  0.19644470082E+03  0.00000000000E+00 0. -1.
        -14    1    6    6    0    0 -0.19447783274E+01 -0.15398655191E+02 -0.29392768285E+02  0.33239066953E+02  0.00000000000E+00 0.  1.
</event>
<event>
12    1  0.8313893E-002  0.2153058E+03  0.7818608E-02  0.1138042E+00
         21   -1    0    0  501  502  0.00000000000E+00  0.00000000000E+00  0.35803631305E+03  0.35803631305E+03  0.00000000000E+00 0.  1.
         21   -1    0    0  502  503 -0.00000000000E+00 -0.00000000000E+00 -0.12884556763E+03  0.12884556763E+03  0.00000000000E+00 0.  1.
         -6    2    1    2    0  503 -0.67464352979E+02  0.10989389732E+03  0.89663566657E+02  0.23031914440E+03  0.16846140656E+03 0.  0.
        -24    2    3    3    0    0 -0.75274995817E+02  0.27893266486E+02  0.94726947374E+02  0.14765816555E+03  0.79908572665E+02 0.  0.
          6    2    1    2  501    0  0.67464352979E+02 -0.10989389732E+03  0.13952717876E+03  0.25656273628E+03  0.17241953614E+03 0.  0.
         24    2    5    5    0    0  0.25212442098E+02  0.12232012940E+02  0.65010636635E+02  0.10731540136E+03  0.80653103574E+02 0.  0.
          5    1    5    5  501    0  0.42251910882E+02 -0.12212591026E+03  0.74516542125E+02  0.14924733492E+03  0.47000000000E+01 0. -1.
        -11    1    6    6    0    0  0.45911712199E+02 -0.12143019137E+01  0.68412099251E+02  0.82398878452E+02  0.00000000000E+00 0.  1.
         12    1    6    6    0    0 -0.20699270101E+02  0.13446314853E+02 -0.34014626160E+01  0.24916522908E+02  0.00000000000E+00 0. -1.
         -5    1    3    3    0  503  0.78106428378E+01  0.82000630838E+02 -0.50633807168E+01  0.82660978845E+02  0.47000000000E+01 0.  1.
         13    1    4    4    0    0  0.14893664467E+02  0.14090274920E+01  0.30072171019E+02  0.33587826210E+02  0.00000000000E+00 0. -1.
        -14    1    4    4    0    0 -0.90168660284E+02  0.26484238994E+02  0.64654776355E+02  0.11407033934E+03  0.00000000000E+00 0.  1.
</event>
<event>
12    1  0.8313893E-002  0.4332487E+03  0.7818608E-02  0.1032904E+00
         21   -1    0    0  501  502  0.00000000000E+00  0.00000000000E+00  0.95261373634E+03  0.95261373634E+03  0.00000000000E+00 0.  1.
         21   -1    0    0  502  503 -0.00000000000E+00 -0.00000000000E+00 -0.20827458179E+03  0.20827458179E+03  0.00000000000E+00 0. -1.
         -6    2    1    2    0  503  0.37390304918E+03  0.13798781370E+03  0.23477642343E+03  0.49203960201E+03  0.16774645758E+03 0.  0.
        -24    2    3    3    0    0  0.21780156204E+03  0.90350958171E+02  0.67037051362E+02  0.25795514880E+03  0.80287461457E+02 0.  0.
          6    2    1    2  501    0 -0.37390304918E+03 -0.13798781370E+03  0.50956273112E+03  0.66884871612E+03  0.16988319871E+03 0.  0.
         24    2    5    5    0    0 -0.20026225604E+03 -0.26261452800E+02  0.32382960879E+03  0.39108481010E+03  0.85364384051E+02 0.  0.
          5    1    5    5  501    0 -0.17364079313E+03 -0.11172636090E+03  0.18573312233E+03  0.27776390603E+03  0.47000000000E+01 0. -1.
        -13    1    6    6    0    0 -0.79944226753E+01  0.19983541382E+02  0.31441810489E+02  0.38103020443E+02  0.00000000000E+00 0.  1.
         14    1    6    6    0    0 -0.19226783337E+03 -0.46244994182E+02  0.29238779830E+03  0.35298178965E+03  0.00000000000E+00 0. -1.
         -5    1    3    3    0  503  0.15610148714E+03  0.47636855533E+02  0.16773937207E+03  0.23408445321E+03  0.47000000000E+01 0.  1.
         11    1    4    4    0    0  0.25068241096E+01  0.23526297061E+02  0.58615727106E+01  0.24374758567E+02  0.00000000000E+00 0. -1.
        -12    1    4    4    0    0  0.21529473793E+03  0.66824661109E+02  0.61175478652E+02  0.23358039023E+03  0.00000000000E+00 0.  1.
</event>
<event>
12    1  0.8313893E-002  0.5764247E+03  0.7818608E-02  0.9958061E-01
         21   -1    0    0  503  502  0.00000000000E+00  0.00000000000E+00  0.24161967732E+03  0.24161967732E+03  0.00000000000E+00 0. -1.
         21   -1    0    0  501  503 -0.00000000000E+00 -0.00000000000E+00 -0.13643582263E+04  0.13643582263E+04  0.00000000000E+00 0. -1.
          6    2    1    2  501    0 -0.10104116501E+03 -0.53584741292E+03 -0.55805496719E+03  0.80230341312E+03  0.18687871290E+03 0.  0.
         24    2    3    3    0    0 -0.17090861501E+02 -0.10794817082E+03 -0.91506911394E+02  0.16368412652E+03  0.80461626329E+02 0.  0.
         -6    2    1    2    0  502  0.10104116501E+03  0.53584741292E+03 -0.56468358175E+03  0.80367449045E+03  0.17228863034E+03 0.  0.
        -24    2    5    5    0    0  0.93270844451E+02  0.52665811810E+03 -0.57340896616E+03  0.78808464267E+03  0.78812040596E+02 0.  0.
          5    1    3    3  501    0 -0.83950303507E+02 -0.42789924210E+03 -0.46654805579E+03  0.63861928660E+03  0.47000000000E+01 0. -1.
        -11    1    4    4    0    0 -0.80422601709E+01  0.11230516216E+02 -0.11680744290E+01  0.13862425509E+02  0.00000000000E+00 0.  1.
         12    1    4    4    0    0 -0.90486013304E+01 -0.11917868704E+03 -0.90338836965E+02  0.14982170101E+03  0.00000000000E+00 0. -1.
         -5    1    5    5    0  502  0.77703205571E+01  0.91892948207E+01  0.87253844124E+01  0.15589847786E+02  0.47000000000E+01 0.  1.
         11    1    6    6    0    0  0.39167848129E+02  0.88546684688E+02 -0.76370589795E+02  0.12331708187E+03  0.00000000000E+00 0. -1.
        -12    1    6    6    0    0  0.54102996323E+02  0.43811143342E+03 -0.49703837637E+03  0.66476756079E+03  0.00000000000E+00 0.  1.
</event>
<event>
12    1  0.8313893E-002  0.2363166E+03  0.7818608E-02  0.1122549E+00
         21   -1    0    0  503  502  0.00000000000E+00  0.00000000000E+00  0.32982480678E+03  0.32982480678E+03  0.00000000000E+00 0.  1.
         21   -1    0    0  501  503 -0.00000000000E+00 -0.00000000000E+00 -0.45155259677E+03  0.45155259677E+03  0.00000000000E+00 0. -1.
          6    2    1    2  501    0 -0.22386229022E+02 -0.15869765763E+03 -0.37029622601E+03  0.43840244335E+03  0.17143896158E+03 0.  0.
         24    2    3    3    0    0  0.53939079671E+02 -0.84700059756E+02 -0.17348440683E+03  0.21466559031E+03  0.76817652995E+02 0.  0.
         -6    2    1    2    0  502  0.22386229022E+02  0.15869765763E+03  0.24856843603E+03  0.34297496020E+03  0.17366480976E+03 0.  0.
        -24    2    5    5    0    0  0.50934175580E+02  0.16534623929E+03  0.15920226880E+03  0.24880707429E+03  0.81399807964E+02 0.  0.
          5    1    3    3  501    0 -0.76325308693E+02 -0.73997597872E+02 -0.19681181918E+03  0.22373685304E+03  0.47000000000E+01 0. -1.
        -13    1    4    4    0    0 -0.87643829372E+01 -0.43351139434E+02 -0.32374157627E+02  0.54810781609E+02  0.00000000000E+00 0.  1.
         14    1    4    4    0    0  0.62703462608E+02 -0.41348920322E+02 -0.14111024920E+03  0.15985480870E+03  0.00000000000E+00 0. -1.
         -5    1    5    5    0  502 -0.28547946558E+02 -0.66485816668E+01  0.89366167228E+02  0.94167885905E+02  0.47000000000E+01 0.  1.
         13    1    6    6    0    0  0.13397764070E+02  0.50637009345E+02  0.44707645736E+01  0.52569901401E+02  0.00000000000E+00 0. -1.
        -14    1    6    6    0    0  0.37536411510E+02  0.11470922995E+03  0.15473150422E+03  0.19623717289E+03  0.00000000000E+00 0.  1.
</event>
<event>
12    1  0.8313893E-002  0.1984029E+03  0.7818608E-02  0.1151210E+00
         21   -1    0    0  503  502  0.00000000000E+00  0.00000000000E+00  0.16467259422E+04  0.16467259422E+04  0.00000000000E+00 0.  1.
         21   -1    0    0  501  503 -0.00000000000E+00 -0.00000000000E+00 -0.26270049834E+02  0.26270049834E+02  0.00000000000E+00 0. -1.
          6    2    1    2  501    0 -0.16966754756E+02  0.97785681014E+02  0.55473339298E+03  0.58896271630E+03  0.17116668405E+03 0.  0.
         24    2    3    3    0    0  0.22868124291E+02  0.48290374814E+02  0.14242220208E+03  0.17175867622E+03  0.79762446060E+02 0.  0.
         -6    2    1    2    0  502  0.16966754756E+02 -0.97785681014E+02  0.10657224994E+04  0.10840332758E+04  0.17179577125E+03 0.  0.
        -24    2    5    5    0    0 -0.15785405481E+02 -0.45311490301E+02  0.26422466959E+03  0.28013831626E+03  0.79752680450E+02 0.  0.
          5    1    3    3  501    0 -0.39834879046E+02  0.49495306201E+02  0.41231119090E+03  0.41720404009E+03  0.47000000000E+01 0. -1.
        -13    1    4    4    0    0 -0.41295981680E+01  0.58135772879E+02  0.56558815262E+02  0.81214045910E+02  0.00000000000E+00 0.  1.
         14    1    4    4    0    0  0.26997722459E+02 -0.98453980656E+01  0.85863386819E+02  0.90544630305E+02  0.00000000000E+00 0. -1.
         -5    1    5    5    0  502  0.32752160237E+02 -0.52474190713E+02  0.80149782983E+03  0.80389495951E+03  0.47000000000E+01 0.  1.
         11    1    6    6    0    0 -0.20447234245E+02 -0.37273878783E+02  0.26706067886E+03  0.27042344133E+03  0.00000000000E+00 0. -1.
        -12    1    6    6    0    0  0.46618287638E+01 -0.80376115186E+01 -0.28360092710E+01  0.97148749314E+01  0.00000000000E+00 0.  1.
</event>
<event>
12    1  0.8313893E-002  0.1964968E+03  0.7818608E-02  0.1154259E+00
         21   -1    0    0  501  502  0.00000000000E+00  0.00000000000E+00  0.20359852652E+03  0.20359852652E+03  0.00000000000E+00 0. -1.
         21   -1    0    0  502  503 -0.00000000000E+00 -0.00000000000E+00 -0.32808616872E+03  0.32808616872E+03  0.00000000000E+00 0. -1.
         -6    2    1    2    0  503  0.87833421648E+01  0.79380273924E+02 -0.23839204177E+03  0.30456095613E+03  0.17189600178E+03 0.  0.
        -24    2    3    3    0    0 -0.61840702143E+02  0.38566168897E+02 -0.14249825014E+03  0.17857978262E+03  0.79204580949E+02 0.  0.
          6    2    1    2  501    0 -0.87833421648E+01 -0.79380273924E+02  0.11390439957E+03  0.22712373912E+03  0.17953441354E+03 0.  0.
         24    2    5    5    0    0 -0.25165812117E+02 -0.60679652483E+02  0.15012432637E+03  0.18294148407E+03  0.81332250066E+02 0.  0.
          5    1    5    5  501    0  0.16382469952E+02 -0.18700621441E+02 -0.36219926799E+02  0.44182255051E+02  0.47000000000E+01 0. -1.
        -13    1    6    6    0    0 -0.50651437402E+02 -0.60706363301E+02  0.11341299532E+03  0.13825099697E+03  0.00000000000E+00 0.  1.
         14    1    6    6    0    0  0.25485625286E+02  0.26710818188E-01  0.36711331052E+02  0.44690487100E+02  0.00000000000E+00 0. -1.
         -5    1    3    3    0  503  0.70624044308E+02  0.40814105026E+02 -0.95893791631E+02  0.12598117350E+03  0.47000000000E+01 0.  1.
         11    1    4    4    0    0 -0.66085135533E+02  0.53197756471E+02 -0.13916424465E+03  0.16298445761E+03  0.00000000000E+00 0. -1.
        -12    1    4    4    0    0  0.42444333906E+01 -0.14631587574E+02 -0.33340054898E+01  0.15595325016E+02  0.00000000000E+00 0.  1.
</event>
<event>
12    1  0.8313893E-002  0.2739816E+03  0.7818608E-02  0.1099197E+00
         21   -1    0    0  501  502  0.00000000000E+00  0.00000000000E+00  0.18221048007E+03  0.18221048007E+03  0.00000000000E+00 0. -1.
         21   -1    0    0  502  503 -0.00000000000E+00 -0.00000000000E+00 -0.41740175909E+03  0.41740175909E+03  0.00000000000E+00 0.  1.
         -6    2    1    2    0  503  0.35237701036E+02  0.20854991255E+03 -0.15696590675E+03  0.31468224044E+03  0.17219713983E+03 0.  0.
        -24    2    3    3    0    0  0.49517506997E+02  0.19061339033E+03 -0.18202045440E+03  0.28039737431E+03  0.81888910295E+02 0.  0.
          6    2    1    2  501    0 -0.35237701036E+02 -0.20854991255E+03 -0.78225372274E+02  0.28492999872E+03  0.17415835813E+03 0.  0.
         24    2    5    5    0    0 -0.14167098202E+02 -0.22737955857E+03 -0.53293521178E+02  0.24695351821E+03  0.79016899640E+02 0.  0.
          5    1    5    5  501    0 -0.21070602834E+02  0.18829646022E+02 -0.24931851097E+02  0.37976480514E+02  0.47000000000E+01 0. -1.
        -13    1    6    6    0    0 -0.87564212881E+01 -0.65542486599E+02 -0.53450158642E+02  0.85025948522E+02  0.00000000000E+00 0.  1.
         14    1    6    6    0    0 -0.54106769138E+01 -0.16183707197E+03  0.15663746380E+00  0.16192756969E+03  0.00000000000E+00 0. -1.
         -5    1    3    3    0  503 -0.14279805961E+02  0.17936522224E+02  0.25054547646E+02  0.34284866129E+02  0.47000000000E+01 0.  1.
         13    1    4    4    0    0  0.33626954748E+02  0.18322425463E+03 -0.13454781174E+03  0.22979341421E+03  0.00000000000E+00 0. -1.
        -14    1    4    4    0    0  0.15890552248E+02  0.73891356981E+01 -0.47472642651E+02  0.50603960096E+02  0.00000000000E+00 0.  1.
</event>
<event>
12    1  0.8313893E-002  0.1960898E+03  0.7818608E-02  0.1154913E+00
         21   -1    0    0  503  502  0.00000000000E+00  0.00000000000E+00  0.43878604288E+02  0.43878604288E+02  0.00000000000E+00 0.  1.
         21   -1    0    0  501  503 -0.00000000000E+00 -0.00000000000E+00 -0.10548335373E+04  0.10548335373E+04  0.00000000000E+00 0. -1.
          6    2    1    2  501    0 -0.77037112423E+02 -0.42883931938E+02 -0.76218068651E+03  0.78700102376E+03  0.17514983355E+03 0.  0.
         24    2    3    3    0    0 -0.56172744750E+02 -0.12819187558E+02 -0.73428789935E+03  0.74074836687E+03  0.78801745352E+02 0.  0.
         -6    2    1    2    0  502  0.77037112423E+02  0.42883931938E+02 -0.24877424646E+03  0.31171111779E+03  0.16583560216E+03 0.  0.
        -24    2    5    5    0    0 -0.21350743008E+02  0.30849834209E+02 -0.12122674770E+03  0.15010838253E+03  0.80181267451E+02 0.  0.
          5    1    3    3  501    0 -0.20864367673E+02 -0.30064744379E+02 -0.27892787161E+02  0.46252656882E+02  0.47000000000E+01 0. -1.
        -11    1    4    4    0    0 -0.29368070662E+02  0.24083222756E+02 -0.15186110934E+03  0.15653843529E+03  0.00000000000E+00 0.  1.
         12    1    4    4    0    0 -0.26804674088E+02 -0.36902410314E+02 -0.58242679001E+03  0.58420993159E+03  0.00000000000E+00 0. -1.
         -5    1    5    5    0  502  0.98387855431E+02  0.12034097729E+02 -0.12754749877E+03  0.16160273527E+03  0.47000000000E+01 0.  1.
         11    1    6    6    0    0 -0.25782628475E+02  0.53398632350E+02 -0.10898204911E+03  0.12406951639E+03  0.00000000000E+00 0. -1.
        -12    1    6    6    0    0  0.44318854669E+01 -0.22548798141E+02 -0.12244698583E+02  0.26038866139E+02  0.00000000000E+00 0.  1.
</event>
<event>
12    1  0.8313893E-002  0.1968949E+03  0.7818608E-02  0.1152705E+00
         21   -1    0    0  501  502  0.00000000000E+00  0.00000000000E+00  0.44373526666E+03  0.44373526666E+03  0.00000000000E+00 0.  1.
         21   -1    0    0  502  503 -0.00000000000E+00 -0.00000000000E+00 -0.14397363541E+03  0.14397363541E+03  0.00000000000E+00 0. -1.
         -6    2    1    2    0  503  0.29115111646E+02 -0.91293763586E+02 -0.35098321108E+02  0.19999869323E+03  0.17200390738E+03 0.  0.
        -24    2    3    3    0    0  0.59130616577E+02 -0.11022981664E+03 -0.52273686066E+02  0.16029242417E+03  0.85522398802E+02 0.  0.
          6    2    1    2  501    0 -0.29115111646E+02  0.91293763586E+02  0.33485995237E+03  0.38771020884E+03  0.17031082568E+03 0.  0.
         24    2    5    5    0    0 -0.26713850844E+02  0.10360186361E+03  0.34558368649E+03  0.37055375661E+03  0.80218615033E+02 0.  0.
          5    1    5    5  501    0 -0.24012608019E+01 -0.12308100022E+02 -0.10723734124E+02  0.17156452231E+02  0.47000000000E+01 0. -1.
        -13    1    6    6    0    0  0.31620898762E+01  0.72290432449E+02  0.29610701926E+03  0.30482006543E+03  0.00000000000E+00 0.  1.
         14    1    6    6    0    0 -0.29875940721E+02  0.31311431159E+02  0.49476667232E+02  0.65733691175E+02  0.00000000000E+00 0. -1.
         -5    1    3    3    0  503 -0.30015504930E+02  0.18936053056E+02  0.17175364958E+02  0.39706269064E+02  0.47000000000E+01 0.  1.
         11    1    4    4    0    0 -0.95899641094E+01 -0.25965501915E+02 -0.43033469821E+02  0.51166925119E+02  0.00000000000E+00 0. -1.
        -12    1    4    4    0    0  0.68720580686E+02 -0.84264314728E+02 -0.92402162452E+01  0.10912549905E+03  0.00000000000E+00 0.  1.
</event>
<event>
12    1  0.8313893E-002  0.2122046E+03  0.7818608E-02  0.1139839E+00
         21   -1    0    0  501  502  0.00000000000E+00  0.00000000000E+00  0.25347558355E+03  0.25347558355E+03  0.00000000000E+00 0. -1.
         21   -1    0    0  502  503 -0.00000000000E+00 -0.00000000000E+00 -0.23252428002E+03  0.23252428002E+03  0.00000000000E+00 0. -1.
         -6    2    1    2    0  503  0.11489002438E+03 -0.48030382000E+02 -0.10760192399E+03  0.23789356549E+03  0.17178049702E+03 0.  0.
        -24    2    3    3    0    0  0.14051898427E+03 -0.58513826500E+02 -0.11748336789E+03  0.20811976614E+03  0.79636941779E+02 0.  0.
          6    2    1    2  501    0 -0.11489002438E+03  0.48030382000E+02  0.12855322752E+03  0.24810629809E+03  0.17182598042E+03 0.  0.
         24    2    5    5    0    0 -0.19610690760E+02  0.70487759048E+02  0.38119140087E+02  0.11475376017E+03  0.79763734018E+02 0.  0.
          5    1    5    5  501    0 -0.95279333622E+02 -0.22457377048E+02  0.90434087435E+02  0.13335253792E+03  0.47000000000E+01 0. -1.
        -13    1    6    6    0    0  0.23190265920E+02  0.36473233542E+01  0.25022666292E+02  0.34310715956E+02  0.00000000000E+00 0.  1.
         14    1    6    6    0    0 -0.42800956680E+02  0.66840435694E+02  0.13096473795E+02  0.80443044213E+02  0.00000000000E+00 0. -1.
         -5    1    3    3    0  503 -0.25628959890E+02  0.10483444500E+02  0.98814439023E+01  0.29773799342E+02  0.47000000000E+01 0.  1.
         13    1    4    4    0    0  0.98988591043E+02 -0.42472256851E+02 -0.12272510538E+03  0.16329141205E+03  0.00000000000E+00 0. -1.
        -14    1    4    4    0    0  0.41530393229E+02 -0.16041569649E+02  0.52417374918E+01  0.44828354091E+02  0.00000000000E+00 0.  1.
</event>
<event>
12    1  0.8313893E-002  0.4496780E+03  0.7818608E-02  0.1028220E+00
         21   -1    0    0  501  502  0.00000000000E+00  0.00000000000E+00  0.68315427998E+03  0.68315427998E+03  0.00000000000E+00 0. -1.
         21   -1    0    0  502  503 -0.00000000000E+00 -0.00000000000E+00 -0.11230740348E+04  0.11230740348E+04  0.00000000000E+00 0.  1.
         -6    2    1    2    0  503  0.39209807898E+03  0.11904317980E+03 -0.99696122157E+03  0.10936827415E+04  0.18519740676E+03 0.  0.
        -24    2    3    3    0    0  0.11394621377E+03  0.33371249391E+02 -0.47176479251E+03  0.49321499140E+03  0.81250405325E+02 0.  0.
          6    2    1    2  501    0 -0.39209807898E+03 -0.11904317980E+03  0.55704146671E+03  0.71254557336E+03  0.17179585642E+03 0.  0.
         24    2    5    5    0    0 -0.12385225989E+03 -0.32146363002E+02  0.27938235248E+03  0.31678864046E+03  0.76992031468E+02 0.  0.
          5    1    5    5  501    0 -0.26824581908E+03 -0.86896816798E+02  0.27765911423E+03  0.39575693290E+03  0.47000000000E+01 0. -1.
        -13    1    6    6    0    0 -0.17319477837E+02  0.13564264544E+02  0.11335058868E+02  0.24747467441E+02  0.00000000000E+00 0.  1.
         14    1    6    6    0    0 -0.10653278206E+03 -0.45710627546E+02  0.26804729361E+03  0.29204117302E+03  0.00000000000E+00 0. -1.
         -5    1    3    3    0  503  0.27815186520E+03  0.85671930408E+02 -0.52519642906E+03  0.60046775007E+03  0.47000000000E+01 0.  1.
         11    1    4    4    0    0  0.71627406010E+02  0.59697520685E+02 -0.28206290109E+03  0.29707534303E+03  0.00000000000E+00 0. -1.
        -12    1    4    4    0    0  0.42318807762E+02 -0.26326271293E+02 -0.18970189143E+03  0.19613964837E+03  0.00000000000E+00 0.  1.
</event>
<event>
12    1  0.8313893E-002  0.2063832E+03  0.7818608E-02  0.1144670E+00
         21   -1    0    0  503  502  0.00000000000E+00  0.00000000000E+00  0.20623439595E+04  0.20623439595E+04  0.00000000000E+00 0.  1.
         21   -1    0    0  501  503 -0.00000000000E+00 -0.00000000000E+00 -0.17184535741E+03  0.17184535741E+03  0.00000000000E+00 0.  1.
          6    2    1    2  501    0  0.87173082068E+02  0.71781488749E+02 -0.10264102812E+03  0.23049776399E+03  0.17274926971E+03 0.  0.
         24    2    3    3    0    0  0.82995991373E+02 -0.13867066162E+02 -0.90192101859E+02  0.14372110347E+03  0.73759814514E+02 0.  0.
         -6    2    1    2    0  502 -0.87173082068E+02 -0.71781488749E+02  0.19931396302E+04  0.20036915529E+04  0.17152995476E+03 0.  0.
        -24    2    5    5    0    0 -0.97459348508E+02 -0.47393044461E+02  0.19345711816E+04  0.19392481152E+04  0.79832138796E+02 0.  0.
          5    1    3    3  501    0  0.41770906951E+01  0.85648554911E+02 -0.12448926264E+02  0.86776660515E+02  0.47000000000E+01 0. -1.
        -13    1    4    4    0    0  0.74103985797E+02  0.19997776626E+02 -0.58683181321E+02  0.96617946319E+02  0.00000000000E+00 0.  1.
         14    1    4    4    0    0  0.88920055761E+01 -0.33864842788E+02 -0.31508920538E+02  0.47103157152E+02  0.00000000000E+00 0. -1.
         -5    1    5    5    0  502  0.10286266440E+02 -0.24388444288E+02  0.58568448608E+02  0.64443437714E+02  0.47000000000E+01 0.  1.
         11    1    6    6    0    0 -0.19824842750E+02  0.10976584798E+01  0.10017530071E+04  0.10019497574E+04  0.00000000000E+00 0. -1.
        -12    1    6    6    0    0 -0.77634505758E+02 -0.48490702941E+02  0.93281817456E+03  0.93729835781E+03  0.00000000000E+00 0.  1.
</event>
<event>
12    1  0.8313893E-002  0.1845134E+03  0.7818608E-02  0.1164086E+00
         21   -1    0    0  503  502  0.00000000000E+00  0.00000000000E+00  0.49022944330E+02  0.49022944330E+02  0.00000000000E+00 0.  1.
         21   -1    0    0  501  503 -0.00000000000E+00 -0.00000000000E+00 -0.83102147222E+03  0.83102147222E+03  0.00000000000E+00 0.  1.
          6    2    1    2  501    0  0.54064343723E+02  0.14950898414E+02 -0.57746393170E+03  0.60622584723E+03  0.17578026852E+03 0.  0.
         24    2    3    3    0    0  0.87208977485E+02  0.56038398568E+02 -0.42307107830E+03  0.44298984446E+03  0.80654554330E+02 0.  0.
         -6    2    1    2    0  502 -0.54064343723E+02 -0.14950898414E+02 -0.20453459618E+03  0.27381856932E+03  0.17319274016E+03 0.  0.
        -24    2    5    5    0    0 -0.22132030943E-01 -0.20947893376E+02 -0.23837838955E+02  0.85059641940E+02  0.78918219660E+02 0.  0.
          5    1    3    3  501    0 -0.33144633762E+02 -0.41087500154E+02 -0.15439285341E+03  0.16323600277E+03  0.47000000000E+01 0. -1.
        -11    1    4    4    0    0  0.28813111280E+02 -0.19184478955E+02 -0.14461963538E+03  0.14870466890E+03  0.00000000000E+00 0.  1.
         12    1    4    4    0    0  0.58395866205E+02  0.75222877523E+02 -0.27845144291E+03  0.29428517556E+03  0.00000000000E+00 0. -1.
         -5    1    5    5    0  502 -0.54042211692E+02  0.59969949619E+01 -0.18069675723E+03  0.18875892738E+03  0.47000000000E+01 0.  1.
         11    1    6    6    0    0  0.21429502786E+02 -0.58706267661E+01 -0.45768687645E+02  0.50876916347E+02  0.00000000000E+00 0. -1.
        -12    1    6    6    0    0 -0.21451634817E+02 -0.15077266610E+02  0.21930848690E+02  0.34182725593E+02  0.00000000000E+00 0.  1.
</event>
<event>
12    1  0.8313893E-002  0.1776269E+03  0.7818608E-02  0.1170888E+00
         21   -1    0    0  503  502  0.00000000000E+00  0.00000000000E+00  0.25672721111E+03  0.25672721111E+03  0.00000000000E+00 0. -1.
         21   -1    0    0  501  503 -0.00000000000E+00 -0.00000000000E+00 -0.12147369528E+03  0.12147369528E+03  0.00000000000E+00 0. -1.
          6    2    1    2  501    0 -0.49676372546E+01 -0.28881916337E+02  0.53815436946E+02  0.18560019800E+03  0.17519272169E+03 0.  0.
         24    2    3    3    0    0  0.58886256220E+02  0.14784870726E+02  0.35555399612E+02  0.10597842355E+03  0.79253115029E+02 0.  0.
         -6    2    1    2    0  502  0.49676372546E+01  0.28881916337E+02  0.81438078880E+02  0.19260070839E+03  0.17205821593E+03 0.  0.
        -24    2    5    5    0    0  0.55935024973E+02  0.85302836921E+01  0.92453109052E+02  0.13642878968E+03  0.82847718868E+02 0.  0.
          5    1    3    3  501    0 -0.63853893474E+02 -0.43666787062E+02  0.18260037335E+02  0.79621774457E+02  0.47000000000E+01 0. -1.
        -11    1    4    4    0    0  0.29675896510E+02 -0.57094651500E+01 -0.22608556851E+02  0.37741272751E+02  0.00000000000E+00 0.  1.
         12    1    4    4    0    0  0.29210359710E+02  0.20494335876E+02  0.58163956462E+02  0.68237150796E+02  0.00000000000E+00 0. -1.
         -5    1    5    5    0  502 -0.50967387719E+02  0.20351632645E+02 -0.11015030172E+02  0.56171918713E+02  0.47000000000E+01 0.  1.
         11    1    6    6    0    0 -0.22788053684E+01 -0.28109928925E+02  0.12189937271E+02  0.30723860902E+02  0.00000000000E+00 0. -1.
        -12    1    6    6    0    0  0.58213830342E+02  0.36640212617E+02  0.80263171781E+02  0.10570492878E+03  0.00000000000E+00 0.  1.
</event>
<event>
12    1  0.8313893E-002  0.1868339E+03  0.7818608E-02  0.1161875E+00
         21   -1    0    0  501  502  0.00000000000E+00  0.00000000000E+00  0.23539850273E+03  0.23539850273E+03  0.00000000000E+00 0. -1.
         21   -1    0    0  502  503 -0.00000000000E+00 -0.00000000000E+00 -0.15869619443E+03  0.15869619443E+03  0.00000000000E+00 0. -1.
         -6    2    1    2    0  503  0.76867301776E+02  0.12982189237E+01  0.93212815783E+02  0.20879546549E+03  0.17028402723E+03 0.  0.
        -24    2    3    3    0    0  0.11698938298E+03  0.16544674407E+02  0.78688299924E+02  0.16324014346E+03  0.80593138100E+02 0.  0.
          6    2    1    2  501    0 -0.76867301776E+02 -0.12982189237E+01 -0.16510507482E+02  0.18529923167E+03  0.16778838143E+03 0.  0.
         24    2    5    5    0    0  0.21921570218E+02  0.20073687081E+02  0.67303245219E+01  0.81480996908E+02  0.75566840843E+02 0.  0.
          5    1    5    5  501    0 -0.98788871994E+02 -0.21371906005E+02 -0.23240832004E+02  0.10381823476E+03  0.47000000000E+01 0. -1.
        -13    1    6    6    0    0  0.23312403209E+01  0.40262625200E+02 -0.17868829111E+02  0.44111321939E+02  0.00000000000E+00 0.  1.
         14    1    6    6    0    0  0.19590329897E+02 -0.20188938119E+02  0.24599153633E+02  0.37369674969E+02  0.00000000000E+00 0. -1.
         -5    1    3    3    0  503 -0.40122081205E+02 -0.15246455484E+02  0.14524515859E+02  0.45555322038E+02  0.47000000000E+01 0.  1.
         11    1    4    4    0    0  0.49378699880E+02 -0.22222975214E+02  0.24333495142E+01  0.54203669794E+02  0.00000000000E+00 0. -1.
        -12    1    4    4    0    0  0.67610683101E+02  0.38767649622E+02  0.76254950410E+02  0.10903647366E+03  0.00000000000E+00 0.  1.
</event>
<event>
12    1  0.8313893E-002  0.1975909E+03  0.7818608E-02  0.1154231E+00
         21   -1    0    0  503  502  0.00000000000E+00  0.00000000000E+00  0.42750995980E+03  0.42750995980E+03  0.00000000000E+00 0.  1.
         21   -1    0    0  501  503 -0.00000000000E+00 -0.00000000000E+00 -0.96087392211E+02  0.96087392211E+02  0.00000000000E+00 0. -1.
          6    2    1    2  501    0  0.39088732923E+02 -0.58147049143E+02  0.77842267709E+02  0.20212400193E+03  0.17287476724E+03 0.  0.
         24    2    3    3    0    0  0.55546907635E+02 -0.75106542662E+02  0.10791969982E+03  0.16358521811E+03  0.79918773002E+02 0.  0.
         -6    2    1    2    0  502 -0.39088732923E+02  0.58147049143E+02  0.25358029988E+03  0.32147335008E+03  0.18475155740E+03 0.  0.
        -24    2    5    5    0    0  0.45462449402E+02  0.26836374561E+02  0.92817741512E+02  0.13709344080E+03  0.85979375813E+02 0.  0.
          5    1    3    3  501    0 -0.16458174711E+02  0.16959493518E+02 -0.30077432111E+02  0.38538783811E+02  0.47000000000E+01 0. -1.
        -11    1    4    4    0    0  0.42401798350E+02 -0.88900152582E+02  0.69021761626E+02  0.12027116533E+03  0.00000000000E+00 0.  1.
         12    1    4    4    0    0  0.13145109284E+02  0.13793609920E+02  0.38897938194E+02  0.43314052783E+02  0.00000000000E+00 0. -1.
         -5    1    5    5    0  502 -0.84551182325E+02  0.31310674582E+02  0.16076255837E+03  0.18437990928E+03  0.47000000000E+01 0.  1.
         11    1    6    6    0    0  0.20608804446E+02 -0.10962043494E+02 -0.95150738021E+01  0.25207654546E+02  0.00000000000E+00 0. -1.
        -12    1    6    6    0    0  0.24853644955E+02  0.37798418055E+02  0.10233281531E+03  0.11188578625E+03  0.00000000000E+00 0.  1.
</event>
<event>
12    1  0.8313893E-002  0.2214897E+03  0.7818608E-02  0.1133143E+00
         21   -1    0    0  501  502  0.00000000000E+00  0.00000000000E+00  0.55383107497E+03  0.55383107497E+03  0.00000000000E+00 0. -1.
         21   -1    0    0  502  503 -0.00000000000E+00 -0.00000000000E+00 -0.91285967997E+02  0.91285967997E+02  0.00000000000E+00 0.  1.
         -6    2    1    2    0  503 -0.61359091055E+01 -0.13882968124E+03  0.16916799183E+03  0.27870323453E+03  0.17247131270E+03 0.  0.
        -24    2    3    3    0    0 -0.16798611979E+02 -0.33050734031E+01  0.33035097025E+02  0.86258781224E+02  0.77821223507E+02 0.  0.
          6    2    1    2  501    0  0.61359091055E+01  0.13882968124E+03  0.29337711514E+03  0.36641380843E+03  0.16993415651E+03 0.  0.
         24    2    5    5    0    0  0.29360744908E+02  0.10254033002E+03  0.29461584584E+03  0.32305559740E+03  0.78675598325E+02 0.  0.
          5    1    5    5  501    0 -0.23224835803E+02  0.36289351218E+02 -0.12387307000E+01  0.43358211029E+02  0.47000000000E+01 0. -1.
        -13    1    6    6    0    0  0.13484660783E+02 -0.82813233723E+01  0.73841773754E+02  0.75518368258E+02  0.00000000000E+00 0.  1.
         14    1    6    6    0    0  0.15876084126E+02  0.11082165339E+03  0.22077407208E+03  0.24753722914E+03  0.00000000000E+00 0. -1.
         -5    1    3    3    0  503  0.10662702873E+02 -0.13552460783E+03  0.13613289481E+03  0.19244445331E+03  0.47000000000E+01 0.  1.
         11    1    4    4    0    0  0.22829341675E+02  0.21414460455E+02  0.22023123607E+02  0.38272391241E+02  0.00000000000E+00 0. -1.
        -12    1    4    4    0    0 -0.39627953654E+02 -0.24719533858E+02  0.11011973419E+02  0.47986389983E+02  0.00000000000E+00 0.  1.
</event>
<event>
12    1  0.8313893E-002  0.2453938E+03  0.7818608E-02  0.1116635E+00
         21   -1    0    0  501  502  0.00000000000E+00  0.00000000000E+00  0.11943619951E+03  0.11943619951E+03  0.00000000000E+00 0. -1.
         21   -1    0    0  502  503 -0.00000000000E+00 -0.00000000000E+00 -0.10839339501E+04  0.10839339501E+04  0.00000000000E+00 0.  1.
         -6    2    1    2    0  503 -0.87231420785E+02  0.14886792908E+03 -0.92304132200E+03  0.95449917433E+03  0.17115025739E+03 0.  0.
        -24    2    3    3    0    0 -0.20497444887E+02  0.81637703410E+02 -0.24535820842E+03  0.27021135534E+03  0.75687953168E+02 0.  0.
          6    2    1    2  501    0  0.87231420785E+02 -0.14886792908E+03 -0.41456428612E+02  0.24887097530E+03  0.17449110520E+03 0.  0.
         24    2    5    5    0    0  0.47685481452E+02 -0.17440796597E+03 -0.35681857582E+02  0.20120956037E+03  0.80746817204E+02 0.  0.
          5    1    5    5  501    0  0.39545939333E+02  0.25540036894E+02 -0.57745710295E+01  0.47661414927E+02  0.47000000000E+01 0. -1.
        -13    1    6    6    0    0  0.10419557087E+02 -0.80943904253E+01 -0.27587025708E+02  0.30579900485E+02  0.00000000000E+00 0.  1.
         14    1    6    6    0    0  0.37265924365E+02 -0.16631357555E+03 -0.80948318741E+01  0.17062965989E+03  0.00000000000E+00 0. -1.
         -5    1    3    3    0  503 -0.66733975898E+02  0.67230225670E+02 -0.67768311358E+03  0.68428781899E+03  0.47000000000E+01 0.  1.
         11    1    4    4    0    0  0.25760134328E+02  0.15980969037E+02 -0.95384567182E+02  0.10008592083E+03  0.00000000000E+00 0. -1.
        -12    1    4    4    0    0 -0.46257579216E+02  0.65656734373E+02 -0.14997364123E+03  0.17012543451E+03  0.00000000000E+00 0.  1.
</event>
<event>
12    1  0.8313893E-002  0.1820283E+03  0.7818608E-02  0.1166038E+00
         21   -1    0    0  501  502  0.00000000000E+00  0.00000000000E+00  0.51585205363E+03  0.51585205363E+03  0.00000000000E+00 0.  1.
         21   -1    0    0  502  503 -0.00000000000E+00 -0.00000000000E+00 -0.65242299161E+02  0.65242299161E+02  0.00000000000E+00 0.  1.
         -6    2    1    2    0  503 -0.45614033786E+02  0.38195995282E+02  0.18411463807E+03  0.25836546847E+03  0.17121606588E+03 0.  0.
        -24    2    3    3    0    0 -0.84664712952E+02  0.43481962841E+02  0.17657831268E+03  0.21797013215E+03  0.85277683408E+02 0.  0.
          6    2    1    2  501    0  0.45614033786E+02 -0.38195995282E+02  0.26649511640E+03  0.32272888432E+03  0.17203113548E+03 0.  0.
         24    2    5    5    0    0  0.78555664261E+02  0.18918395025E+02  0.15311070429E+03  0.19148361961E+03  0.81818034398E+02 0.  0.
          5    1    5    5  501    0 -0.32941630475E+02 -0.57114390307E+02  0.11338441211E+03  0.13124526471E+03  0.47000000000E+01 0. -1.
        -11    1    6    6    0    0  0.48626817098E+02  0.34273631242E+02  0.14521863121E+03  0.15693215091E+03  0.00000000000E+00 0.  1.
         12    1    6    6    0    0  0.29928847164E+02 -0.15355236217E+02  0.78920730852E+01  0.34551468701E+02  0.00000000000E+00 0. -1.
         -5    1    3    3    0  503  0.39050679166E+02 -0.52859675583E+01  0.75363253818E+01  0.40395336322E+02  0.47000000000E+01 0.  1.
         13    1    4    4    0    0  0.82662704095E+01  0.63807228969E+01  0.73768783500E+02  0.74504216460E+02  0.00000000000E+00 0. -1.
        -14    1    4    4    0    0 -0.92930983361E+02  0.37101239944E+02  0.10280952918E+03  0.14346591569E+03  0.00000000000E+00 0.  1.
</event>
<event>
12    1  0.8313893E-002  0.2218676E+03  0.7818608E-02  0.1132866E+00
         21   -1    0    0  501  502  0.00000000000E+00  0.00000000000E+00  0.24932897311E+03  0.24932897311E+03  0.00000000000E+00 0.  1.
         21   -1    0    0  502  503 -0.00000000000E+00 -0.00000000000E+00 -0.19606471415E+03  0.19606471415E+03  0.00000000000E+00 0. -1.
         -6    2    1    2    0  503 -0.10615611634E+03  0.90135972005E+02  0.16765882534E+02  0.22250021089E+03  0.17271836771E+03 0.  0.
        -24    2    3    3    0    0 -0.84223829412E+02  0.62802025434E+02 -0.55376422794E+02  0.14215861480E+03  0.78133064189E+02 0.  0.
          6    2    1    2  501    0  0.10615611634E+03 -0.90135972005E+02  0.36498376433E+02  0.22289347637E+03  0.17016390874E+03 0.  0.
         24    2    5    5    0    0  0.59185778225E+02 -0.53629502186E+02  0.88688422013E+02  0.14361658276E+03  0.79881204275E+02 0.  0.
          5    1    5    5  501    0  0.46970338118E+02 -0.36506469819E+02 -0.52190045581E+02  0.79276893603E+02  0.47000000000E+01 0. -1.
        -13    1    6    6    0    0  0.73814239909E+02 -0.59748110652E+02  0.64883667914E+02  0.11501421261E+03  0.00000000000E+00 0.  1.
         14    1    6    6    0    0 -0.14628461683E+02  0.61186084659E+01  0.23804754099E+02  0.28602370155E+02  0.00000000000E+00 0. -1.
         -5    1    3    3    0  503 -0.21932286931E+02  0.27333946571E+02  0.72142305328E+02  0.80341596095E+02  0.47000000000E+01 0.  1.
         11    1    4    4    0    0 -0.53246711532E+02 -0.20567229644E+01 -0.32791962458E+01  0.53387222500E+02  0.00000000000E+00 0. -1.
        -12    1    4    4    0    0 -0.30977117881E+02  0.64858748398E+02 -0.52097226548E+02  0.88771392295E+02  0.00000000000E+00 0.  1.
</event>
<event>
12    1  0.8313893E-002  0.1930420E+03  0.7818608E-02  0.1155907E+00
         21   -1    0    0  501  502  0.00000000000E+00  0.00000000000E+00  0.81933603594E+03  0.81933603594E+03  0.00000000000E+00 0.  1.
         21   -1    0    0  502  503 -0.00000000000E+00 -0.00000000000E+00 -0.75101031880E+02  0.75101031880E+02  0.00000000000E+00 0.  1.
         -6    2    1    2    0  503 -0.87525160884E+02 -0.15087399044E+02  0.90877110058E+02  0.21336323360E+03  0.17139701551E+03 0.  0.
        -24    2    3    3    0    0 -0.62235021553E+02 -0.69995246614E+02  0.29557236128E+02  0.12712704740E+03  0.80716315061E+02 0.  0.
          6    2    1    2  501    0  0.87525160884E+02  0.15087399044E+02  0.65335789401E+03  0.68107383422E+03  0.17057768494E+03 0.  0.
         24    2    5    5    0    0  0.29293790258E+02 -0.24845873267E+02  0.54284789527E+03  0.54984842287E+03  0.78574850752E+02 0.  0.
          5    1    5    5  501    0  0.58231370627E+02  0.39933272311E+02  0.11050999874E+03  0.13122541135E+03  0.47000000000E+01 0. -1.
        -11    1    6    6    0    0  0.50016717280E+02 -0.26792512962E+02  0.25441511369E+03  0.26066561114E+03  0.00000000000E+00 0.  1.
         12    1    6    6    0    0 -0.20722927022E+02  0.19466396946E+01  0.28843278158E+03  0.28918281173E+03  0.00000000000E+00 0. -1.
         -5    1    3    3    0  503 -0.25290139332E+02  0.54907847570E+02  0.61319873931E+02  0.86236186205E+02  0.47000000000E+01 0.  1.
         11    1    4    4    0    0 -0.25507738165E+02 -0.13910428609E+02  0.49313754307E+02  0.57236274287E+02  0.00000000000E+00 0. -1.
        -12    1    4    4    0    0 -0.36727283388E+02 -0.56084818006E+02 -0.19756518180E+02  0.69890773113E+02  0.00000000000E+00 0.  1.
</event>
<event>
12    1  0.8313893E-002  0.2387189E+03  0.7818608E-02  0.1120713E+00
         21   -1    0    0  501  502  0.00000000000E+00  0.00000000000E+00  0.12542979719E+03  0.12542979719E+03  0.00000000000E+00 0.  1.
         21   -1    0    0  502  503 -0.00000000000E+00 -0.00000000000E+00 -0.99521127879E+03  0.99521127879E+03  0.00000000000E+00 0.  1.
         -6    2    1    2    0  503 -0.55911728817E+02 -0.15565198926E+03 -0.84808330998E+03  0.88093808785E+03  0.17161862013E+03 0.  0.
        -24    2    3    3    0    0 -0.82276670861E+02 -0.89441489600E+02 -0.36900060671E+03  0.39656089288E+03  0.79560438524E+02 0.  0.
          6    2    1    2  501    0  0.55911728817E+02  0.15565198926E+03 -0.21698171621E+02  0.23970298813E+03  0.17214252433E+03 0.  0.
         24    2    5    5    0    0  0.16188386829E+02  0.36720879657E+02  0.37387350196E+02  0.10101001203E+03  0.84821705384E+02 0.  0.
          5    1    5    5  501    0  0.39723341987E+02  0.11893110960E+03 -0.59085521816E+02  0.13869297610E+03  0.47000000000E+01 0. -1.
        -13    1    6    6    0    0  0.16721162089E+02  0.63091746575E+02  0.36132855990E+02  0.74603947815E+02  0.00000000000E+00 0.  1.
         14    1    6    6    0    0 -0.53277526011E+00 -0.26370866919E+02  0.12544942056E+01  0.26406064213E+02  0.00000000000E+00 0. -1.
         -5    1    3    3    0  503  0.26364942045E+02 -0.66210499661E+02 -0.47908270327E+03  0.48437719497E+03  0.47000000000E+01 0.  1.
         13    1    4    4    0    0 -0.30929797580E+02 -0.35789113222E+01 -0.18041054730E+03  0.18307765173E+03  0.00000000000E+00 0. -1.
        -14    1    4    4    0    0 -0.51346873282E+02 -0.85862578278E+02 -0.18859005941E+03  0.21348324115E+03  0.00000000000E+00 0.  1.
</event>
<event>
12    1  0.8313893E-002  0.1817122E+03  0.7818608E-02  0.1166538E+00
         21   -1    0    0  503  502  0.00000000000E+00  0.00000000000E+00  0.46318259919E+03  0.46318259919E+03  0.00000000000E+00 0.  1.
         21   -1    0    0  501  503 -0.00000000000E+00 -0.00000000000E+00 -0.86107171956E+02  0.86107171956E+02  0.00000000000E+00 0.  1.
          6    2    1    2  501    0 -0.50098466922E+02  0.12545947271E+02  0.71552445555E+02  0.19381315512E+03  0.17255877101E+03 0.  0.
         24    2    3    3    0    0 -0.19425782062E+02  0.86485534685E+00 -0.29805490008E+02  0.87169905889E+02  0.79574595660E+02 0.  0.
         -6    2    1    2    0  502  0.50098466922E+02 -0.12545947271E+02  0.30552298168E+03  0.35547661603E+03  0.17421846924E+03 0.  0.
        -24    2    5    5    0    0  0.28028470578E+02  0.61790869949E+02  0.16928049406E+03  0.19864182217E+03  0.78733608272E+02 0.  0.
          5    1    3    3  501    0 -0.30672684859E+02  0.11681091924E+02  0.10135793556E+03  0.10664324923E+03  0.47000000000E+01 0. -1.
        -11    1    4    4    0    0  0.13265160730E+01  0.38374359384E+02 -0.86193229748E+01  0.39352812245E+02  0.00000000000E+00 0.  1.
         12    1    4    4    0    0 -0.20752298135E+02 -0.37509504037E+02 -0.21186167034E+02  0.47817093644E+02  0.00000000000E+00 0. -1.
         -5    1    5    5    0  502  0.22069996344E+02 -0.74336817219E+02  0.13624248762E+03  0.15683479386E+03  0.47000000000E+01 0.  1.
         13    1    6    6    0    0 -0.62357875486E+01  0.74330199056E+01  0.11242667872E+03  0.11284455202E+03  0.00000000000E+00 0. -1.
        -14    1    6    6    0    0  0.34264258127E+02  0.54357850043E+02  0.56853815338E+02  0.85797270148E+02  0.00000000000E+00 0.  1.
</event>
<event>
12    1  0.8313893E-002  0.2092257E+03  0.7818608E-02  0.1142314E+00
         21   -1    0    0  503  502  0.00000000000E+00  0.00000000000E+00  0.20628739737E+03  0.20628739737E+03  0.00000000000E+00 0. -1.
         21   -1    0    0  501  503 -0.00000000000E+00 -0.00000000000E+00 -0.46049030894E+03  0.46049030894E+03  0.00000000000E+00 0. -1.
          6    2    1    2  501    0 -0.87759176382E+02 -0.79613454220E+02 -0.37214395338E+03  0.42659967470E+03  0.17162804341E+03 0.  0.
         24    2    3    3    0    0  0.22470677021E+01 -0.51169827137E+02 -0.95743801357E+02  0.13448788457E+03  0.79351843553E+02 0.  0.
         -6    2    1    2    0  502  0.87759176382E+02  0.79613454220E+02  0.11794104181E+03  0.24017803161E+03  0.17243961956E+03 0.  0.
        -24    2    5    5    0    0  0.36869218487E+02 -0.87284866516E+01  0.87186850522E+01  0.90693251292E+02  0.81937321227E+02 0.  0.
          5    1    3    3  501    0 -0.90006244084E+02 -0.28443627083E+02 -0.27640015202E+03  0.29211179013E+03  0.47000000000E+01 0. -1.
        -13    1    4    4    0    0 -0.23797371153E+01 -0.70381802491E+02 -0.89249165894E+02  0.11368674014E+03  0.00000000000E+00 0.  1.
         14    1    4    4    0    0  0.46268048174E+01  0.19211975354E+02 -0.64946354628E+01  0.20801144430E+02  0.00000000000E+00 0. -1.
         -5    1    5    5    0  502  0.50889957895E+02  0.88341940872E+02  0.10922235676E+03  0.14948478032E+03  0.47000000000E+01 0.  1.
         11    1    6    6    0    0  0.58760652634E-01  0.39074462507E+01  0.40351548460E+02  0.40540338579E+02  0.00000000000E+00 0. -1.
        -12    1    6    6    0    0  0.36810457834E+02 -0.12635932902E+02 -0.31632863407E+02  0.50152912713E+02  0.00000000000E+00 0.  1.
</event>
<event>
12    1  0.8313893E-002  0.2040523E+03  0.7818608E-02  0.1148603E+00
         21   -1    0    0  501  502  0.00000000000E+00  0.00000000000E+00  0.31503283467E+02  0.31503283467E+02  0.00000000000E+00 0. -1.
         21   -1    0    0  502  503 -0.00000000000E+00 -0.00000000000E+00 -0.15061554941E+04  0.15061554941E+04  0.00000000000E+00 0. -1.
         -6    2    1    2    0  503 -0.87811929774E+02  0.89704320290E+01 -0.40648779010E+03  0.45017886002E+03  0.17215481070E+03 0.  0.
        -24    2    3    3    0    0 -0.12622991172E+03  0.21705868991E+02 -0.29216069951E+03  0.32880791484E+03  0.79697146505E+02 0.  0.
          6    2    1    2  501    0  0.87811929774E+02 -0.89704320290E+01 -0.10681644205E+04  0.10874799175E+04  0.18397265589E+03 0.  0.
         24    2    5    5    0    0  0.12829401675E+03  0.10582794492E+02 -0.68977212134E+03  0.70639731479E+03  0.81487647494E+02 0.  0.
          5    1    5    5  501    0 -0.40482086979E+02 -0.19553226521E+02 -0.37839229918E+03  0.38108260275E+03  0.47000000000E+01 0. -1.
        -11    1    6    6    0    0  0.32346818039E+02 -0.23683477683E+02 -0.97405875962E+02  0.10533341552E+03  0.00000000000E+00 0.  1.
         12    1    6    6    0    0  0.95947198714E+02  0.34266272175E+02 -0.59236624538E+03  0.60106389927E+03  0.00000000000E+00 0. -1.
         -5    1    3    3    0  503  0.38417981945E+02 -0.12735436962E+02 -0.11432709059E+03  0.12137094518E+03  0.47000000000E+01 0.  1.
         11    1    4    4    0    0 -0.24612608854E+02 -0.49154965750E+01 -0.87902416633E+01  0.26593438471E+02  0.00000000000E+00 0. -1.
        -12    1    4    4    0    0 -0.10161730287E+03  0.26621365566E+02 -0.28337045785E+03  0.30221447637E+03  0.00000000000E+00 0.  1.
</event>
<event>
12    1  0.8313893E-002  0.2279810E+03  0.7818608E-02  0.1128284E+00
         21   -1    0    0  503  502  0.00000000000E+00  0.00000000000E+00  0.21899481048E+04  0.21899481048E+04  0.00000000000E+00 0. -1.
         21   -1    0    0  501  503 -0.00000000000E+00 -0.00000000000E+00 -0.40084828121E+02  0.40084828121E+02  0.00000000000E+00 0.  1.
          6    2    1    2  501    0  0.13234089501E+03 -0.65849641844E+02  0.36174760798E+03  0.42759404199E+03  0.17356567933E+03 0.  0.
         24    2    3    3    0    0 -0.26985171029E+01 -0.42858578464E+02  0.12995469142E+03  0.15830928938E+03  0.79557963398E+02 0.  0.
         -6    2    1    2    0  502 -0.13234089501E+03  0.65849641844E+02  0.17881156687E+04  0.18024388909E+04  0.17198262434E+03 0.  0.
        -24    2    5    5    0    0 -0.16163447128E+03  0.44315142264E+02  0.16046255421E+04  0.16153224437E+04  0.79711557941E+02 0.  0.
          5    1    3    3  501    0  0.13503941211E+03 -0.22991063380E+02  0.23179291656E+03  0.26928475261E+03  0.47000000000E+01 0. -1.
        -11    1    4    4    0    0  0.61923175145E+01  0.22535700784E+02  0.24131825071E+02  0.33593862345E+02  0.00000000000E+00 0.  1.
         12    1    4    4    0    0 -0.88908346175E+01 -0.65394279248E+02  0.10582286635E+03  0.12471542703E+03  0.00000000000E+00 0. -1.
         -5    1    5    5    0  502  0.29293576272E+02  0.21534499580E+02  0.18349012660E+03  0.18711644728E+03  0.47000000000E+01 0.  1.
         13    1    6    6    0    0 -0.11495052478E+03  0.49370889346E+02  0.84095755170E+03  0.85021215683E+03  0.00000000000E+00 0. -1.
        -14    1    6    6    0    0 -0.46683946504E+02 -0.50557470827E+01  0.76366799040E+03  0.76511028683E+03  0.00000000000E+00 0.  1.
</event>
<event>
12    1  0.8313893E-002  0.1785552E+03  0.7818608E-02  0.1169659E+00
         21   -1    0    0  503  502  0.00000000000E+00  0.00000000000E+00  0.95157889252E+02  0.95157889252E+02  0.00000000000E+00 0.  1.
         21   -1    0    0  501  503 -0.00000000000E+00 -0.00000000000E+00 -0.33256198374E+03  0.33256198374E+03  0.00000000000E+00 0.  1.
          6    2    1    2  501    0  0.21689409223E+01  0.41549669149E+02 -0.10788403815E+03  0.20861669144E+03  0.17364008451E+03 0.  0.
         24    2    3    3    0    0 -0.57353410072E+02  0.12648296354E+02 -0.10294972434E+03  0.14209874597E+03  0.78383766287E+02 0.  0.
         -6    2    1    2    0  502 -0.21689409223E+01 -0.41549669149E+02 -0.12952005634E+03  0.21910318155E+03  0.17175470841E+03 0.  0.
        -24    2    5    5    0    0  0.22814106365E+02 -0.68637144335E+02 -0.29343217400E+02  0.11226043251E+03  0.80683574958E+02 0.  0.
          5    1    3    3  501    0  0.59522350994E+02  0.28901372795E+02 -0.49343138174E+01  0.66517945474E+02  0.47000000000E+01 0. -1.
        -11    1    4    4    0    0  0.40206289353E+01 -0.23440039835E+02 -0.42493047716E+02  0.48695585310E+02  0.00000000000E+00 0.  1.
         12    1    4    4    0    0 -0.61374039007E+02  0.36088336190E+02 -0.60456676621E+02  0.93403160659E+02  0.00000000000E+00 0. -1.
         -5    1    5    5    0  502 -0.24983047287E+02  0.27087475186E+02 -0.10017683894E+03  0.10684274904E+03  0.47000000000E+01 0.  1.
         13    1    6    6    0    0  0.20115826455E+02 -0.79057609415E+02 -0.45072786429E+02  0.93200365647E+02  0.00000000000E+00 0. -1.
        -14    1    6    6    0    0  0.26982799102E+01  0.10420465080E+02  0.15729569029E+02  0.19060066862E+02  0.00000000000E+00 0.  1.
</event>
<event>
12    1  0.8313893E-002  0.2574334E+03  0.7818608E-02  0.1108894E+00
         21   -1    0    0  501  502  0.00000000000E+00  0.00000000000E+00  0.15045157319E+03  0.15045157319E+03  0.00000000000E+00 0. -1.
         21   -1    0    0  502  503 -0.00000000000E+00 -0.00000000000E+00 -0.43829036636E+03  0.43829036636E+03  0.00000000000E+00 0.  1.
         -6    2    1    2    0  503 -0.17003433265E+03 -0.84081727124E+02 -0.14684188394E+03  0.29636888681E+03  0.17404185437E+03 0.  0.
        -24    2    3    3    0    0 -0.27172579819E+02 -0.30754475698E+02 -0.44227060779E+01  0.87661943008E+02  0.77336078601E+02 0.  0.
          6    2    1    2  501    0  0.17003433265E+03  0.84081727124E+02 -0.14099690924E+03  0.29237305274E+03  0.17210596281E+03 0.  0.
         24    2    5    5    0    0  0.48082216627E+02 -0.27105245340E+02 -0.63349839060E+02  0.10992848868E+03  0.70883542751E+02 0.  0.
          5    1    5    5  501    0  0.12195211603E+03  0.11118697246E+03 -0.77647070177E+02  0.18244456406E+03  0.47000000000E+01 0. -1.
        -11    1    6    6    0    0 -0.98567111689E+01 -0.27323373057E+02 -0.88002890271E+01  0.30350725810E+02  0.00000000000E+00 0.  1.
         12    1    6    6    0    0  0.57938927796E+02  0.21812771676E+00 -0.54549550033E+02  0.79577762865E+02  0.00000000000E+00 0. -1.
         -5    1    3    3    0  503 -0.14286175284E+03 -0.53327251425E+02 -0.14241917786E+03  0.20870694380E+03  0.47000000000E+01 0.  1.
         13    1    4    4    0    0  0.12059250041E+02 -0.24008608146E+02 -0.30057135164E+02  0.40314639412E+02  0.00000000000E+00 0. -1.
        -14    1    4    4    0    0 -0.39231829860E+02 -0.67458675519E+01  0.25634429086E+02  0.47347303596E+02  0.00000000000E+00 0.  1.
</event>
<event>
12    1  0.8313893E-002  0.2008098E+03  0.7818608E-02  0.1149068E+00
         21   -1    0    0  501  502  0.00000000000E+00  0.00000000000E+00  0.22708862743E+03  0.22708862743E+03  0.00000000000E+00 0. -1.
         21   -1    0    0  502  503 -0.00000000000E+00 -0.00000000000E+00 -0.28726559482E+03  0.28726559482E+03  0.00000000000E+00 0. -1.
         -6    2    1    2    0  503 -0.14526480815E+02  0.10163309086E+03 -0.18904463014E+03  0.27579422703E+03  0.17258122631E+03 0.  0.
        -24    2    3    3    0    0  0.27301341867E+02  0.12454601768E+03 -0.12394042260E+03  0.19495353922E+03  0.79928595078E+02 0.  0.
          6    2    1    2  501    0  0.14526480815E+02 -0.10163309086E+03  0.12886766275E+03  0.23855999522E+03  0.17252157261E+03 0.  0.
         24    2    5    5    0    0 -0.50950885238E+02 -0.90553825398E+02  0.61785725465E+02  0.14405014443E+03  0.78338880751E+02 0.  0.
          5    1    5    5  501    0  0.65477366053E+02 -0.11079265465E+02  0.67081937282E+02  0.94509850798E+02  0.47000000000E+01 0. -1.
        -11    1    6    6    0    0 -0.37870522510E+02  0.65744958825E+00  0.20662747364E+02  0.43145774345E+02  0.00000000000E+00 0.  1.
         12    1    6    6    0    0 -0.13080362728E+02 -0.91211274986E+02  0.41122978101E+02  0.10090437008E+03  0.00000000000E+00 0. -1.
         -5    1    3    3    0  503 -0.41827822682E+02 -0.22912926821E+02 -0.65104207536E+02  0.80840687805E+02  0.47000000000E+01 0.  1.
         13    1    4    4    0    0 -0.24364678437E+02  0.63716781103E+02 -0.39777275206E+02  0.78966431934E+02  0.00000000000E+00 0. -1.
        -14    1    4    4    0    0  0.51666020304E+02  0.60829236581E+02 -0.84163147399E+02  0.11598710729E+03  0.00000000000E+00 0.  1.
</event>
<event>
12    1  0.8313893E-002  0.1933928E+03  0.7818608E-02  0.1155528E+00
         21   -1    0    0  501  502  0.00000000000E+00  0.00000000000E+00  0.19222115781E+03  0.19222115781E+03  0.00000000000E+00 0.  1.
         21   -1    0    0  502  503 -0.00000000000E+00 -0.00000000000E+00 -0.21522689654E+03  0.21522689654E+03  0.00000000000E+00 0. -1.
         -6    2    1    2    0  503  0.78149093371E+02  0.40090802227E+02 -0.75239111288E+02  0.20712552279E+03  0.17182987256E+03 0.  0.
        -24    2    3    3    0    0 -0.14362765605E+02  0.54994047813E+02 -0.28144396151E+02  0.10214670124E+03  0.80070014417E+02 0.  0.
          6    2    1    2  501    0 -0.78149093371E+02 -0.40090802227E+02  0.52233372558E+02  0.20032253156E+03  0.17229694781E+03 0.  0.
         24    2    5    5    0    0  0.10779531314E+01 -0.51491124739E+02 -0.12967283539E+02  0.96977924507E+02  0.81142279297E+02 0.  0.
          5    1    5    5  501    0 -0.79227046502E+02  0.11400322512E+02  0.65200656097E+02  0.10334460705E+03  0.47000000000E+01 0. -1.
        -11    1    6    6    0    0 -0.11669253373E+02 -0.61025388603E+02  0.15792458550E+02  0.64106717865E+02  0.00000000000E+00 0.  1.
         12    1    6    6    0    0  0.12747206504E+02  0.95342638632E+01 -0.28759742089E+02  0.32871206642E+02  0.00000000000E+00 0. -1.
         -5    1    3    3    0  503  0.92511858976E+02 -0.14903245586E+02 -0.47094715137E+02  0.10497882155E+03  0.47000000000E+01 0.  1.
         11    1    4    4    0    0 -0.11072057450E+02 -0.18962707263E+02  0.23463941163E+01  0.22083484514E+02  0.00000000000E+00 0. -1.
        -12    1    4    4    0    0 -0.32907081549E+01  0.73956755075E+02 -0.30490790267E+02  0.80063216726E+02  0.00000000000E+00 0.  1.
</event>
<event>
12    1  0.8313893E-002  0.2111597E+03  0.7818608E-02  0.1141303E+00
         21   -1    0    0  501  502  0.00000000000E+00  0.00000000000E+00  0.73225394721E+03  0.73225394721E+03  0.00000000000E+00 0. -1.
         21   -1    0    0  502  503 -0.00000000000E+00 -0.00000000000E+00 -0.60779810665E+02  0.60779810665E+02  0.00000000000E+00 0. -1.
         -6    2    1    2    0  503  0.11790232090E+03  0.35227463268E+02  0.37955621564E+03  0.43274986445E+03  0.16753385601E+03 0.  0.
        -24    2    3    3    0    0  0.23239675123E+02  0.64446017800E+02  0.25142283292E+03  0.27071593529E+03  0.73350562314E+02 0.  0.
          6    2    1    2  501    0 -0.11790232090E+03 -0.35227463268E+02  0.29191792090E+03  0.36028389342E+03  0.17159976654E+03 0.  0.
         24    2    5    5    0    0  0.21513097373E+02 -0.12793321275E+02  0.88353141303E+02  0.11249232966E+03  0.64975104667E+02 0.  0.
          5    1    5    5  501    0 -0.13941541827E+03 -0.22434141993E+02  0.20356477960E+03  0.24779156376E+03  0.47000000000E+01 0. -1.
        -11    1    6    6    0    0 -0.57002918564E+01  0.18760177799E+02  0.65216807503E+01  0.20663250424E+02  0.00000000000E+00 0.  1.
         12    1    6    6    0    0  0.27213389230E+02 -0.31553499074E+02  0.81831460553E+02  0.91829079236E+02  0.00000000000E+00 0. -1.
         -5    1    3    3    0  503  0.94662645775E+02 -0.29218554532E+02  0.12813338272E+03  0.16203392916E+03  0.47000000000E+01 0.  1.
         13    1    4    4    0    0  0.23592052041E+02  0.22606714722E+01  0.14914823643E+03  0.15101950862E+03  0.00000000000E+00 0. -1.
        -14    1    4    4    0    0 -0.35237691740E+00  0.62185346328E+02  0.10227459650E+03  0.11969642666E+03  0.00000000000E+00 0.  1.
</event>
<event>
12    1  0.8313893E-002  0.2495928E+03  0.7818608E-02  0.1113786E+00
         21   -1    0    0  503  502  0.00000000000E+00  0.00000000000E+00  0.63215009672E+03  0.63215009672E+03  0.00000000000E+00 0.  1.
         21   -1    0    0  501  503 -0.00000000000E+00 -0.00000000000E+00 -0.98998929536E+02  0.98998929536E+02  0.00000000000E+00 0. -1.
          6    2    1    2  501    0 -0.14520111166E+02 -0.17438566990E+03  0.30417649296E+03  0.39347161267E+03  0.17797577255E+03 0.  0.
         24    2    3    3    0    0  0.44709508016E+02 -0.16484809972E+03  0.21728245793E+03  0.28777498852E+03  0.80180679742E+02 0.  0.
         -6    2    1    2    0  502  0.14520111166E+02  0.17438566990E+03  0.22897467423E+03  0.33767741359E+03  0.17599840544E+03 0.  0.
        -24    2    5    5    0    0  0.58228348326E+02  0.14713340783E+03  0.10985449268E+03  0.20781285555E+03  0.77970463120E+02 0.  0.
          5    1    3    3  501    0 -0.59229619182E+02 -0.95375701745E+01  0.86894035028E+02  0.10569662415E+03  0.47000000000E+01 0. -1.
        -11    1    4    4    0    0  0.24039457284E+02 -0.26468711795E+02  0.96595763886E+02  0.10300111558E+03  0.00000000000E+00 0.  1.
         12    1    4    4    0    0  0.20670050732E+02 -0.13837938793E+03  0.12068669404E+03  0.18477387293E+03  0.00000000000E+00 0. -1.
         -5    1    5    5    0  502 -0.43708237160E+02  0.27252262063E+02  0.11912018155E+03  0.12986455805E+03  0.47000000000E+01 0.  1.
         13    1    6    6    0    0  0.28767295629E+02  0.13066030122E+03  0.11129341013E+03  0.17402843086E+03  0.00000000000E+00 0. -1.
        -14    1    6    6    0    0  0.29461052697E+02  0.16473106618E+02 -0.14389174480E+01  0.33784424682E+02  0.00000000000E+00 0.  1.
</event>
<event>
12    1  0.8313893E-002  0.2186062E+03  0.7818608E-02  0.1135005E+00
         21   -1    0    0  503  502  0.00000000000E+00  0.00000000000E+00  0.13223946700E+03  0.13223946700E+03  0.00000000000E+00 0. -1.
         21   -1    0    0  501  503 -0.00000000000E+00 -0.00000000000E+00 -0.40350686441E+03  0.40350686441E+03  0.00000000000E+00 0.  1.
          6    2    1    2  501    0  0.46203329341E+01  0.13519985835E+03 -0.22277678682E+03  0.31182672926E+03  0.17119013746E+03 0.  0.
         24    2    3    3    0    0 -0.93668126015E+01  0.76667057356E+02 -0.22522756914E+03  0.25141294469E+03  0.80718250686E+02 0.  0.
         -6    2    1    2    0  502 -0.46203329341E+01 -0.13519985835E+03 -0.48490610585E+02  0.22391960214E+03  0.17172157621E+03 0.  0.
        -24    2    5    5    0    0 -0.22605163901E+02 -0.15600662207E+03 -0.68748848051E+02  0.18943972763E+03  0.79447761031E+02 0.  0.
          5    1    3    3  501    0  0.13987145536E+02  0.58532800997E+02  0.24507823218E+01  0.60413784576E+02  0.47000000000E+01 0. -1.
        -13    1    4    4    0    0 -0.86095507990E+01  0.21576663427E+02 -0.17600666989E+03  0.17753316483E+03  0.00000000000E+00 0.  1.
         14    1    4    4    0    0 -0.75726180249E+00  0.55090393929E+02 -0.49220899255E+02  0.73879779860E+02  0.00000000000E+00 0. -1.
         -5    1    5    5    0  502  0.17984830967E+02  0.20806763714E+02  0.20258237467E+02  0.34479874513E+02  0.47000000000E+01 0.  1.
         13    1    6    6    0    0  0.10992252261E+02 -0.31051069263E+02  0.14062490216E+02  0.35815529358E+02  0.00000000000E+00 0. -1.
        -14    1    6    6    0    0 -0.33597416161E+02 -0.12495555280E+03 -0.82811338268E+02  0.15362419827E+03  0.00000000000E+00 0.  1.
</event>
<event>
12    1  0.8313893E-002  0.4209643E+03  0.7818608E-02  0.1036764E+00
         21   -1    0    0  503  502  0.00000000000E+00  0.00000000000E+00  0.18716784322E+03  0.18716784322E+03  0.00000000000E+00 0.  1.
         21   -1    0    0  501  503 -0.00000000000E+00 -0.00000000000E+00 -0.11942334499E+04  0.11942334499E+04  0.00000000000E+00 0. -1.
          6    2    1    2  501    0  0.10939502482E+03 -0.36818535971E+03 -0.81818687342E+03  0.92013080952E+03  0.17228817787E+03 0.  0.
         24    2    3    3    0    0 -0.12679292784E+02 -0.12113573096E+03 -0.28498280847E+03  0.31991058080E+03  0.79328108543E+02 0.  0.
         -6    2    1    2    0  502 -0.10939502482E+03  0.36818535971E+03 -0.18887873329E+03  0.46127048362E+03  0.17195218118E+03 0.  0.
        -24    2    5    5    0    0 -0.44670984152E+02  0.16851259355E+03 -0.15997557341E+03  0.24933677315E+03  0.78642554289E+02 0.  0.
          5    1    3    3  501    0  0.12207431761E+03 -0.24704962874E+03 -0.53320406495E+03  0.60022022872E+03  0.47000000000E+01 0. -1.
        -13    1    4    4    0    0  0.22702526974E+02 -0.43904521835E+01 -0.38982727005E+02  0.45324759306E+02  0.00000000000E+00 0.  1.
         14    1    4    4    0    0 -0.35381819758E+02 -0.11674527878E+03 -0.24600008146E+03  0.27458582150E+03  0.00000000000E+00 0. -1.
         -5    1    5    5    0  502 -0.64724040671E+02  0.19967276615E+03 -0.28903159879E+02  0.21193371047E+03  0.47000000000E+01 0.  1.
         13    1    6    6    0    0 -0.35929753370E+01  0.14232569514E+03 -0.12362658623E+03  0.18855515318E+03  0.00000000000E+00 0. -1.
        -14    1    6    6    0    0 -0.41078008815E+02  0.26186898416E+02 -0.36348987176E+02  0.60781619965E+02  0.00000000000E+00 0.  1.
</event>
<event>
12    1  0.8313893E-002  0.1985869E+03  0.7818608E-02  0.1151297E+00
         21   -1    0    0  503  502  0.00000000000E+00  0.00000000000E+00  0.22390255566E+03  0.22390255566E+03  0.00000000000E+00 0. -1.
         21   -1    0    0  501  503 -0.00000000000E+00 -0.00000000000E+00 -0.27497730704E+03  0.27497730704E+03  0.00000000000E+00 0.  1.
          6    2    1    2  501    0  0.12771812438E+02  0.99666685207E+02 -0.17614391709E+03  0.26419060226E+03  0.16933229894E+03 0.  0.
         24    2    3    3    0    0  0.50537821829E+02  0.18734511605E+02 -0.13507136517E+03  0.16577651430E+03  0.79577167857E+02 0.  0.
         -6    2    1    2    0  502 -0.12771812438E+02 -0.99666685207E+02  0.12506916570E+03  0.23468926043E+03  0.17128977032E+03 0.  0.
        -24    2    5    5    0    0  0.11502629378E+01 -0.99853036616E+01  0.15016563597E+02  0.91964912089E+02  0.90172160222E+02 0.  0.
          5    1    3    3  501    0 -0.37766009391E+02  0.80932173602E+02 -0.41072551917E+02  0.98414087966E+02  0.47000000000E+01 0. -1.
        -11    1    4    4    0    0 -0.45068134352E+01 -0.24077268853E+02 -0.50777824315E+02  0.56377421766E+02  0.00000000000E+00 0.  1.
         12    1    4    4    0    0  0.55044635264E+02  0.42811780458E+02 -0.84293540854E+02  0.10939909253E+03  0.00000000000E+00 0. -1.
         -5    1    5    5    0  502 -0.13922075376E+02 -0.89681381545E+02  0.11005260211E+03  0.14272434834E+03  0.47000000000E+01 0.  1.
         13    1    6    6    0    0 -0.42023332158E+02 -0.10301371200E+02  0.21485136441E+02  0.48308278609E+02  0.00000000000E+00 0. -1.
        -14    1    6    6    0    0  0.43173595096E+02  0.31606753823E+00 -0.64685728440E+01  0.43656633480E+02  0.00000000000E+00 0.  1.
</event>
<event>
12    1  0.8313893E-002  0.2545466E+03  0.7818608E-02  0.1110620E+00
         21   -1    0    0  501  502  0.00000000000E+00  0.00000000000E+00  0.12671835297E+04  0.12671835297E+04  0.00000000000E+00 0.  1.
         21   -1    0    0  502  503 -0.00000000000E+00 -0.00000000000E+00 -0.69239761304E+02  0.69239761304E+02  0.00000000000E+00 0.  1.
         -6    2    1    2    0  503 -0.17664027317E+03  0.59685167777E+02  0.25623176714E+03  0.36117683072E+03  0.17329131310E+03 0.  0.
        -24    2    3    3    0    0 -0.56324259645E+02  0.77631522007E+01  0.19089910792E+03  0.21467671067E+03  0.80068295498E+02 0.  0.
          6    2    1    2  501    0  0.17664027317E+03 -0.59685167777E+02  0.94171200124E+03  0.97524646027E+03  0.17181402630E+03 0.  0.
         24    2    5    5    0    0  0.13200203982E+03  0.20016868086E+02  0.69084970081E+03  0.70822779019E+03  0.80548619831E+02 0.  0.
          5    1    5    5  501    0  0.44638233351E+02 -0.79702035863E+02  0.25086230043E+03  0.26701867008E+03  0.47000000000E+01 0. -1.
        -13    1    6    6    0    0  0.11927814461E+03  0.61222169658E+00  0.42661874404E+03  0.44297991304E+03  0.00000000000E+00 0.  1.
         14    1    6    6    0    0  0.12723895213E+02  0.19404646390E+02  0.26423095678E+03  0.26524787715E+03  0.00000000000E+00 0. -1.
         -5    1    3    3    0  503 -0.12031601353E+03  0.51922015576E+02  0.65332659219E+02  0.14650012004E+03  0.47000000000E+01 0.  1.
         13    1    4    4    0    0 -0.41752807502E+02  0.40324087420E+02  0.84983759698E+02  0.10291534566E+03  0.00000000000E+00 0. -1.
        -14    1    4    4    0    0 -0.14571452144E+02 -0.32560935219E+02  0.10591534822E+03  0.11176136501E+03  0.00000000000E+00 0.  1.
</event>
<event>
12    1  0.8313893E-002  0.1807274E+03  0.7818608E-02  0.1167370E+00
         21   -1    0    0  503  502  0.00000000000E+00  0.00000000000E+00  0.10530256610E+03  0.10530256610E+03  0.00000000000E+00 0. -1.
         21   -1    0    0  501  503 -0.00000000000E+00 -0.00000000000E+00 -0.31202107961E+03  0.31202107961E+03  0.00000000000E+00 0. -1.
          6    2    1    2  501    0  0.23723563722E+02  0.43360319734E+02 -0.12593269124E+03  0.21936219310E+03  0.17267832590E+03 0.  0.
         24    2    3    3    0    0 -0.12157858639E+02  0.87377381523E+01  0.30051844573E+01  0.81039145800E+02  0.79587376032E+02 0.  0.
         -6    2    1    2    0  502 -0.23723563722E+02 -0.43360319734E+02 -0.80785822271E+02  0.19796145261E+03  0.17383746097E+03 0.  0.
        -24    2    5    5    0    0 -0.44211322069E+02  0.31180642498E+02 -0.72560148288E+02  0.12007785354E+03  0.78910343585E+02 0.  0.
          5    1    3    3  501    0  0.35881422361E+02  0.34622581582E+02 -0.12893787569E+03  0.13832304730E+03  0.47000000000E+01 0. -1.
        -13    1    4    4    0    0 -0.20326175622E+02 -0.31906993751E+02  0.96744162624E+01  0.39048738720E+02  0.00000000000E+00 0.  1.
         14    1    4    4    0    0  0.81683169827E+01  0.40644731903E+02 -0.66692318051E+01  0.41990407079E+02  0.00000000000E+00 0. -1.
         -5    1    5    5    0  502  0.20487758347E+02 -0.74540962232E+02 -0.82256739826E+01  0.77883599076E+02  0.47000000000E+01 0.  1.
         11    1    6    6    0    0  0.83889897871E+01 -0.20339815901E+02 -0.18257330129E+02  0.28590441829E+02  0.00000000000E+00 0. -1.
        -12    1    6    6    0    0 -0.52600311856E+02  0.51520458398E+02 -0.54302818159E+02  0.91487411707E+02  0.00000000000E+00 0.  1.
</event>
<event>
12    1  0.8313893E-002  0.1998871E+03  0.7818608E-02  0.1150249E+00
         21   -1    0    0  503  502  0.00000000000E+00  0.00000000000E+00  0.35790108345E+03  0.35790108345E+03  0.00000000000E+00 0. -1.
         21   -1    0    0  501  503 -0.00000000000E+00 -0.00000000000E+00 -0.12411696652E+03  0.12411696652E+03  0.00000000000E+00 0. -1.
          6    2    1    2  501    0  0.97957936761E+02  0.12238901086E+02  0.36692317581E+02  0.20130461075E+03  0.17155661475E+03 0.  0.
         24    2    3    3    0    0 -0.84848325675E+01 -0.13897800203E+02  0.45325920358E+02  0.91259986194E+02  0.77516480762E+02 0.  0.
         -6    2    1    2    0  502 -0.97957936761E+02 -0.12238901086E+02  0.19709179935E+03  0.28071343923E+03  0.17380825504E+03 0.  0.
        -24    2    5    5    0    0 -0.41470284517E+02  0.44547583323E+02  0.48299925295E+02  0.11166708034E+03  0.80202134456E+02 0.  0.
          5    1    3    3  501    0  0.10644276933E+03  0.26136701289E+02 -0.86336027767E+01  0.11004462455E+03  0.47000000000E+01 0. -1.
        -11    1    4    4    0    0  0.66113646609E+01  0.20407163511E+02  0.49109166862E+02  0.53589856644E+02  0.00000000000E+00 0.  1.
         12    1    4    4    0    0 -0.15096197228E+02 -0.34304963714E+02 -0.37832465044E+01  0.37670129550E+02  0.00000000000E+00 0. -1.
         -5    1    5    5    0  502 -0.56487652244E+02 -0.56786484409E+02  0.14879187405E+03  0.16904635888E+03  0.47000000000E+01 0.  1.
         11    1    6    6    0    0 -0.65026518715E+02  0.38113906564E+02  0.42648541386E+02  0.86602633287E+02  0.00000000000E+00 0. -1.
        -12    1    6    6    0    0  0.23556234198E+02  0.64336767589E+01  0.56513839092E+01  0.25064447058E+02  0.00000000000E+00 0.  1.
</event>
<event>
12    1  0.8313893E-002  0.2060313E+03  0.7818608E-02  0.1146418E+00
         21   -1    0    0  503  502  0.00000000000E+00  0.00000000000E+00  0.89724888865E+03  0.89724888865E+03  0.00000000000E+00 0. -1.
         21   -1    0    0  501  503 -0.00000000000E+00 -0.00000000000E+00 -0.55046233538E+02  0.55046233538E+02  0.00000000000E+00 0.  1.
          6    2    1    2  501    0  0.10894567752E+03  0.22099444676E+02  0.21567851936E+03  0.29276393781E+03  0.16381682901E+03 0.  0.
         24    2    3    3    0    0 -0.43773640750E+01  0.21774078260E+02  0.10836378849E+03  0.13662054512E+03  0.80182235524E+02 0.  0.
         -6    2    1    2    0  502 -0.10894567752E+03 -0.22099444676E+02  0.62652413575E+03  0.65953118438E+03  0.17346856885E+03 0.  0.
        -24    2    5    5    0    0 -0.92091121958E+02 -0.40084869595E+02  0.23974968823E+03  0.27194362677E+03  0.79911523708E+02 0.  0.
          5    1    3    3  501    0  0.11332304159E+03  0.32536641613E+00  0.10731473088E+03  0.15614339270E+03  0.47000000000E+01 0. -1.
        -13    1    4    4    0    0  0.19352552897E+02  0.11516730684E+02 -0.26141250403E+01  0.22671348416E+02  0.00000000000E+00 0.  1.
         14    1    4    4    0    0 -0.23729916973E+02  0.10257347576E+02  0.11097791353E+03  0.11394919670E+03  0.00000000000E+00 0. -1.
         -5    1    5    5    0  502 -0.16854555560E+02  0.17985424919E+02  0.38677444753E+03  0.38758755761E+03  0.47000000000E+01 0.  1.
         11    1    6    6    0    0 -0.40328089014E+02  0.23006729042E+02  0.96196949768E+02  0.10681534295E+03  0.00000000000E+00 0. -1.
        -12    1    6    6    0    0 -0.51763032944E+02 -0.63091598637E+02  0.14355273846E+03  0.16512828382E+03  0.00000000000E+00 0.  1.
</event>
<event>
12    1  0.8313893E-002  0.2477196E+03  0.7818608E-02  0.1115068E+00
         21   -1    0    0  503  502  0.00000000000E+00  0.00000000000E+00  0.10301681791E+04  0.10301681791E+04  0.00000000000E+00 0. -1.
         21   -1    0    0  501  503 -0.00000000000E+00 -0.00000000000E+00 -0.14177807126E+03  0.14177807126E+03  0.00000000000E+00 0. -1.
          6    2    1    2  501    0 -0.29841110335E+02 -0.17301034897E+03 -0.25474041225E+01  0.24773270142E+03  0.17476249417E+03 0.  0.
         24    2    3    3    0    0 -0.63079362233E+02 -0.12232385182E+03 -0.61724478064E+02  0.16289215414E+03  0.61496439122E+02 0.  0.
         -6    2    1    2    0  502  0.29841110335E+02  0.17301034897E+03  0.89093751198E+03  0.92421354895E+03  0.17198244415E+03 0.  0.
        -24    2    5    5    0    0 -0.24954450852E+01  0.13532112672E+02  0.34986533188E+03  0.35918243942E+03  0.80105736445E+02 0.  0.
          5    1    3    3  501    0  0.33238251898E+02 -0.50686497152E+02  0.59177073942E+02  0.84840547282E+02  0.47000000000E+01 0. -1.
        -11    1    4    4    0    0 -0.28775633104E+02 -0.17660973248E+02  0.49773911205E+01  0.34128015750E+02  0.00000000000E+00 0.  1.
         12    1    4    4    0    0 -0.34303729128E+02 -0.10466287857E+03 -0.66701869184E+02  0.12876413839E+03  0.00000000000E+00 0. -1.
         -5    1    5    5    0  502  0.32336555420E+02  0.15947823630E+03  0.54107218009E+03  0.56503110953E+03  0.47000000000E+01 0.  1.
         13    1    6    6    0    0 -0.28261039977E+01  0.44961535923E+02  0.26244255510E+03  0.26628109453E+03  0.00000000000E+00 0. -1.
        -14    1    6    6    0    0  0.33065891244E+00 -0.31429423251E+02  0.87422776781E+02  0.92901344884E+02  0.00000000000E+00 0.  1.
</event>
<event>
12    1  0.8313893E-002  0.1754155E+03  0.7818608E-02  0.1172430E+00
         21   -1    0    0  501  502  0.00000000000E+00  0.00000000000E+00  0.82513635323E+03  0.82513635323E+03  0.00000000000E+00 0.  1.
         21   -1    0    0  502  503 -0.00000000000E+00 -0.00000000000E+00 -0.83992085897E+02  0.83992085897E+02  0.00000000000E+00 0.  1.
         -6    2    1    2    0  503 -0.35982934542E+02 -0.88743711680E+01  0.31050924582E+02  0.17768933325E+03  0.17098483322E+03 0.  0.
        -24    2    3    3    0    0 -0.20882804254E+02 -0.58625348678E+02 -0.22342507799E+02  0.10301589541E+03  0.78994075927E+02 0.  0.
          6    2    1    2  501    0  0.35982934542E+02  0.88743711680E+01  0.71009334275E+03  0.73143910587E+03  0.17145577896E+03 0.  0.
         24    2    5    5    0    0  0.63232073409E+02 -0.25959869867E+02  0.24056703700E+03  0.25981109387E+03  0.70406642115E+02 0.  0.
          5    1    5    5  501    0 -0.27249138867E+02  0.34834241035E+02  0.46952630575E+03  0.47162801200E+03  0.47000000000E+01 0. -1.
        -13    1    6    6    0    0  0.12497197739E+02  0.13090514973E+02  0.13601536703E+03  0.13721414505E+03  0.00000000000E+00 0.  1.
         14    1    6    6    0    0  0.50734875670E+02 -0.39050384840E+02  0.10455166997E+03  0.12259694882E+03  0.00000000000E+00 0. -1.
         -5    1    3    3    0  503 -0.15100130288E+02  0.49750977510E+02  0.53393432380E+02  0.74673437843E+02  0.47000000000E+01 0.  1.
         11    1    4    4    0    0 -0.43230825330E+02 -0.39517178048E+02  0.98758441894E+01  0.59397339317E+02  0.00000000000E+00 0. -1.
        -12    1    4    4    0    0  0.22348021076E+02 -0.19108170630E+02 -0.32218351988E+02  0.43618556093E+02  0.00000000000E+00 0.  1.
</event>
<event>
12    1  0.8313893E-002  0.2082215E+03  0.7818608E-02  0.1143166E+00
         21   -1    0    0  503  502  0.00000000000E+00  0.00000000000E+00  0.33213331400E+03  0.33213331400E+03  0.00000000000E+00 0.  1.
         21   -1    0    0  501  503 -0.00000000000E+00 -0.00000000000E+00 -0.13401540054E+03  0.13401540054E+03  0.00000000000E+00 0.  1.
          6    2    1    2  501    0 -0.16398357776E+02  0.11507015958E+03  0.58743803991E+02  0.21634933177E+03  0.17276038634E+03 0.  0.
         24    2    3    3    0    0  0.27243655106E+02  0.12068906833E+03  0.51957731930E+01  0.14688222426E+03  0.78989390340E+02 0.  0.
         -6    2    1    2    0  502  0.16398357776E+02 -0.11507015958E+03  0.13937410947E+03  0.24979938277E+03  0.17165238559E+03 0.  0.
        -24    2    5    5    0    0  0.16275447952E+01 -0.13606364688E+02  0.40846188049E+01  0.79980612097E+02  0.78692008098E+02 0.  0.
          5    1    3    3  501    0 -0.43642012882E+02 -0.56189087501E+01  0.53548030798E+02  0.69467107513E+02  0.47000000000E+01 0. -1.
        -11    1    4    4    0    0 -0.17517942438E+02  0.55296091397E+02  0.28016502385E+02  0.64416305676E+02  0.00000000000E+00 0.  1.
         12    1    4    4    0    0  0.44761597544E+02  0.65392976930E+02 -0.22820729192E+02  0.82465918580E+02  0.00000000000E+00 0. -1.
         -5    1    5    5    0  502  0.14770812981E+02 -0.10146379489E+03  0.13528949066E+03  0.16981877067E+03  0.47000000000E+01 0.  1.
         11    1    6    6    0    0 -0.14898768287E+02  0.29505420351E+02  0.67387194944E+01  0.33733565880E+02  0.00000000000E+00 0. -1.
        -12    1    6    6    0    0  0.16526313082E+02 -0.43111785039E+02 -0.26541006895E+01  0.46247046217E+02  0.00000000000E+00 0.  1.
</event>
<event>
12    1  0.8313893E-002  0.2012307E+03  0.7818608E-02  0.1149140E+00
         21   -1    0    0  503  502  0.00000000000E+00  0.00000000000E+00  0.10073219593E+03  0.10073219593E+03  0.00000000000E+00 0. -1.
         21   -1    0    0  501  503 -0.00000000000E+00 -0.00000000000E+00 -0.39888490992E+03  0.39888490992E+03  0.00000000000E+00 0. -1.
          6    2    1    2  501    0  0.90102142994E+02 -0.49292716902E+02 -0.16088155825E+03  0.25602492042E+03  0.17063913965E+03 0.  0.
         24    2    3    3    0    0  0.55130774352E+01 -0.74044802205E+02 -0.66825299365E+02  0.12704179914E+03  0.78491855236E+02 0.  0.
         -6    2    1    2    0  502 -0.90102142994E+02  0.49292716902E+02 -0.13727115573E+03  0.24359218542E+03  0.17304801210E+03 0.  0.
        -24    2    5    5    0    0  0.13657191174E+02 -0.76346234494E+01 -0.41483406581E+02  0.91263250567E+02  0.79770304854E+02 0.  0.
          5    1    3    3  501    0  0.84589065558E+02  0.24752085303E+02 -0.94056258889E+02  0.12898312128E+03  0.47000000000E+01 0. -1.
        -11    1    4    4    0    0 -0.15793898828E+01  0.11324202919E+02  0.74626289241E+01  0.13653676231E+02  0.00000000000E+00 0.  1.
         12    1    4    4    0    0  0.70924673180E+01 -0.85369005124E+02 -0.74287928290E+02  0.11338812291E+03  0.00000000000E+00 0. -1.
         -5    1    5    5    0  502 -0.10375933417E+03  0.56927340351E+02 -0.95787749151E+02  0.15232893485E+03  0.47000000000E+01 0.  1.
         11    1    6    6    0    0 -0.17981131286E+02  0.28143902863E+02 -0.14524908748E+02  0.36419408628E+02  0.00000000000E+00 0. -1.
        -12    1    6    6    0    0  0.31638322460E+02 -0.35778526313E+02 -0.26958497833E+02  0.54843841939E+02  0.00000000000E+00 0.  1.
</event>
<event>
12    1  0.8313893E-002  0.2122733E+03  0.7818608E-02  0.1139888E+00
         21   -1    0    0  501  502  0.00000000000E+00  0.00000000000E+00  0.10336175121E+04  0.10336175121E+04  0.00000000000E+00 0. -1.
         21   -1    0    0  502  503 -0.00000000000E+00 -0.00000000000E+00 -0.45085972251E+02  0.45085972251E+02  0.00000000000E+00 0.  1.
         -6    2    1    2    0  503 -0.61287378542E+02  0.10901441685E+03  0.59545557647E+03  0.63197239724E+03  0.17082588059E+03 0.  0.
        -24    2    3    3    0    0 -0.10027479439E+03  0.10632402978E+03  0.53142866036E+03  0.55681394620E+03  0.79155012016E+02 0.  0.
          6    2    1    2  501    0  0.61287378542E+02 -0.10901441685E+03  0.39307596340E+03  0.44673108712E+03  0.17152161774E+03 0.  0.
         24    2    5    5    0    0  0.12490277688E+02 -0.50628002098E+02  0.79187693725E+02  0.12371705288E+03  0.79473371031E+02 0.  0.
          5    1    5    5  501    0  0.48797100854E+02 -0.58386414755E+02  0.31388826967E+03  0.32301403424E+03  0.47000000000E+01 0. -1.
        -11    1    6    6    0    0 -0.52092354786E+01  0.15030553660E+02 -0.38706390559E+01  0.16371790504E+02  0.00000000000E+00 0.  1.
         12    1    6    6    0    0  0.17699513167E+02 -0.65658555758E+02  0.83058332781E+02  0.10734526238E+03  0.00000000000E+00 0. -1.
         -5    1    3    3    0  503  0.38987415853E+02  0.26903870722E+01  0.64026916105E+02  0.75158451044E+02  0.47000000000E+01 0.  1.
         11    1    4    4    0    0 -0.41102283108E+02  0.71192894586E+02  0.40105320221E+03  0.40939161804E+03  0.00000000000E+00 0. -1.
        -12    1    4    4    0    0 -0.59172511287E+02  0.35131135196E+02  0.13037545815E+03  0.14742232816E+03  0.00000000000E+00 0.  1.
</event>
<event>
12    1  0.8313893E-002  0.2855791E+03  0.7818608E-02  0.1092857E+00
         21   -1    0    0  501  502  0.00000000000E+00  0.00000000000E+00  0.74530600102E+03  0.74530600102E+03  0.00000000000E+00 0.  1.
         21   -1    0    0  502  503 -0.00000000000E+00 -0.00000000000E+00 -0.11799234139E+03  0.11799234139E+03  0.00000000000E+00 0.  1.
         -6    2    1    2    0  503  0.57091899420E+02  0.21918876109E+03  0.19328720874E+03  0.34374625074E+03  0.17175081330E+03 0.  0.
        -24    2    3    3    0    0 -0.21109510302E+01  0.20144313029E+03  0.17611785356E+03  0.27942858854E+03  0.80492526950E+02 0.  0.
          6    2    1    2  501    0 -0.57091899420E+02 -0.21918876109E+03  0.43402645089E+03  0.51955209166E+03  0.17393164724E+03 0.  0.
         24    2    5    5    0    0  0.32835508826E+02 -0.86781382338E+02  0.23123232058E+03  0.26116052448E+03  0.78276781406E+02 0.  0.
          5    1    5    5  501    0 -0.89927408246E+02 -0.13240737875E+03  0.20279413031E+03  0.25839156718E+03  0.47000000000E+01 0. -1.
        -13    1    6    6    0    0  0.13652087185E+02 -0.40444364255E+02  0.26203944641E+02  0.50087651165E+02  0.00000000000E+00 0.  1.
         14    1    6    6    0    0  0.19183421640E+02 -0.46337018084E+02  0.20502837594E+03  0.21107287332E+03  0.00000000000E+00 0. -1.
         -5    1    3    3    0  503  0.59202850450E+02  0.17745630798E+02  0.17169355179E+02  0.64317662202E+02  0.47000000000E+01 0.  1.
         13    1    4    4    0    0 -0.35679944130E+02  0.14657192872E+03  0.13919378517E+03  0.20525910097E+03  0.00000000000E+00 0. -1.
        -14    1    4    4    0    0  0.33568993100E+02  0.54871201575E+02  0.36924068392E+02  0.74169487571E+02  0.00000000000E+00 0.  1.
</event>
<event>
12    1  0.8313893E-002  0.2042233E+03  0.7818608E-02  0.1146626E+00
         21   -1    0    0  501  502  0.00000000000E+00  0.00000000000E+00  0.41744911521E+03  0.41744911521E+03  0.00000000000E+00 0.  1.
         21   -1    0    0  502  503 -0.00000000000E+00 -0.00000000000E+00 -0.19015770705E+03  0.19015770705E+03  0.00000000000E+00 0.  1.
         -6    2    1    2    0  503 -0.50154457413E+02 -0.97708888613E+02 -0.96462427885E+02  0.22585871639E+03  0.17217625639E+03 0.  0.
        -24    2    3    3    0    0 -0.42148397956E+01  0.19479497413E+02 -0.52441135804E+02  0.92428845516E+02  0.73456130207E+02 0.  0.
          6    2    1    2  501    0  0.50154457413E+02  0.97708888613E+02  0.32375383605E+03  0.38174810586E+03  0.16986045291E+03 0.  0.
         24    2    5    5    0    0  0.31489692030E+02  0.65501175997E+02  0.32770781094E+03  0.34401967976E+03  0.75333431804E+02 0.  0.
          5    1    5    5  501    0  0.18664765383E+02  0.32207712616E+02 -0.39539748981E+01  0.37728426103E+02  0.47000000000E+01 0. -1.
        -11    1    6    6    0    0  0.55034633597E+02  0.35116918088E+02  0.18310794197E+03  0.19439785813E+03  0.00000000000E+00 0.  1.
         12    1    6    6    0    0 -0.23544941567E+02  0.30384257909E+02  0.14459986897E+03  0.14962182163E+03  0.00000000000E+00 0. -1.
         -5    1    3    3    0  503 -0.45939617617E+02 -0.11718838603E+03 -0.44021292081E+02  0.13342987088E+03  0.47000000000E+01 0.  1.
         11    1    4    4    0    0 -0.38514639008E+02  0.76184774716E+01 -0.21652664651E+02  0.44835884104E+02  0.00000000000E+00 0. -1.
        -12    1    4    4    0    0  0.34299799212E+02  0.11861019941E+02 -0.30788471153E+02  0.47592961412E+02  0.00000000000E+00 0.  1.
</event>
<event>
12    1  0.8313893E-002  0.1811008E+03  0.7818608E-02  0.1166777E+00
         21   -1    0    0  503  502  0.00000000000E+00  0.00000000000E+00  0.70658357915E+02  0.70658357915E+02  0.00000000000E+00 0. -1.
         21   -1    0    0  501  503 -0.00000000000E+00 -0.00000000000E+00 -0.46843918577E+03  0.46843918577E+03  0.00000000000E+00 0. -1.
          6    2    1    2  501    0  0.32084338413E+01 -0.49852325335E+02 -0.17198862705E+03  0.24965044493E+03  0.17392443310E+03 0.  0.
         24    2    3    3    0    0  0.35426152379E+02 -0.92175455717E+02 -0.13196488711E+03  0.18291800520E+03  0.79328042256E+02 0.  0.
         -6    2    1    2    0  502 -0.32084338413E+01  0.49852325335E+02 -0.22579220081E+03  0.28944709876E+03  0.17407457208E+03 0.  0.
        -24    2    5    5    0    0 -0.45513497073E+01 -0.14723791077E+02 -0.36303770805E+02  0.89197670947E+02  0.80004724359E+02 0.  0.
          5    1    3    3  501    0 -0.32217718537E+02  0.42323130382E+02 -0.40023739939E+02  0.66732439726E+02  0.47000000000E+01 0. -1.
        -11    1    4    4    0    0  0.13406708083E+01 -0.92307427512E+02 -0.91021327600E+02  0.12964312805E+03  0.00000000000E+00 0.  1.
         12    1    4    4    0    0  0.34085481570E+02  0.13197179503E+00 -0.40943559506E+02  0.53274877151E+02  0.00000000000E+00 0. -1.
         -5    1    5    5    0  502  0.13429158660E+01  0.64576116412E+02 -0.18948843000E+03  0.20024942781E+03  0.47000000000E+01 0.  1.
         13    1    6    6    0    0  0.31249801581E+02 -0.19223136672E+01 -0.40226646063E+02  0.50974782414E+02  0.00000000000E+00 0. -1.
        -14    1    6    6    0    0 -0.35801151288E+02 -0.12801477410E+02  0.39228752579E+01  0.38222888532E+02  0.00000000000E+00 0.  1.
</event>
<event>
12    1  0.8313893E-002  0.1937123E+03  0.7818608E-02  0.1155156E+00
         21   -1    0    0  501  502  0.00000000000E+00  0.00000000000E+00  0.35744748948E+03  0.35744748948E+03  0.00000000000E+00 0. -1.
         21   -1    0    0  502  503 -0.00000000000E+00 -0.00000000000E+00 -0.23427034089E+03  0.23427034089E+03  0.00000000000E+00 0. -1.
         -6    2    1    2    0  503  0.60192446416E+02 -0.64936517170E+02 -0.15820393383E+03  0.25010586857E+03  0.17229213258E+03 0.  0.
        -24    2    3    3    0    0  0.10180339990E+03 -0.25465704081E+02 -0.12035866911E+03  0.18123083248E+03  0.85708640730E+02 0.  0.
          6    2    1    2  501    0 -0.60192446416E+02  0.64936517170E+02  0.28138108242E+03  0.34161196179E+03  0.17228910886E+03 0.  0.
         24    2    5    5    0    0 -0.72543128505E+02  0.93427401401E+02  0.13650019657E+03  0.19336611559E+03  0.69043219577E+02 0.  0.
          5    1    5    5  501    0  0.12350682088E+02 -0.28490884231E+02  0.14488088585E+03  0.14824584620E+03  0.47000000000E+01 0. -1.
        -11    1    6    6    0    0 -0.64921740381E+02  0.48515581026E+02  0.48972668090E+02  0.94693802311E+02  0.00000000000E+00 0.  1.
         12    1    6    6    0    0 -0.76213881240E+01  0.44911820375E+02  0.87527528478E+02  0.98672313279E+02  0.00000000000E+00 0. -1.
         -5    1    3    3    0  503 -0.41610953483E+02 -0.39470813089E+02 -0.37845264723E+02  0.68875036099E+02  0.47000000000E+01 0.  1.
         13    1    4    4    0    0  0.92692453001E+02 -0.52789882291E+02 -0.93509274214E+02  0.14185431569E+03  0.00000000000E+00 0. -1.
        -14    1    4    4    0    0  0.91109468975E+01  0.27324178210E+02 -0.26849394891E+02  0.39376516787E+02  0.00000000000E+00 0.  1.
</event>
<event>
12    1  0.8313893E-002  0.1927055E+03  0.7818608E-02  0.1156127E+00
         21   -1    0    0  501  502  0.00000000000E+00  0.00000000000E+00  0.19853672725E+04  0.19853672725E+04  0.00000000000E+00 0.  1.
         21   -1    0    0  502  503 -0.00000000000E+00 -0.00000000000E+00 -0.26925966424E+02  0.26925966424E+02  0.00000000000E+00 0.  1.
         -6    2    1    2    0  503  0.86513843510E+02 -0.35477630818E+01  0.42135916776E+03  0.46317836010E+03  0.17173646458E+03 0.  0.
        -24    2    3    3    0    0  0.48184418624E+02  0.63815566597E+02  0.22395555823E+03  0.25105283582E+03  0.80481485885E+02 0.  0.
          6    2    1    2  501    0 -0.86513843510E+02  0.35477630818E+01  0.15370821383E+04  0.15491148788E+04  0.17215741671E+03 0.  0.
         24    2    5    5    0    0 -0.47694253832E+02  0.25856253044E+02  0.14246532728E+04  0.14280076162E+04  0.81397275505E+02 0.  0.
          5    1    5    5  501    0 -0.38819589679E+02 -0.22308489963E+02  0.11242886549E+03  0.12110726264E+03  0.47000000000E+01 0. -1.
        -11    1    6    6    0    0 -0.55124666395E+02 -0.14325332679E+02  0.82523650651E+03  0.82719963472E+03  0.00000000000E+00 0.  1.
         12    1    6    6    0    0  0.74304125626E+01  0.40181585724E+02  0.59941676630E+03  0.60080798145E+03  0.00000000000E+00 0. -1.
         -5    1    3    3    0  503  0.38329424887E+02 -0.67363329678E+02  0.19740360953E+03  0.21212552428E+03  0.47000000000E+01 0.  1.
         13    1    4    4    0    0 -0.93513138220E+01 -0.31454555700E+01  0.90515545591E+02  0.91051660911E+02  0.00000000000E+00 0. -1.
        -14    1    4    4    0    0  0.57535732445E+02  0.66961022167E+02  0.13344001264E+03  0.16000117491E+03  0.00000000000E+00 0.  1.
</event>
<event>
12    1  0.8313893E-002  0.1940758E+03  0.7818608E-02  0.1155533E+00
         21   -1    0    0  501  502  0.00000000000E+00  0.00000000000E+00  0.38129082897E+03  0.38129082897E+03  0.00000000000E+00 0. -1.
         21   -1    0    0  502  503 -0.00000000000E+00 -0.00000000000E+00 -0.11715133981E+03  0.11715133981E+03  0.00000000000E+00 0. -1.
         -6    2    1    2    0  503  0.81497196354E+02 -0.69967499272E+01  0.28295198308E+02  0.19301139869E+03  0.17251676514E+03 0.  0.
        -24    2    3    3    0    0  0.11516133865E+03 -0.25552136904E+02 -0.35602446928E+01  0.14286724538E+03  0.80519120967E+02 0.  0.
          6    2    1    2  501    0 -0.81497196354E+02  0.69967499272E+01  0.23584429085E+03  0.30543077010E+03  0.17599624505E+03 0.  0.
         24    2    5    5    0    0  0.17460071980E+02  0.25710971966E+02  0.67602233296E+02  0.10929244392E+03  0.80055406809E+02 0.  0.
          5    1    5    5  501    0 -0.98957268334E+02 -0.18714222039E+02  0.16824205756E+03  0.19613832617E+03  0.47000000000E+01 0. -1.
        -13    1    6    6    0    0  0.46745110434E+02  0.66024744399E+01  0.22707018523E+02  0.52386130878E+02  0.00000000000E+00 0.  1.
         14    1    6    6    0    0 -0.29285038454E+02  0.19108497526E+02  0.44895214773E+02  0.56906313046E+02  0.00000000000E+00 0. -1.
         -5    1    3    3    0  503 -0.33664142292E+02  0.18555386977E+02  0.31855443001E+02  0.50144153308E+02  0.47000000000E+01 0.  1.
         13    1    4    4    0    0  0.11536659523E+03 -0.15078697751E+02 -0.25001570729E+02  0.11900376868E+03  0.00000000000E+00 0. -1.
        -14    1    4    4    0    0 -0.20525658749E+00 -0.10473439153E+02  0.21441326036E+02  0.23863476699E+02  0.00000000000E+00 0.  1.
</event>
<event>
12    1  0.8313893E-002  0.1909613E+03  0.7818608E-02  0.1157913E+00
         21   -1    0    0  501  502  0.00000000000E+00  0.00000000000E+00  0.21162457667E+03  0.21162457667E+03  0.00000000000E+00 0.  1.
         21   -1    0    0  502  503 -0.00000000000E+00 -0.00000000000E+00 -0.17230523372E+03  0.17230523372E+03  0.00000000000E+00 0.  1.
         -6    2    1    2    0  503  0.75906000410E+02 -0.25408454731E+02  0.31969526045E+01  0.18958204825E+03  0.17182497503E+03 0.  0.
        -24    2    3    3    0    0  0.23585143809E+02 -0.39654790337E+02  0.61485063390E+02  0.10983228980E+03  0.78447163481E+02 0.  0.
          6    2    1    2  501    0 -0.75906000410E+02  0.25408454731E+02  0.36122390343E+02  0.19434776214E+03  0.17337507057E+03 0.  0.
         24    2    5    5    0    0 -0.79761785340E+02  0.48888233178E+02  0.79026152161E+02  0.14506297898E+03  0.77756886516E+02 0.  0.
          5    1    5    5  501    0  0.38557849304E+01 -0.23479778448E+02 -0.42903761818E+02  0.49284783164E+02  0.47000000000E+01 0. -1.
        -13    1    6    6    0    0 -0.42890528221E+02 -0.16978980245E+02  0.28325185223E+02  0.54131315328E+02  0.00000000000E+00 0.  1.
         14    1    6    6    0    0 -0.36871257119E+02  0.65867213423E+02  0.50700966938E+02  0.90931663650E+02  0.00000000000E+00 0. -1.
         -5    1    3    3    0  503  0.52320856600E+02  0.14246335607E+02 -0.58288110785E+02  0.79749758448E+02  0.47000000000E+01 0.  1.
         11    1    4    4    0    0  0.92815714002E+00  0.23660459147E+02  0.18107244259E+02  0.29808574226E+02  0.00000000000E+00 0. -1.
        -12    1    4    4    0    0  0.22656986669E+02 -0.63315249485E+02  0.43377819131E+02  0.80023715577E+02  0.00000000000E+00 0.  1.
</event>
<event>
12    1  0.8313893E-002  0.1837545E+03  0.7818608E-02  0.1164348E+00
         21   -1    0    0  501  502  0.00000000000E+00  0.00000000000E+00  0.29045830526E+03  0.29045830526E+03  0.00000000000E+00 0. -1.
         21   -1    0    0  502  503 -0.00000000000E+00 -0.00000000000E+00 -0.11672276012E+03  0.11672276012E+03  0.00000000000E+00 0. -1.
         -6    2    1    2    0  503  0.32285311542E+02  0.53527914298E+02  0.69662982973E+02  0.19600145073E+03  0.17220934511E+03 0.  0.
        -24    2    3    3    0    0  0.72891645434E+02  0.54671390035E+02  0.65598029978E+01  0.12080648274E+03  0.79050758335E+02 0.  0.
          6    2    1    2  501    0 -0.32285311542E+02 -0.53527914298E+02  0.10407256217E+03  0.21117961466E+03  0.17279511712E+03 0.  0.
         24    2    5    5    0    0 -0.37351057215E+02  0.49283128404E+01 -0.35365152409E+01  0.88523200998E+02  0.80027872846E+02 0.  0.
          5    1    5    5  501    0  0.50657456727E+01 -0.58456227139E+02  0.10760907741E+03  0.12265641366E+03  0.47000000000E+01 0. -1.
        -13    1    6    6    0    0 -0.12609552742E+02  0.28623820473E+01  0.37995836535E+02  0.40135740249E+02  0.00000000000E+00 0.  1.
         14    1    6    6    0    0 -0.24741504473E+02  0.20659307931E+01 -0.41532351776E+02  0.48387460749E+02  0.00000000000E+00 0. -1.
         -5    1    3    3    0  503 -0.40606333892E+02 -0.11434757373E+01  0.63103179975E+02  0.75194967995E+02  0.47000000000E+01 0.  1.
         11    1    4    4    0    0  0.34643675966E+02 -0.18186060421E+01  0.32772475850E+02  0.47723440631E+02  0.00000000000E+00 0. -1.
        -12    1    4    4    0    0  0.38247969468E+02  0.56489996078E+02 -0.26212672852E+02  0.73083042105E+02  0.00000000000E+00 0.  1.
</event>
<event>
12    1  0.8313893E-002  0.1816412E+03  0.7818608E-02  0.1166426E+00
         21   -1    0    0  501  502  0.00000000000E+00  0.00000000000E+00  0.34312303440E+03  0.34312303440E+03  0.00000000000E+00 0.  1.
         21   -1    0    0  502  503 -0.00000000000E+00 -0.00000000000E+00 -0.97091259406E+02  0.97091259406E+02  0.00000000000E+00 0.  1.
         -6    2    1    2    0  503 -0.32253835199E+02 -0.53727076489E+02  0.97062886804E+02  0.20594840791E+03  0.17048939584E+03 0.  0.
        -24    2    3    3    0    0  0.39050651874E+02 -0.60804715391E+02  0.81398753945E+02  0.13245093920E+03  0.75467392462E+02 0.  0.
          6    2    1    2  501    0  0.32253835199E+02  0.53727076489E+02  0.14896888819E+03  0.23426588590E+03  0.16959323988E+03 0.  0.
         24    2    5    5    0    0  0.40453008528E+02 -0.15691609694E+02  0.33335070998E+02  0.99064369214E+02  0.82582381750E+02 0.  0.
          5    1    5    5  501    0 -0.81991733294E+01  0.69418686183E+02  0.11563381720E+03  0.13520151669E+03  0.47000000000E+01 0. -1.
        -13    1    6    6    0    0  0.24690532610E+02  0.32241816285E+02  0.25628682135E+02  0.48020687895E+02  0.00000000000E+00 0.  1.
         14    1    6    6    0    0  0.15762475918E+02 -0.47933425980E+02  0.77063888633E+01  0.51043681318E+02  0.00000000000E+00 0. -1.
         -5    1    3    3    0  503 -0.71304487073E+02  0.70776389016E+01  0.15664132858E+02  0.73497468714E+02  0.47000000000E+01 0.  1.
         13    1    4    4    0    0  0.97841709506E+01 -0.70565255208E+02  0.69073993952E+02  0.99229037505E+02  0.00000000000E+00 0. -1.
        -14    1    4    4    0    0  0.29266480923E+02  0.97605398174E+01  0.12324759993E+02  0.33221901692E+02  0.00000000000E+00 0.  1.
</event>
<event>
12    1  0.8313893E-002  0.4055823E+03  0.7818608E-02  0.1042170E+00
         21   -1    0    0  501  502  0.00000000000E+00  0.00000000000E+00  0.44776531201E+03  0.44776531201E+03  0.00000000000E+00 0. -1.
         21   -1    0    0  502  503 -0.00000000000E+00 -0.00000000000E+00 -0.42838781311E+03  0.42838781311E+03  0.00000000000E+00 0.  1.
         -6    2    1    2    0  503  0.29007798093E+03 -0.22537694022E+03 -0.16001005533E+03  0.43267042621E+03  0.16328037148E+03 0.  0.
        -24    2    3    3    0    0  0.22902573541E+03 -0.21645388796E+03 -0.17413581642E+03  0.36919897853E+03  0.81728392224E+02 0.  0.
          6    2    1    2  501    0 -0.29007798093E+03  0.22537694022E+03  0.17938755424E+03  0.44348269891E+03  0.17192152109E+03 0.  0.
         24    2    5    5    0    0 -0.16269389224E+03  0.16118969340E+03  0.43794055236E+02  0.24662133734E+03  0.80328979384E+02 0.  0.
          5    1    5    5  501    0 -0.12738408869E+03  0.64187246823E+02  0.13559349900E+03  0.19686136156E+03  0.47000000000E+01 0. -1.
        -13    1    6    6    0    0 -0.68633969629E+02  0.12366161091E+03  0.25292559453E+02  0.14367508261E+03  0.00000000000E+00 0.  1.
         14    1    6    6    0    0 -0.94059922611E+02  0.37528082488E+02  0.18501495783E+02  0.10294625473E+03  0.00000000000E+00 0. -1.
         -5    1    3    3    0  503  0.61052245519E+02 -0.89230522595E+01  0.14125761090E+02  0.63471447683E+02  0.47000000000E+01 0.  1.
         11    1    4    4    0    0  0.76485051335E+02 -0.64217720697E+02 -0.14304783530E+02  0.10088857993E+03  0.00000000000E+00 0. -1.
        -12    1    4    4    0    0  0.15254068407E+03 -0.15223616727E+03 -0.15983103289E+03  0.26831039860E+03  0.00000000000E+00 0.  1.
</event>
<event>
12    1  0.8313893E-002  0.3010985E+03  0.7818608E-02  0.1084724E+00
         21   -1    0    0  503  502  0.00000000000E+00  0.00000000000E+00  0.75794532720E+03  0.75794532720E+03  0.00000000000E+00 0. -1.
         21   -1    0    0  501  503 -0.00000000000E+00 -0.00000000000E+00 -0.61272026151E+03  0.61272026151E+03  0.00000000000E+00 0.  1.
          6    2    1    2  501    0 -0.89406984818E+02 -0.23138670798E+03 -0.54226549829E+03  0.62013007380E+03  0.17022344206E+03 0.  0.
         24    2    3    3    0    0 -0.61390134863E+02 -0.44489921806E+02 -0.21326852395E+03  0.24068778347E+03  0.81847687827E+02 0.  0.
         -6    2    1    2    0  502  0.89406984818E+02  0.23138670798E+03  0.68749056398E+03  0.75053551491E+03  0.17066594863E+03 0.  0.
        -24    2    5    5    0    0  0.10191093954E+03  0.16941414301E+03  0.62687734284E+03  0.66282576477E+03  0.85298300253E+02 0.  0.
          5    1    3    3  501    0 -0.28016849955E+02 -0.18689678618E+03 -0.32899697434E+03  0.37944229033E+03  0.47000000000E+01 0. -1.
        -13    1    4    4    0    0  0.22502397318E+01 -0.14152940034E+02 -0.13334529966E+03  0.13411315458E+03  0.00000000000E+00 0.  1.
         14    1    4    4    0    0 -0.63640374595E+02 -0.30336981772E+02 -0.79923224293E+02  0.10657462889E+03  0.00000000000E+00 0. -1.
         -5    1    5    5    0  502 -0.12503954723E+02  0.61972564978E+02  0.60613221136E+02  0.87709750143E+02  0.47000000000E+01 0.  1.
         13    1    6    6    0    0  0.59975921034E+02  0.15913407916E+03  0.53350544454E+03  0.55995430672E+03  0.00000000000E+00 0. -1.
        -14    1    6    6    0    0  0.41935018507E+02  0.10280063842E+02  0.93371898298E+02  0.10287145805E+03  0.00000000000E+00 0.  1.
</event>
<event>
12    1  0.8313893E-002  0.2163553E+03  0.7818608E-02  0.1136646E+00
         21   -1    0    0  501  502  0.00000000000E+00  0.00000000000E+00  0.34372957621E+03  0.34372957621E+03  0.00000000000E+00 0.  1.
         21   -1    0    0  502  503 -0.00000000000E+00 -0.00000000000E+00 -0.16944150241E+03  0.16944150241E+03  0.00000000000E+00 0. -1.
         -6    2    1    2    0  503  0.10956636905E+03  0.71843728391E+02 -0.26611123452E+02  0.21798566997E+03  0.17217226805E+03 0.  0.
        -24    2    3    3    0    0  0.13642836697E+03  0.19923653092E+02 -0.14633295567E+02  0.15812901193E+03  0.76032886361E+02 0.  0.
          6    2    1    2  501    0 -0.10956636905E+03 -0.71843728391E+02  0.20089919726E+03  0.29518540865E+03  0.17206867084E+03 0.  0.
         24    2    5    5    0    0 -0.13610321739E+02 -0.84286051503E+02  0.87766231326E+02  0.14624403629E+03  0.79968915550E+02 0.  0.
          5    1    5    5  501    0 -0.95956047307E+02  0.12442323112E+02  0.11313296593E+03  0.14894137236E+03  0.47000000000E+01 0. -1.
        -11    1    6    6    0    0 -0.16202512590E+02 -0.45407320342E+02  0.95074306084E+02  0.10659957707E+03  0.00000000000E+00 0.  1.
         12    1    6    6    0    0  0.25921908511E+01 -0.38878731162E+02 -0.73080747578E+01  0.39644459220E+02  0.00000000000E+00 0. -1.
         -5    1    3    3    0  503 -0.26861997920E+02  0.51920075299E+02 -0.11977827885E+02  0.59856658044E+02  0.47000000000E+01 0.  1.
         11    1    4    4    0    0  0.89120723247E+01  0.26573645396E+02 -0.11792049155E+02  0.30407829354E+02  0.00000000000E+00 0. -1.
        -12    1    4    4    0    0  0.12751629464E+03 -0.66499923045E+01 -0.28412464124E+01  0.12772118257E+03  0.00000000000E+00 0.  1.
</event>
<event>
12    1  0.8313893E-002  0.1794954E+03  0.7818608E-02  0.1168414E+00
         21   -1    0    0  503  502  0.00000000000E+00  0.00000000000E+00  0.17048671231E+03  0.17048671231E+03  0.00000000000E+00 0.  1.
         21   -1    0    0  501  503 -0.00000000000E+00 -0.00000000000E+00 -0.22151216192E+03  0.22151216192E+03  0.00000000000E+00 0. -1.
          6    2    1    2  501    0 -0.23865281496E+02 -0.41202615924E+02 -0.10119782864E+03  0.20562328268E+03  0.17254775177E+03 0.  0.
         24    2    3    3    0    0  0.40000475958E+02  0.24623051631E+01 -0.88134455757E+02  0.12702174313E+03  0.82223718676E+02 0.  0.
         -6    2    1    2    0  502  0.23865281496E+02  0.41202615924E+02  0.50172379024E+02  0.18637559155E+03  0.17306468816E+03 0.  0.
        -24    2    5    5    0    0  0.53180091505E+02  0.34621650804E+02 -0.25075971402E+02  0.10521481636E+03  0.80091025731E+02 0.  0.
          5    1    3    3  501    0 -0.63865757454E+02 -0.43664921087E+02 -0.13063372881E+02  0.78601539551E+02  0.47000000000E+01 0. -1.
        -13    1    4    4    0    0  0.33910261984E+01  0.28024164353E+02 -0.71158676045E-02  0.28228582979E+02  0.00000000000E+00 0.  1.
         14    1    4    4    0    0  0.36609449759E+02 -0.25561859190E+02 -0.88127339889E+02  0.98793160152E+02  0.00000000000E+00 0. -1.
         -5    1    5    5    0  502 -0.29314810009E+02  0.65809651201E+01  0.75248350426E+02  0.81160775191E+02  0.47000000000E+01 0.  1.
         13    1    6    6    0    0  0.37296776682E+01 -0.31719359737E+00 -0.42141769367E+02  0.42307680540E+02  0.00000000000E+00 0. -1.
        -14    1    6    6    0    0  0.49450413837E+02  0.34938844401E+02  0.17065797964E+02  0.62907135818E+02  0.00000000000E+00 0.  1.
</event>
<event>
12    1  0.8313893E-002  0.2287830E+03  0.7818608E-02  0.1127757E+00
         21   -1    0    0  503  502  0.00000000000E+00  0.00000000000E+00  0.60712931139E+03  0.60712931139E+03  0.00000000000E+00 0. -1.
         21   -1    0    0  501  503 -0.00000000000E+00 -0.00000000000E+00 -0.88048424747E+02  0.88048424747E+02  0.00000000000E+00 0.  1.
          6    2    1    2  501    0 -0.76962475038E+02 -0.12949007172E+03  0.20157343098E+03  0.30383053137E+03  0.17026521218E+03 0.  0.
         24    2    3    3    0    0 -0.62123630508E+02 -0.15549316542E+03  0.20079052928E+03  0.27351460942E+03  0.80348832946E+02 0.  0.
         -6    2    1    2    0  502  0.76962475038E+02  0.12949007172E+03  0.31750745566E+03  0.39134720476E+03  0.17219392857E+03 0.  0.
        -24    2    5    5    0    0 -0.14902058643E+02  0.69025022737E+02  0.85007805034E+02  0.13410550472E+03  0.75969956989E+02 0.  0.
          5    1    3    3  501    0 -0.14838844530E+02  0.26003093695E+02  0.78290169532E+00  0.30315921952E+02  0.47000000000E+01 0. -1.
        -11    1    4    4    0    0 -0.73666480915E+02 -0.15159090697E+03  0.16563776100E+03  0.23631001112E+03  0.00000000000E+00 0.  1.
         12    1    4    4    0    0  0.11542850407E+02 -0.39022584476E+01  0.35152768282E+02  0.37204598296E+02  0.00000000000E+00 0. -1.
         -5    1    5    5    0  502  0.91864533682E+02  0.60465048988E+02  0.23249965063E+03  0.25724170004E+03  0.47000000000E+01 0.  1.
         13    1    6    6    0    0  0.25945219952E+02  0.32878850296E+02  0.62195897605E+02  0.74983350912E+02  0.00000000000E+00 0. -1.
        -14    1    6    6    0    0 -0.40847278595E+02  0.36146172441E+02  0.22811907429E+02  0.59122153811E+02  0.00000000000E+00 0.  1.
</event>
<event>
12    1  0.8313893E-002  0.1890942E+03  0.7818608E-02  0.1159365E+00
         21   -1    0    0  503  502  0.00000000000E+00  0.00000000000E+00  0.99603723498E+02  0.99603723498E+02  0.00000000000E+00 0. -1.
         21   -1    0    0  501  503 -0.00000000000E+00 -0.00000000000E+00 -0.38550434178E+03  0.38550434178E+03  0.00000000000E+00 0. -1.
          6    2    1    2  501    0  0.54344742846E+02 -0.61174460314E+02 -0.78634156263E+02  0.20479243044E+03  0.17047270563E+03 0.  0.
         24    2    3    3    0    0  0.18040844119E+02  0.26227561773E+02 -0.68032795047E+02  0.10944272993E+03  0.79598322088E+02 0.  0.
         -6    2    1    2    0  502 -0.54344742846E+02  0.61174460314E+02 -0.20726646202E+03  0.28031563484E+03  0.17006411493E+03 0.  0.
        -24    2    5    5    0    0 -0.83641757157E+02  0.75317727309E+02 -0.10491824577E+03  0.17281868410E+03  0.78675000423E+02 0.  0.
          5    1    3    3  501    0  0.36303898727E+02 -0.87402022087E+02 -0.10601361216E+02  0.95349700510E+02  0.47000000000E+01 0. -1.
        -13    1    4    4    0    0  0.44152956765E+02  0.24569691777E+02 -0.66108333882E+02  0.83207362377E+02  0.00000000000E+00 0.  1.
         14    1    4    4    0    0 -0.26112112646E+02  0.16578699962E+01 -0.19244611656E+01  0.26235367551E+02  0.00000000000E+00 0. -1.
         -5    1    5    5    0  502  0.29297014311E+02 -0.14143266995E+02 -0.10234821625E+03  0.10749695074E+03  0.47000000000E+01 0.  1.
         11    1    6    6    0    0 -0.84634053884E+02  0.31479289308E+02 -0.52400528514E+02  0.10440155229E+03  0.00000000000E+00 0. -1.
        -12    1    6    6    0    0  0.99229672711E+00  0.43838438002E+02 -0.52517717260E+02  0.68417131812E+02  0.00000000000E+00 0.  1.
</event>
<event>
12    1  0.8313893E-002  0.1984104E+03  0.7818608E-02  0.1151673E+00
         21   -1    0    0  503  502  0.00000000000E+00  0.00000000000E+00  0.72888918461E+03  0.72888918461E+03  0.00000000000E+00 0. -1.
         21   -1    0    0  501  503 -0.00000000000E+00 -0.00000000000E+00 -0.18352486382E+03  0.18352486382E+03  0.00000000000E+00 0. -1.
          6    2    1    2  501    0 -0.77728321882E+02 -0.57766570236E+02 -0.11110498755E+03  0.22740054795E+03  0.17317050064E+03 0.  0.
         24    2    3    3    0    0 -0.18698183070E+02  0.34200205053E+02 -0.39189852862E+02  0.96494774045E+02  0.79095643210E+02 0.  0.
         -6    2    1    2    0  502  0.77728321882E+02  0.57766570236E+02  0.65646930833E+03  0.68501350047E+03  0.17003786163E+03 0.  0.
        -24    2    5    5    0    0  0.25203897549E+02 -0.15711233821E+02  0.46744533691E+03  0.47546647803E+03  0.81738298337E+02 0.  0.
          5    1    3    3  501    0 -0.59030138812E+02 -0.91966775289E+02 -0.71915134684E+02  0.13090577391E+03  0.47000000000E+01 0. -1.
        -11    1    4    4    0    0  0.69104542610E-02  0.70993608348E+01  0.24114641430E+02  0.25137957421E+02  0.00000000000E+00 0.  1.
         12    1    4    4    0    0 -0.18705093524E+02  0.27100844218E+02 -0.63304494292E+02  0.71356816624E+02  0.00000000000E+00 0. -1.
         -5    1    5    5    0  502  0.52524424333E+02  0.73477804056E+02  0.18902397143E+03  0.20954702244E+03  0.47000000000E+01 0.  1.
         11    1    6    6    0    0  0.26381365872E+02  0.21510104872E+02  0.36278170175E+03  0.36437511469E+03  0.00000000000E+00 0. -1.
        -12    1    6    6    0    0 -0.11774683230E+01 -0.37221338693E+02  0.10466363515E+03  0.11109136334E+03  0.00000000000E+00 0.  1.
</event>
<event>
12    1  0.8313893E-002  0.1756497E+03  0.7818608E-02  0.1175413E+00
         21   -1    0    0  503  502  0.00000000000E+00  0.00000000000E+00  0.13945024787E+03  0.13945024787E+03  0.00000000000E+00 0.  1.
         21   -1    0    0  501  503 -0.00000000000E+00 -0.00000000000E+00 -0.22768182443E+03  0.22768182443E+03  0.00000000000E+00 0.  1.
          6    2    1    2  501    0 -0.33331529144E+02 -0.30012675169E+01 -0.99990548758E+02  0.19108921013E+03  0.15936429320E+03 0.  0.
         24    2    3    3    0    0 -0.41401070455E+02 -0.35840947937E+02 -0.11757163056E+03  0.15268678124E+03  0.80570110267E+02 0.  0.
         -6    2    1    2    0  502  0.33331529144E+02  0.30012675169E+01  0.11758972198E+02  0.17604286218E+03  0.17243206620E+03 0.  0.
        -24    2    5    5    0    0  0.27409607447E+02  0.69726706688E+02 -0.48989896120E+01  0.10685521096E+03  0.76032465464E+02 0.  0.
          5    1    3    3  501    0  0.80695413117E+01  0.32839680420E+02  0.17581081806E+02  0.38402428889E+02  0.47000000000E+01 0. -1.
        -11    1    4    4    0    0 -0.28205344176E+02 -0.57034842282E+02 -0.50861759666E+02  0.81458168839E+02  0.00000000000E+00 0.  1.
         12    1    4    4    0    0 -0.13195726279E+02  0.21193894345E+02 -0.66709870898E+02  0.71228612403E+02  0.00000000000E+00 0. -1.
         -5    1    5    5    0  502  0.59219216969E+01 -0.66725439171E+02  0.16657961810E+02  0.69187651216E+02  0.47000000000E+01 0.  1.
         13    1    6    6    0    0 -0.23124090524E+02  0.15196560780E+02 -0.15566632791E+02  0.31748686249E+02  0.00000000000E+00 0. -1.
        -14    1    6    6    0    0  0.50533697971E+02  0.54530145908E+02  0.10667643179E+02  0.75106524713E+02  0.00000000000E+00 0.  1.
</event>
<event>
12    1  0.8313893E-002  0.1767814E+03  0.7818608E-02  0.1171428E+00
         21   -1    0    0  503  502  0.00000000000E+00  0.00000000000E+00  0.53580351369E+02  0.53580351369E+02  0.00000000000E+00 0. -1.
         21   -1    0    0  501  503 -0.00000000000E+00 -0.00000000000E+00 -0.78320564798E+03  0.78320564798E+03  0.00000000000E+00 0.  1.
          6    2    1    2  501    0  0.23573615346E+02  0.26984576760E+02 -0.57803309838E+03  0.60390867139E+03  0.17117107768E+03 0.  0.
         24    2    3    3    0    0  0.23139514490E+02  0.23480674159E+02 -0.13021056069E+03  0.15604755337E+03  0.79430910897E+02 0.  0.
         -6    2    1    2    0  502 -0.23573615346E+02 -0.26984576760E+02 -0.15159219822E+03  0.23287732795E+03  0.17311202323E+03 0.  0.
        -24    2    5    5    0    0 -0.84034332236E+01 -0.81604924690E+02 -0.14021111568E+03  0.17486753676E+03  0.64726478591E+02 0.  0.
          5    1    3    3  501    0  0.43410085651E+00  0.35039026014E+01 -0.44782253769E+03  0.44786111803E+03  0.47000000000E+01 0. -1.
        -13    1    4    4    0    0  0.45810651786E+02 -0.86996094880E+01 -0.71565443805E+02  0.85416109542E+02  0.00000000000E+00 0.  1.
         14    1    4    4    0    0 -0.22671137297E+02  0.32180283647E+02 -0.58645116887E+02  0.70631443824E+02  0.00000000000E+00 0. -1.
         -5    1    5    5    0  502 -0.15170182123E+02  0.54620347930E+02 -0.11381082546E+02  0.58009791187E+02  0.47000000000E+01 0.  1.
         11    1    6    6    0    0 -0.68245948294E+01 -0.21778206360E+02 -0.44468701981E+00  0.22826806903E+02  0.00000000000E+00 0. -1.
        -12    1    6    6    0    0 -0.15788383942E+01 -0.59826718330E+02 -0.13976642866E+03  0.15204072986E+03  0.00000000000E+00 0.  1.
</event>
<event>
12    1  0.8313893E-002  0.2645597E+03  0.7818608E-02  0.1104760E+00
         21   -1    0    0  503  502  0.00000000000E+00  0.00000000000E+00  0.48602988643E+02  0.48602988643E+02  0.00000000000E+00 0.  1.
         21   -1    0    0  501  503 -0.00000000000E+00 -0.00000000000E+00 -0.14312825861E+04  0.14312825861E+04  0.00000000000E+00 0. -1.
          6    2    1    2  501    0  0.19725768407E+03 -0.12053500178E+02 -0.65928776242E+03  0.71038876374E+03  0.17588621654E+03 0.  0.
         24    2    3    3    0    0  0.12116643703E+03 -0.38849401811E+02 -0.57118831927E+03  0.59084170144E+03  0.81530599197E+02 0.  0.
         -6    2    1    2    0  502 -0.19725768407E+03  0.12053500178E+02 -0.72339183507E+03  0.76949681104E+03  0.17255061393E+03 0.  0.
        -24    2    5    5    0    0 -0.15140486205E+03 -0.17792700277E+02 -0.67411468988E+03  0.69571602759E+03  0.79687913137E+02 0.  0.
          5    1    3    3  501    0  0.76091247034E+02  0.26795901633E+02 -0.88099443154E+02  0.11954706230E+03  0.47000000000E+01 0. -1.
        -11    1    4    4    0    0  0.13200569621E+03 -0.32937843753E+02 -0.54722952218E+03  0.56388877922E+03  0.00000000000E+00 0.  1.
         12    1    4    4    0    0 -0.10839259180E+02 -0.59115580585E+01 -0.23958797093E+02  0.26952922224E+02  0.00000000000E+00 0. -1.
         -5    1    5    5    0  502 -0.45852822019E+02  0.29846200455E+02 -0.49277145190E+02  0.73780783453E+02  0.47000000000E+01 0.  1.
         13    1    6    6    0    0 -0.86811055260E+02  0.23615884197E+02 -0.27656751407E+03  0.29083235573E+03  0.00000000000E+00 0. -1.
        -14    1    6    6    0    0 -0.64593806788E+02 -0.41408584474E+02 -0.39754717581E+03  0.40488367186E+03  0.00000000000E+00 0.  1.
</event>
<event>
12    1  0.8313893E-002  0.1997182E+03  0.7818608E-02  0.1150156E+00
         21   -1    0    0  503  502  0.00000000000E+00  0.00000000000E+00  0.36137358724E+03  0.36137358724E+03  0.00000000000E+00 0.  1.
         21   -1    0    0  501  503 -0.00000000000E+00 -0.00000000000E+00 -0.26110156018E+03  0.26110156018E+03  0.00000000000E+00 0.  1.
          6    2    1    2  501    0  0.31118384746E+02 -0.95275531424E+02 -0.18674509477E+03  0.27280932714E+03  0.17177141147E+03 0.  0.
         24    2    3    3    0    0 -0.46801922144E+02 -0.49685155153E+02 -0.13288287364E+03  0.16757964740E+03  0.75934481999E+02 0.  0.
         -6    2    1    2    0  502 -0.31118384746E+02  0.95275531424E+02  0.28701712183E+03  0.34966582028E+03  0.17274714728E+03 0.  0.
        -24    2    5    5    0    0 -0.22872027233E+02  0.88229501384E+02  0.86773971020E+02  0.14907404977E+03  0.79911048825E+02 0.  0.
          5    1    3    3  501    0  0.77920306891E+02 -0.45590376271E+02 -0.53862221132E+02  0.10522967975E+03  0.47000000000E+01 0. -1.
        -13    1    4    4    0    0 -0.29837258259E+02 -0.35225800862E+02 -0.16411533454E+02  0.48994463535E+02  0.00000000000E+00 0.  1.
         14    1    4    4    0    0 -0.16964663885E+02 -0.14459354291E+02 -0.11647134018E+03  0.11858518386E+03  0.00000000000E+00 0. -1.
         -5    1    5    5    0  502 -0.82463575133E+01  0.70460300401E+01  0.20024315081E+03  0.20059177051E+03  0.47000000000E+01 0.  1.
         11    1    6    6    0    0 -0.49268708391E+02  0.31059144090E+02  0.41053482699E+02  0.71256329543E+02  0.00000000000E+00 0. -1.
        -12    1    6    6    0    0  0.26396681158E+02  0.57170357294E+02  0.45720488320E+02  0.77817720228E+02  0.00000000000E+00 0.  1.
</event>
<event>
12    1  0.8313893E-002  0.1825600E+03  0.7818608E-02  0.1165506E+00
         21   -1    0    0  501  502  0.00000000000E+00  0.00000000000E+00  0.57703021237E+02  0.57703021237E+02  0.00000000000E+00 0. -1.
         21   -1    0    0  502  503 -0.00000000000E+00 -0.00000000000E+00 -0.61661197456E+03  0.61661197456E+03  0.00000000000E+00 0. -1.
         -6    2    1    2    0  503  0.36096150570E+02  0.47289674109E+02 -0.36699650657E+03  0.40989581751E+03  0.17259461178E+03 0.  0.
        -24    2    3    3    0    0  0.49352625134E+02 -0.10734454019E+02 -0.32175864038E+03  0.33498862092E+03  0.78344389589E+02 0.  0.
          6    2    1    2  501    0 -0.36096150570E+02 -0.47289674109E+02 -0.19191244676E+03  0.26441917829E+03  0.17189493670E+03 0.  0.
         24    2    5    5    0    0  0.40986970993E+02  0.31288520764E+01 -0.99802920749E+02  0.13407313810E+03  0.79531514900E+02 0.  0.
          5    1    5    5  501    0 -0.77083121563E+02 -0.50418526186E+02 -0.92109526007E+02  0.13034604019E+03  0.47000000000E+01 0. -1.
        -13    1    6    6    0    0  0.45293464798E+02  0.32868224519E+02 -0.81579997144E+02  0.98929844185E+02  0.00000000000E+00 0.  1.
         14    1    6    6    0    0 -0.43064938051E+01 -0.29739372443E+02 -0.18222923604E+02  0.35143293910E+02  0.00000000000E+00 0. -1.
         -5    1    3    3    0  503 -0.13256474564E+02  0.58024128128E+02 -0.45237866193E+02  0.74907196588E+02  0.47000000000E+01 0.  1.
         13    1    4    4    0    0  0.14590820378E+02 -0.42453335246E+02 -0.18467803103E+03  0.19005565726E+03  0.00000000000E+00 0. -1.
        -14    1    4    4    0    0  0.34761804756E+02  0.31718881227E+02 -0.13708060935E+03  0.14493296366E+03  0.00000000000E+00 0.  1.
</event>
<event>
12    1  0.8313893E-002  0.1854206E+03  0.7818608E-02  0.1163055E+00
         21   -1    0    0  501  502  0.00000000000E+00  0.00000000000E+00  0.66502949217E+03  0.66502949217E+03  0.00000000000E+00 0.  1.
         21   -1    0    0  502  503 -0.00000000000E+00 -0.00000000000E+00 -0.59896231246E+02  0.59896231246E+02  0.00000000000E+00 0.  1.
         -6    2    1    2    0  503  0.28189211313E+02 -0.63423070925E+02  0.16347246481E+03  0.24592150597E+03  0.17010885571E+03 0.  0.
        -24    2    3    3    0    0  0.58717069771E+02  0.10852578178E+02  0.10828015453E+03  0.14836586388E+03  0.81990029656E+02 0.  0.
          6    2    1    2  501    0 -0.28189211313E+02  0.63423070925E+02  0.44166079612E+03  0.47900421745E+03  0.17194087338E+03 0.  0.
         24    2    5    5    0    0  0.33035342345E+02  0.29864172154E+02  0.37477753643E+03  0.38220490916E+03  0.60325684005E+02 0.  0.
          5    1    5    5  501    0 -0.61224553659E+02  0.33558898771E+02  0.66883259690E+02  0.96799308283E+02  0.47000000000E+01 0. -1.
        -13    1    6    6    0    0 -0.68803020057E+01  0.33931098728E+02  0.18888012714E+03  0.19202697843E+03  0.00000000000E+00 0.  1.
         14    1    6    6    0    0  0.39915644351E+02 -0.40669265744E+01  0.18589740930E+03  0.19017793073E+03  0.00000000000E+00 0. -1.
         -5    1    3    3    0  503 -0.30527858458E+02 -0.74275649103E+02  0.55192310277E+02  0.97555642099E+02  0.47000000000E+01 0.  1.
         11    1    4    4    0    0  0.69736563519E+02  0.10331578720E+01  0.11306872322E+03  0.13284875565E+03  0.00000000000E+00 0. -1.
        -12    1    4    4    0    0 -0.11019493747E+02  0.98194203059E+01 -0.47885686923E+01  0.15517108226E+02  0.00000000000E+00 0.  1.
</event>
<event>
12    1  0.8313893E-002  0.2735775E+03  0.7818608E-02  0.1099425E+00
         21   -1    0    0  503  502  0.00000000000E+00  0.00000000000E+00  0.65722179407E+03  0.65722179407E+03  0.00000000000E+00 0.  1.
         21   -1    0    0  501  503 -0.00000000000E+00 -0.00000000000E+00 -0.26639784140E+03  0.26639784140E+03  0.00000000000E+00 0. -1.
          6    2    1    2  501    0  0.15919380525E+03 -0.13924003238E+03 -0.15479729941E+03  0.31325317035E+03  0.17156599482E+03 0.  0.
         24    2    3    3    0    0  0.96887266092E+02 -0.14356658145E+03 -0.59419380331E+02  0.19914856353E+03  0.78300587207E+02 0.  0.
         -6    2    1    2    0  502 -0.15919380525E+03  0.13924003238E+03  0.54562125208E+03  0.61036646511E+03  0.17353448292E+03 0.  0.
        -24    2    5    5    0    0 -0.16914259181E+03  0.13817381146E+03  0.38657457487E+03  0.45093607054E+03  0.78754169668E+02 0.  0.
          5    1    3    3  501    0  0.62306539157E+02  0.43265490676E+01 -0.95377919083E+02  0.11410460682E+03  0.47000000000E+01 0. -1.
        -13    1    4    4    0    0  0.47283658019E+02 -0.88600690003E+02 -0.72631306602E+02  0.12394003906E+03  0.00000000000E+00 0.  1.
         14    1    4    4    0    0  0.49603608073E+02 -0.54965891446E+02  0.13211926271E+02  0.75208524465E+02  0.00000000000E+00 0. -1.
         -5    1    5    5    0  502  0.99487865634E+01  0.10662209225E+01  0.15904667721E+03  0.15943039457E+03  0.47000000000E+01 0.  1.
         11    1    6    6    0    0 -0.71551273785E+02  0.73850195381E+02  0.10947433093E+03  0.15019342619E+03  0.00000000000E+00 0. -1.
        -12    1    6    6    0    0 -0.97591318028E+02  0.64323616078E+02  0.27710024394E+03  0.30074264435E+03  0.00000000000E+00 0.  1.
</event>
<event>
12    1  0.8313893E-002  0.2308480E+03  0.7818608E-02  0.1126057E+00
         21   -1    0    0  503  502  0.00000000000E+00  0.00000000000E+00  0.21912904729E+03  0.21912904729E+03  0.00000000000E+00 0.  1.
         21   -1    0    0  501  503 -0.00000000000E+00 -0.00000000000E+00 -0.24322223271E+03  0.24322223271E+03  0.00000000000E+00 0. -1.
          6    2    1    2  501    0 -0.67812830224E+02 -0.13818666894E+03 -0.72285534559E+01  0.23088807824E+03  0.17193870208E+03 0.  0.
         24    2    3    3    0    0 -0.92172342211E+02 -0.61001403895E+02 -0.43391689645E+02  0.14211413283E+03  0.78081214613E+02 0.  0.
         -6    2    1    2    0  502  0.67812830224E+02  0.13818666894E+03 -0.16864631966E+02  0.23146320176E+03  0.17203680578E+03 0.  0.
        -24    2    5    5    0    0  0.11085613670E+03  0.82697021089E+02 -0.11579254254E+02  0.16088096272E+03  0.81367835747E+02 0.  0.
          5    1    3    3  501    0  0.24359511986E+02 -0.77185265045E+02  0.36163136189E+02  0.88773945408E+02  0.47000000000E+01 0. -1.
        -11    1    4    4    0    0 -0.27456831740E+02 -0.14862944834E+02  0.22817626868E+02  0.38670774937E+02  0.00000000000E+00 0.  1.
         12    1    4    4    0    0 -0.64715510470E+02 -0.46138459061E+02 -0.66209316513E+02  0.10344335790E+03  0.00000000000E+00 0. -1.
         -5    1    5    5    0  502 -0.43043306477E+02  0.55489647851E+02 -0.52853777121E+01  0.70582239045E+02  0.47000000000E+01 0.  1.
         13    1    6    6    0    0  0.81658867811E+02  0.34089735220E+02 -0.40399316348E+02  0.97274793759E+02  0.00000000000E+00 0. -1.
        -14    1    6    6    0    0  0.29197268890E+02  0.48607285869E+02  0.28820062094E+02  0.63606168957E+02  0.00000000000E+00 0.  1.
</event>
<event>
12    1  0.8313893E-002  0.1861278E+03  0.7818608E-02  0.1162333E+00
         21   -1    0    0  501  502  0.00000000000E+00  0.00000000000E+00  0.48249954325E+03  0.48249954325E+03  0.00000000000E+00 0.  1.
         21   -1    0    0  502  503 -0.00000000000E+00 -0.00000000000E+00 -0.78033832595E+02  0.78033832595E+02  0.00000000000E+00 0.  1.
         -6    2    1    2    0  503 -0.64390271339E+02  0.20943504746E+02  0.12031466469E+03  0.22162843172E+03  0.17337475529E+03 0.  0.
        -24    2    3    3    0    0 -0.11506704887E+02  0.69103104933E+02  0.78288918740E+02  0.13853648257E+03  0.90308132728E+02 0.  0.
          6    2    1    2  501    0  0.64390271339E+02 -0.20943504746E+02  0.28415104596E+03  0.33890494412E+03  0.17184297133E+03 0.  0.
         24    2    5    5    0    0  0.74419658825E+02 -0.90528735113E+00  0.29423854330E+03  0.31388562414E+03  0.80054728247E+02 0.  0.
          5    1    5    5  501    0 -0.10029387486E+02 -0.20038217395E+02 -0.10087497340E+02  0.25019319981E+02  0.47000000000E+01 0. -1.
        -13    1    6    6    0    0  0.45171470949E+02  0.37500445039E+02  0.12883112123E+03  0.14157755106E+03  0.00000000000E+00 0.  1.
         14    1    6    6    0    0  0.29248187876E+02 -0.38405732390E+02  0.16540742207E+03  0.17230807309E+03  0.00000000000E+00 0. -1.
         -5    1    3    3    0  503 -0.52883566452E+02 -0.48159600187E+02  0.42025745954E+02  0.83091949152E+02  0.47000000000E+01 0.  1.
         11    1    4    4    0    0  0.37275307897E+02  0.46627665005E+02  0.32572579828E+02  0.68004122517E+02  0.00000000000E+00 0. -1.
        -12    1    4    4    0    0 -0.48782012784E+02  0.22475439929E+02  0.45716338912E+02  0.70532360054E+02  0.00000000000E+00 0.  1.
</event>
<event>
12    1  0.8313893E-002  0.1911394E+03  0.7818608E-02  0.1158739E+00
         21   -1    0    0  503  502  0.00000000000E+00  0.00000000000E+00  0.48377221810E+03  0.48377221810E+03  0.00000000000E+00 0. -1.
         21   -1    0    0  501  503 -0.00000000000E+00 -0.00000000000E+00 -0.80778322801E+02  0.80778322801E+02  0.00000000000E+00 0. -1.
          6    2    1    2  501    0 -0.50974869959E+02  0.63106183941E+02  0.11269666040E+03  0.21697790251E+03  0.16672745753E+03 0.  0.
         24    2    3    3    0    0 -0.81338365873E+02  0.18486095977E+02  0.33472489742E+02  0.12100158590E+03  0.81014262405E+02 0.  0.
         -6    2    1    2    0  502  0.50974869959E+02 -0.63106183941E+02  0.29029723489E+03  0.34757263838E+03  0.17307058256E+03 0.  0.
        -24    2    5    5    0    0  0.22277588748E+02 -0.56307877682E+01  0.26634599779E+03  0.27885068503E+03  0.79306476851E+02 0.  0.
          5    1    3    3  501    0  0.30363495914E+02  0.44620087964E+02  0.79224170662E+02  0.95976316616E+02  0.47000000000E+01 0. -1.
        -11    1    4    4    0    0  0.20877665194E+01  0.11399228264E+02  0.35404277294E+02  0.37252704932E+02  0.00000000000E+00 0.  1.
         12    1    4    4    0    0 -0.83426132393E+02  0.70868677124E+01 -0.19317875516E+01  0.83748880966E+02  0.00000000000E+00 0. -1.
         -5    1    5    5    0  502  0.28697281211E+02 -0.57475396173E+02  0.23951237099E+02  0.68721953353E+02  0.47000000000E+01 0.  1.
         13    1    6    6    0    0  0.33701775278E+02 -0.19019475144E+02  0.57771127196E+02  0.69534547019E+02  0.00000000000E+00 0. -1.
        -14    1    6    6    0    0 -0.11424186530E+02  0.13388687376E+02  0.20857487060E+03  0.20931613801E+03  0.00000000000E+00 0.  1.
</event>
<event>
12    1  0.8313893E-002  0.2566389E+03  0.7818608E-02  0.1109690E+00
         21   -1    0    0  503  502  0.00000000000E+00  0.00000000000E+00  0.77848184478E+03  0.77848184478E+03  0.00000000000E+00 0. -1.
         21   -1    0    0  501  503 -0.00000000000E+00 -0.00000000000E+00 -0.91345207926E+02  0.91345207926E+02  0.00000000000E+00 0.  1.
          6    2    1    2  501    0 -0.15731816636E+03 -0.10210238693E+03  0.21828221399E+03  0.33691342327E+03  0.17518455111E+03 0.  0.
         24    2    3    3    0    0 -0.12516033587E+03 -0.30730544729E+01  0.15901612024E+03  0.21701557250E+03  0.78326744320E+02 0.  0.
         -6    2    1    2    0  502  0.15731816636E+03  0.10210238693E+03  0.46885442287E+03  0.53291362944E+03  0.17028964654E+03 0.  0.
        -24    2    5    5    0    0  0.71451110033E+02 -0.87853695631E+01  0.26820910307E+03  0.28806698303E+03  0.76576888801E+02 0.  0.
          5    1    3    3  501    0 -0.32157830495E+02 -0.99029332455E+02  0.59266093751E+02  0.11989785076E+03  0.47000000000E+01 0. -1.
        -13    1    4    4    0    0 -0.29122122667E+02  0.33960857284E+02  0.46902163016E+02  0.64817056025E+02  0.00000000000E+00 0.  1.
         14    1    4    4    0    0 -0.96038213201E+02 -0.37033911757E+02  0.11211395722E+03  0.15219851648E+03  0.00000000000E+00 0. -1.
         -5    1    5    5    0  502  0.85867056331E+02  0.11088775649E+03  0.20064531979E+03  0.24484664641E+03  0.47000000000E+01 0.  1.
         11    1    6    6    0    0  0.32767721236E+02 -0.16313584182E+02  0.23095097301E+03  0.23383371981E+03  0.00000000000E+00 0. -1.
        -12    1    6    6    0    0  0.38683388797E+02  0.75282146192E+01  0.37258130057E+02  0.54233263220E+02  0.00000000000E+00 0.  1.
</event>
<event>
12    1  0.8313893E-002  0.2414036E+03  0.7818608E-02  0.1119948E+00
         21   -1    0    0  503  502  0.00000000000E+00  0.00000000000E+00  0.28498991324E+03  0.28498991324E+03  0.00000000000E+00 0.  1.
         21   -1    0    0  501  503 -0.00000000000E+00 -0.00000000000E+00 -0.24964544049E+03  0.24964544049E+03  0.00000000000E+00 0.  1.
          6    2    1    2  501    0  0.14861144468E+03 -0.53018885277E+01 -0.10287571561E+03  0.25646183915E+03  0.18186750828E+03 0.  0.
         24    2    3    3    0    0  0.61007020449E+02  0.30792323419E+02 -0.12225709045E+03  0.15963697162E+03  0.76597276829E+02 0.  0.
         -6    2    1    2    0  502 -0.14861144468E+03  0.53018885277E+01  0.13822018837E+03  0.27817351458E+03  0.19016364592E+03 0.  0.
        -24    2    5    5    0    0 -0.80949210619E+02 -0.38790285825E+02  0.15523502188E+03  0.19550615514E+03  0.77892770558E+02 0.  0.
          5    1    3    3  501    0  0.87604424229E+02 -0.36094211947E+02  0.19381374843E+02  0.96824867526E+02  0.47000000000E+01 0. -1.
        -11    1    4    4    0    0  0.27786322868E+02 -0.24126960861E+02 -0.58888564417E+02  0.69441003723E+02  0.00000000000E+00 0.  1.
         12    1    4    4    0    0  0.33220697580E+02  0.54919284281E+02 -0.63368526035E+02  0.90195967900E+02  0.00000000000E+00 0. -1.
         -5    1    5    5    0  502 -0.67662234059E+02  0.44092174352E+02 -0.17014833516E+02  0.82667359438E+02  0.47000000000E+01 0.  1.
         13    1    6    6    0    0  0.14647241140E+02 -0.78303418507E+01  0.11794044923E+02  0.20370454638E+02  0.00000000000E+00 0. -1.
        -14    1    6    6    0    0 -0.95596451759E+02 -0.30959943974E+02  0.14344097696E+03  0.17513570050E+03  0.00000000000E+00 0.  1.
</event>
<event>
12    1  0.8313893E-002  0.5240727E+03  0.7818608E-02  0.1007873E+00
         21   -1    0    0  501  502  0.00000000000E+00  0.00000000000E+00  0.23365008240E+03  0.23365008240E+03  0.00000000000E+00 0. -1.
         21   -1    0    0  502  503 -0.00000000000E+00 -0.00000000000E+00 -0.16510514492E+04  0.16510514492E+04  0.00000000000E+00 0. -1.
         -6    2    1    2    0  503  0.13866917989E+03  0.47141722042E+03 -0.20073546352E+03  0.56120132218E+03  0.18217810114E+03 0.  0.
        -24    2    3    3    0    0  0.70702141169E+02  0.31498280383E+03 -0.54592259922E+02  0.33654342446E+03  0.77898666422E+02 0.  0.
          6    2    1    2  501    0 -0.13866917989E+03 -0.47141722042E+03 -0.12166659033E+04  0.13235002094E+04  0.17295533239E+03 0.  0.
         24    2    5    5    0    0 -0.16384524481E+03 -0.36040665432E+03 -0.88618438807E+03  0.97393290272E+03  0.80525204772E+02 0.  0.
          5    1    5    5  501    0  0.25176064920E+02 -0.11101056610E+03 -0.33048151522E+03  0.34956730673E+03  0.47000000000E+01 0. -1.
        -11    1    6    6    0    0 -0.12871134690E+03 -0.31216856126E+03 -0.67899688104E+03  0.75832221774E+03  0.00000000000E+00 0.  1.
         12    1    6    6    0    0 -0.35133897918E+02 -0.48238093061E+02 -0.20718750703E+03  0.21561068497E+03  0.00000000000E+00 0. -1.
         -5    1    3    3    0  503  0.67967038725E+02  0.15643441660E+03 -0.14614320360E+03  0.22465789772E+03  0.47000000000E+01 0.  1.
         13    1    4    4    0    0  0.78756861692E+02  0.27040085572E+03 -0.67150255272E+02  0.28953138486E+03  0.00000000000E+00 0. -1.
        -14    1    4    4    0    0 -0.80547205229E+01  0.44581948112E+02  0.12557995350E+02  0.47012039600E+02  0.00000000000E+00 0.  1.
</event>
<event>
12    1  0.8313893E-002  0.2466922E+03  0.7818608E-02  0.1115913E+00
         21   -1    0    0  503  502  0.00000000000E+00  0.00000000000E+00  0.82044319838E+03  0.82044319838E+03  0.00000000000E+00 0.  1.
         21   -1    0    0  501  503 -0.00000000000E+00 -0.00000000000E+00 -0.84725137872E+02  0.84725137872E+02  0.00000000000E+00 0. -1.
          6    2    1    2  501    0 -0.15641281547E+03 -0.82455584052E+02  0.53641850970E+03  0.59042515398E+03  0.17202660470E+03 0.  0.
         24    2    3    3    0    0 -0.13271772959E+03 -0.17672272812E+02  0.22288655261E+03  0.26936018762E+03  0.70357589256E+02 0.  0.
         -6    2    1    2    0  502  0.15641281547E+03  0.82455584052E+02  0.19929955081E+03  0.31474318227E+03  0.16756809853E+03 0.  0.
        -24    2    5    5    0    0  0.35045792557E+02  0.17069768795E+01  0.35428201997E+02  0.95366335784E+02  0.81292429894E+02 0.  0.
          5    1    3    3  501    0 -0.23695085882E+02 -0.64783311240E+02  0.31353195709E+03  0.32106496637E+03  0.47000000000E+01 0. -1.
        -13    1    4    4    0    0 -0.33153324903E+02  0.25838570638E+02  0.52139610778E+02  0.66972484624E+02  0.00000000000E+00 0.  1.
         14    1    4    4    0    0 -0.99564404689E+02 -0.43510843450E+02  0.17074694183E+03  0.20238770299E+03  0.00000000000E+00 0. -1.
         -5    1    5    5    0  502  0.12136702292E+03  0.80748607172E+02  0.16387134881E+03  0.21937684648E+03  0.47000000000E+01 0.  1.
         13    1    6    6    0    0  0.52127119397E+02  0.23413762165E+02  0.10380894663E+02  0.58079288988E+02  0.00000000000E+00 0. -1.
        -14    1    6    6    0    0 -0.17081326840E+02 -0.21706785285E+02  0.25047307334E+02  0.37287046796E+02  0.00000000000E+00 0.  1.
</event>
<event>
12    1  0.8313893E-002  0.2819751E+03  0.7818608E-02  0.1094979E+00
         21   -1    0    0  501  502  0.00000000000E+00  0.00000000000E+00  0.34680391913E+03  0.34680391913E+03  0.00000000000E+00 0. -1.
         21   -1    0    0  502  503 -0.00000000000E+00 -0.00000000000E+00 -0.22740855873E+03  0.22740855873E+03  0.00000000000E+00 0. -1.
         -6    2    1    2    0  503 -0.19909031231E+03 -0.10174736676E+03  0.49277301621E+02  0.28624854972E+03  0.17181530976E+03 0.  0.
        -24    2    3    3    0    0 -0.19130731654E+03 -0.13458598281E+03  0.44180322522E+02  0.25179540875E+03  0.82080148867E+02 0.  0.
          6    2    1    2  501    0  0.19909031231E+03  0.10174736676E+03  0.70118058778E+02  0.28796392813E+03  0.16738340014E+03 0.  0.
         24    2    5    5    0    0  0.21517957321E+03  0.11197618185E+03  0.77743579822E+02  0.26689899173E+03  0.79687474257E+02 0.  0.
          5    1    5    5  501    0 -0.16089260903E+02 -0.10228815094E+02 -0.76255210440E+01  0.21064936406E+02  0.47000000000E+01 0. -1.
        -13    1    6    6    0    0  0.23812597734E+02  0.27453930505E+02 -0.13361191912E+02  0.38720531509E+02  0.00000000000E+00 0.  1.
         14    1    6    6    0    0  0.19136697547E+03  0.84522251346E+02  0.91104771734E+02  0.22817846022E+03  0.00000000000E+00 0. -1.
         -5    1    3    3    0  503 -0.77829957690E+01  0.32838616051E+02  0.50969790993E+01  0.34453140978E+02  0.47000000000E+01 0.  1.
         13    1    4    4    0    0 -0.11198898880E+03 -0.91441125810E+02 -0.12610009641E+02  0.14512761779E+03  0.00000000000E+00 0. -1.
        -14    1    4    4    0    0 -0.79318327738E+02 -0.43144856998E+02  0.56790332163E+02  0.10666779096E+03  0.00000000000E+00 0.  1.
</event>
<event>
12    1  0.8313893E-002  0.1784108E+03  0.7818608E-02  0.1169969E+00
         21   -1    0    0  503  502  0.00000000000E+00  0.00000000000E+00  0.81042998994E+03  0.81042998994E+03  0.00000000000E+00 0. -1.
         21   -1    0    0  501  503 -0.00000000000E+00 -0.00000000000E+00 -0.44823507615E+02  0.44823507615E+02  0.00000000000E+00 0. -1.
          6    2    1    2  501    0  0.31836746784E+02  0.36037101002E+02  0.53818811796E+03  0.56620416153E+03  0.16919944185E+03 0.  0.
         24    2    3    3    0    0  0.28421194611E+02 -0.42233322381E+02  0.34033192805E+03  0.35334954669E+03  0.80241280346E+02 0.  0.
         -6    2    1    2    0  502 -0.31836746784E+02 -0.36037101002E+02  0.22741836436E+03  0.28904933603E+03  0.17180848382E+03 0.  0.
        -24    2    5    5    0    0  0.13274965429E+02 -0.59047565894E+02  0.21441053884E+03  0.23655322571E+03  0.79515468209E+02 0.  0.
          5    1    3    3  501    0  0.34155521727E+01  0.78270423383E+02  0.19785618991E+03  0.21285461484E+03  0.47000000000E+01 0. -1.
        -13    1    4    4    0    0 -0.22415758752E+02 -0.36394953752E+02  0.12841491770E+03  0.13534197422E+03  0.00000000000E+00 0.  1.
         14    1    4    4    0    0  0.50836953364E+02 -0.58383686289E+01  0.21191701035E+03  0.21800757247E+03  0.00000000000E+00 0. -1.
         -5    1    5    5    0  502 -0.45111712213E+02  0.23010464892E+02  0.13007825528E+02  0.52496110316E+02  0.47000000000E+01 0.  1.
         13    1    6    6    0    0 -0.16495230824E+02 -0.15228930167E+02  0.86111689428E+01  0.24045065701E+02  0.00000000000E+00 0. -1.
        -14    1    6    6    0    0  0.29770196253E+02 -0.43818635727E+02  0.20579936989E+03  0.21250816001E+03  0.00000000000E+00 0.  1.
</event>
<event>
12    1  0.8313893E-002  0.2105958E+03  0.7818608E-02  0.1141847E+00
         21   -1    0    0  501  502  0.00000000000E+00  0.00000000000E+00  0.74268172484E+02  0.74268172484E+02  0.00000000000E+00 0.  1.
         21   -1    0    0  502  503 -0.00000000000E+00 -0.00000000000E+00 -0.12012396722E+04  0.12012396722E+04  0.00000000000E+00 0.  1.
         -6    2    1    2    0  503  0.52776557986E+02  0.10294120896E+03 -0.10221881069E+04  0.10436565988E+04  0.17597815978E+03 0.  0.
        -24    2    3    3    0    0 -0.83987510803E+01  0.11742542501E+03 -0.78630991179E+03  0.79949922354E+03  0.84002747667E+02 0.  0.
          6    2    1    2  501    0 -0.52776557986E+02 -0.10294120896E+03 -0.10478339275E+03  0.23185124583E+03  0.17144440272E+03 0.  0.
         24    2    5    5    0    0 -0.32205015532E+02  0.12395344923E+02 -0.23906849818E+02  0.89412437155E+02  0.78944530201E+02 0.  0.
          5    1    5    5  501    0 -0.20571542454E+02 -0.11533655389E+03 -0.80876542930E+02  0.14243880868E+03  0.47000000000E+01 0. -1.
        -13    1    6    6    0    0 -0.49903787537E+02  0.15987994467E+02 -0.39444500625E+02  0.65588662185E+02  0.00000000000E+00 0.  1.
         14    1    6    6    0    0  0.17698772006E+02 -0.35926495431E+01  0.15537650807E+02  0.23823774971E+02  0.00000000000E+00 0. -1.
         -5    1    3    3    0  503  0.61175309066E+02 -0.14484216046E+02 -0.23587819513E+03  0.24415737526E+03  0.47000000000E+01 0.  1.
         11    1    4    4    0    0  0.25388910865E+02  0.72964788185E+01 -0.22088943766E+03  0.22246343310E+03  0.00000000000E+00 0. -1.
        -12    1    4    4    0    0 -0.33787661946E+02  0.11012894619E+03 -0.56542047413E+03  0.57703579044E+03  0.00000000000E+00 0.  1.
</event>
<event>
12    1  0.8313893E-002  0.1776043E+03  0.7818608E-02  0.1170365E+00
         21   -1    0    0  501  502  0.00000000000E+00  0.00000000000E+00  0.15943775934E+03  0.15943775934E+03  0.00000000000E+00 0.  1.
         21   -1    0    0  502  503 -0.00000000000E+00 -0.00000000000E+00 -0.20425850634E+03  0.20425850634E+03  0.00000000000E+00 0.  1.
         -6    2    1    2    0  503  0.29576228418E+02 -0.30770573769E+02 -0.57134712312E+02  0.18656810068E+03  0.17239982408E+03 0.  0.
        -24    2    3    3    0    0  0.28286598810E+02 -0.68520012427E+01 -0.90894224680E+02  0.14490809670E+03  0.10903905179E+03 0.  0.
          6    2    1    2  501    0 -0.29576228418E+02  0.30770573769E+02  0.12313965312E+02  0.17712816500E+03  0.17146769841E+03 0.  0.
         24    2    5    5    0    0 -0.71008218354E+02  0.26710843835E+02 -0.33647830641E+02  0.11493758786E+03  0.79516264658E+02 0.  0.
          5    1    5    5  501    0  0.41431989935E+02  0.40597299335E+01  0.45961795954E+02  0.62190577135E+02  0.47000000000E+01 0. -1.
        -11    1    6    6    0    0 -0.12802958355E+02  0.11078586537E+02 -0.49753068192E+02  0.52554910492E+02  0.00000000000E+00 0.  1.
         12    1    6    6    0    0 -0.58205259998E+02  0.15632257298E+02  0.16105237551E+02  0.62382677373E+02  0.00000000000E+00 0. -1.
         -5    1    3    3    0  503  0.12896296085E+01 -0.23918572526E+02  0.33759512368E+02  0.41660003979E+02  0.47000000000E+01 0.  1.
         13    1    4    4    0    0  0.64937296959E+02 -0.16851089419E+01 -0.25538130521E+02  0.69798912878E+02  0.00000000000E+00 0. -1.
        -14    1    4    4    0    0 -0.36650698149E+02 -0.51668923007E+01 -0.65356094159E+02  0.75109183823E+02  0.00000000000E+00 0.  1.
</event>
<event>
12    1  0.8313893E-002  0.1951875E+03  0.7818608E-02  0.1154876E+00
         21   -1    0    0  503  502  0.00000000000E+00  0.00000000000E+00  0.18900740567E+03  0.18900740567E+03  0.00000000000E+00 0.  1.
         21   -1    0    0  501  503 -0.00000000000E+00 -0.00000000000E+00 -0.21647962039E+03  0.21647962039E+03  0.00000000000E+00 0.  1.
          6    2    1    2  501    0  0.89493296552E+01 -0.81338564843E+02  0.47448410365E+02  0.19641468078E+03  0.17213751057E+03 0.  0.
         24    2    3    3    0    0 -0.32880253188E+01  0.23875742693E+02  0.33557803556E+02  0.89480858604E+02  0.79371504190E+02 0.  0.
         -6    2    1    2    0  502 -0.89493296552E+01  0.81338564843E+02 -0.74920625091E+02  0.20907234528E+03  0.17720635673E+03 0.  0.
        -24    2    5    5    0    0 -0.41228577696E+02 -0.23028537703E+02 -0.29589539468E+02  0.90702419744E+02  0.71563111544E+02 0.  0.
          5    1    3    3  501    0  0.12237354974E+02 -0.10521430754E+03  0.13890606809E+02  0.10693382217E+03  0.47000000000E+01 0. -1.
        -11    1    4    4    0    0 -0.24777803988E+02 -0.16912333538E+02 -0.36710736195E+01  0.30223225799E+02  0.00000000000E+00 0.  1.
         12    1    4    4    0    0  0.21489778669E+02  0.40788076231E+02  0.37228877175E+02  0.59257632805E+02  0.00000000000E+00 0. -1.
         -5    1    5    5    0  502  0.32279248041E+02  0.10436710255E+03 -0.45331085622E+02  0.11836992554E+03  0.47000000000E+01 0.  1.
         13    1    6    6    0    0 -0.54183924125E+01 -0.15618609825E+02  0.21967560404E+02  0.27493156591E+02  0.00000000000E+00 0. -1.
        -14    1    6    6    0    0 -0.35810185284E+02 -0.74099278780E+01 -0.51557099872E+02  0.63209263154E+02  0.00000000000E+00 0.  1.
</event>
<event>
12    1  0.8313893E-002  0.1911285E+03  0.7818608E-02  0.1157540E+00
         21   -1    0    0  503  502  0.00000000000E+00  0.00000000000E+00  0.43056488095E+03  0.43056488095E+03  0.00000000000E+00 0.  1.
         21   -1    0    0  501  503 -0.00000000000E+00 -0.00000000000E+00 -0.15063602115E+03  0.15063602115E+03  0.00000000000E+00 0.  1.
          6    2    1    2  501    0 -0.52732293365E+02 -0.61986125642E+02 -0.52443267432E+02  0.19779334750E+03  0.17247880299E+03 0.  0.
         24    2    3    3    0    0 -0.34511308375E+02 -0.91929229310E+02  0.98338520928E+01  0.12617544912E+03  0.78622679345E+02 0.  0.
         -6    2    1    2    0  502  0.52732293365E+02  0.61986125642E+02  0.33237212723E+03  0.38340755460E+03  0.17293683075E+03 0.  0.
        -24    2    5    5    0    0  0.43932864145E+02 -0.18555010302E+00  0.60580152994E+02  0.10441702702E+03  0.72820530174E+02 0.  0.
          5    1    3    3  501    0 -0.18220984989E+02  0.29943103668E+02 -0.62277119524E+02  0.71617898374E+02  0.47000000000E+01 0. -1.
        -13    1    4    4    0    0 -0.13195690562E+02 -0.48059408164E+01 -0.26031115066E+02  0.29577732640E+02  0.00000000000E+00 0.  1.
         14    1    4    4    0    0 -0.21315617814E+02 -0.87123288493E+02  0.35864967159E+02  0.96597716484E+02  0.00000000000E+00 0. -1.
         -5    1    5    5    0  502  0.87994292193E+01  0.62171675745E+02  0.27179197424E+03  0.27899052758E+03  0.47000000000E+01 0.  1.
         11    1    6    6    0    0  0.22922105904E+02 -0.28944063021E+02  0.34339823682E+01  0.37080641285E+02  0.00000000000E+00 0. -1.
        -12    1    6    6    0    0  0.21010758242E+02  0.28758512918E+02  0.57146170626E+02  0.67336385739E+02  0.00000000000E+00 0.  1.
</event>
<event>
12    1  0.8313893E-002  0.2134460E+03  0.7818608E-02  0.1139087E+00
         21   -1    0    0  501  502  0.00000000000E+00  0.00000000000E+00  0.38104885244E+03  0.38104885244E+03  0.00000000000E+00 0. -1.
         21   -1    0    0  502  503 -0.00000000000E+00 -0.00000000000E+00 -0.11946624559E+03  0.11946624559E+03  0.00000000000E+00 0.  1.
         -6    2    1    2    0  503  0.77219392115E+02  0.96739199899E+02  0.14729066687E+03  0.25839562620E+03  0.17248899030E+03 0.  0.
        -24    2    3    3    0    0  0.22210689954E+02  0.12292752965E+03  0.12205294840E+03  0.19228346119E+03  0.80445726666E+02 0.  0.
          6    2    1    2  501    0 -0.77219392115E+02 -0.96739199899E+02  0.11429193998E+03  0.24211947183E+03  0.17389043614E+03 0.  0.
         24    2    5    5    0    0 -0.10176441971E+03 -0.10345071808E+03  0.13093443992E+03  0.21135316461E+03  0.80425645450E+02 0.  0.
          5    1    5    5  501    0  0.24545027590E+02  0.67115181771E+01 -0.16642499942E+02  0.30766307220E+02  0.47000000000E+01 0. -1.
        -11    1    6    6    0    0 -0.36951699281E+02  0.70019190140E+01  0.25091382868E+02  0.45210977029E+02  0.00000000000E+00 0.  1.
         12    1    6    6    0    0 -0.64812720424E+02 -0.11045263709E+03  0.10584305705E+03  0.16614218758E+03  0.00000000000E+00 0. -1.
         -5    1    3    3    0  503  0.55008702161E+02 -0.26188329753E+02  0.25237718470E+02  0.66112165010E+02  0.47000000000E+01 0.  1.
         11    1    4    4    0    0  0.17462119985E+02 -0.10550756187E+01  0.39653165917E+02  0.43340655119E+02  0.00000000000E+00 0. -1.
        -12    1    4    4    0    0  0.47485699692E+01  0.12398260527E+03  0.82399782483E+02  0.14894280607E+03  0.00000000000E+00 0.  1.
</event>
<event>
12    1  0.8313893E-002  0.1864957E+03  0.7818608E-02  0.1161665E+00
         21   -1    0    0  501  502  0.00000000000E+00  0.00000000000E+00  0.79561112041E+02  0.79561112041E+02  0.00000000000E+00 0.  1.
         21   -1    0    0  502  503 -0.00000000000E+00 -0.00000000000E+00 -0.53480607817E+03  0.53480607817E+03  0.00000000000E+00 0.  1.
         -6    2    1    2    0  503 -0.37725206561E+02 -0.60793355182E+02 -0.35890575417E+03  0.40445791630E+03  0.17220291065E+03 0.  0.
        -24    2    3    3    0    0 -0.79871995817E+02 -0.31703758244E+02 -0.31689721280E+03  0.33805487388E+03  0.80452409981E+02 0.  0.
          6    2    1    2  501    0  0.37725206561E+02  0.60793355182E+02 -0.96339211957E+02  0.20990927391E+03  0.17222553895E+03 0.  0.
         24    2    5    5    0    0  0.88070657284E+01  0.10109537892E+03 -0.93347467590E+02  0.15999382018E+03  0.81156840418E+02 0.  0.
          5    1    5    5  501    0  0.28918140833E+02 -0.40302023733E+02 -0.29917443673E+01  0.49915453725E+02  0.47000000000E+01 0. -1.
        -11    1    6    6    0    0  0.44959302590E+02  0.48833751934E+02 -0.48860725721E+02  0.82422355798E+02  0.00000000000E+00 0.  1.
         12    1    6    6    0    0 -0.36152236861E+02  0.52261626981E+02 -0.44486741869E+02  0.77571464385E+02  0.00000000000E+00 0. -1.
         -5    1    3    3    0  503  0.42146789256E+02 -0.29089596938E+02 -0.42008541372E+02  0.66403042421E+02  0.47000000000E+01 0.  1.
         13    1    4    4    0    0  0.14971861158E+02  0.44736417948E+01 -0.31943607382E+02  0.35560710764E+02  0.00000000000E+00 0. -1.
        -14    1    4    4    0    0 -0.94843856975E+02 -0.36177400039E+02 -0.28495360542E+03  0.30249416312E+03  0.00000000000E+00 0.  1.
</event>
<event>
12    1  0.8313893E-002  0.1994209E+03  0.7818608E-02  0.1150269E+00
         21   -1    0    0  503  502  0.00000000000E+00  0.00000000000E+00  0.13080946469E+04  0.13080946469E+04  0.00000000000E+00 0.  1.
         21   -1    0    0  501  503 -0.00000000000E+00 -0.00000000000E+00 -0.43359685025E+02  0.43359685025E+02  0.00000000000E+00 0.  1.
          6    2    1    2  501    0 -0.91106579183E+02  0.45496990131E+02  0.26276776264E+03  0.32987207843E+03  0.17145934260E+03 0.  0.
         24    2    3    3    0    0 -0.75593124048E+02 -0.21080819923E+02  0.89574903560E+02  0.14361653216E+03  0.80270315744E+02 0.  0.
         -6    2    1    2    0  502  0.91106579183E+02 -0.45496990131E+02  0.10019671992E+04  0.10215822535E+04  0.17123564881E+03 0.  0.
        -24    2    5    5    0    0  0.18866678735E+02 -0.82500248770E+02  0.51389754001E+03  0.52678742064E+03  0.79069983535E+02 0.  0.
          5    1    3    3  501    0 -0.15513455136E+02  0.66577810054E+02  0.17319285908E+03  0.18625554628E+03  0.47000000000E+01 0. -1.
        -11    1    4    4    0    0 -0.44624438398E+02  0.27781562337E+02  0.29768595427E+02  0.60409643120E+02  0.00000000000E+00 0.  1.
         12    1    4    4    0    0 -0.30968685650E+02 -0.48862382260E+02  0.59806308133E+02  0.83206889039E+02  0.00000000000E+00 0. -1.
         -5    1    5    5    0  502  0.72239900449E+02  0.37003258639E+02  0.48806965922E+03  0.49479483285E+03  0.47000000000E+01 0.  1.
         11    1    6    6    0    0 -0.16082807033E+02 -0.18283811229E+01  0.23275492689E+02  0.28350453604E+02  0.00000000000E+00 0. -1.
        -12    1    6    6    0    0  0.34949485768E+02 -0.80671867647E+02  0.49062204733E+03  0.49843696703E+03  0.00000000000E+00 0.  1.
</event>
<event>
12    1  0.8313893E-002  0.1750593E+03  0.7818608E-02  0.1173295E+00
         21   -1    0    0  503  502  0.00000000000E+00  0.00000000000E+00  0.55507537699E+02  0.55507537699E+02  0.00000000000E+00 0.  1.
         21   -1    0    0  501  503 -0.00000000000E+00 -0.00000000000E+00 -0.68383105471E+03  0.68383105471E+03  0.00000000000E+00 0.  1.
          6    2    1    2  501    0  0.26326648876E+02  0.99451060836E+01 -0.47933612362E+03  0.50946251848E+03  0.17028488115E+03 0.  0.
         24    2    3    3    0    0  0.62923074811E+02  0.52192638161E+02 -0.26095318808E+03  0.28399112585E+03  0.76622505639E+02 0.  0.
         -6    2    1    2    0  502 -0.26326648876E+02 -0.99451060836E+01 -0.14898739339E+03  0.22987607393E+03  0.17278243082E+03 0.  0.
        -24    2    5    5    0    0 -0.52602783696E+02  0.34289373658E+02 -0.14670807447E+03  0.17816137820E+03  0.79217444862E+02 0.  0.
          5    1    3    3  501    0 -0.36596425935E+02 -0.42247532078E+02 -0.21838293554E+03  0.22547139263E+03  0.47000000000E+01 0. -1.
        -13    1    4    4    0    0  0.50664722466E+02  0.72426720154E+02 -0.20568229991E+03  0.22386994526E+03  0.00000000000E+00 0.  1.
         14    1    4    4    0    0  0.12258352345E+02 -0.20234081993E+02 -0.55270888170E+02  0.60121180589E+02  0.00000000000E+00 0. -1.
         -5    1    5    5    0  502  0.26276134820E+02 -0.44234479741E+02 -0.22793189163E+01  0.51714695724E+02  0.47000000000E+01 0.  1.
         13    1    6    6    0    0 -0.32495793822E+02  0.79142613020E+01 -0.14049247788E+03  0.14441865700E+03  0.00000000000E+00 0. -1.
        -14    1    6    6    0    0 -0.20106989875E+02  0.26375112356E+02 -0.62155965922E+01  0.33742721209E+02  0.00000000000E+00 0.  1.
</event>
<event>
12    1  0.8313893E-002  0.1756244E+03  0.7818608E-02  0.1172339E+00
         21   -1    0    0  501  502  0.00000000000E+00  0.00000000000E+00  0.34672378632E+03  0.34672378632E+03  0.00000000000E+00 0.  1.
         21   -1    0    0  502  503 -0.00000000000E+00 -0.00000000000E+00 -0.12555504497E+03  0.12555504497E+03  0.00000000000E+00 0.  1.
         -6    2    1    2    0  503 -0.33310982837E+02 -0.12925361992E+02 -0.17928573194E+02  0.17561155599E+03  0.17100087222E+03 0.  0.
        -24    2    3    3    0    0 -0.17458930465E+02 -0.26382287754E+02  0.56600483930E+02  0.98093514409E+02  0.73606273021E+02 0.  0.
          6    2    1    2  501    0  0.33310982837E+02  0.12925361992E+02  0.23909731454E+03  0.29666727530E+03  0.17195132990E+03 0.  0.
         24    2    5    5    0    0 -0.16924776687E+02 -0.11115723163E+02  0.40708887825E+02  0.90556472174E+02  0.78315092653E+02 0.  0.
          5    1    5    5  501    0  0.50235759523E+02  0.24041085155E+02  0.19838842672E+03  0.20611080313E+03  0.47000000000E+01 0. -1.
        -13    1    6    6    0    0 -0.84154051133E+01  0.32149807863E+02  0.30911653442E+02  0.45386776790E+02  0.00000000000E+00 0.  1.
         14    1    6    6    0    0 -0.85093715733E+01 -0.43265531026E+02  0.97972343836E+01  0.45169695384E+02  0.00000000000E+00 0. -1.
         -5    1    3    3    0  503 -0.15852052372E+02  0.13456925762E+02 -0.74529057124E+02  0.77518041585E+02  0.47000000000E+01 0.  1.
         13    1    4    4    0    0  0.25294374218E+02 -0.22136776680E+02  0.39463460198E+02  0.51838276781E+02  0.00000000000E+00 0. -1.
        -14    1    4    4    0    0 -0.42753304684E+02 -0.42455110741E+01  0.17137023732E+02  0.46255237628E+02  0.00000000000E+00 0.  1.
</event>
<event>
12    1  0.8313893E-002  0.1764202E+03  0.7818608E-02  0.1171447E+00
         21   -1    0    0  503  502  0.00000000000E+00  0.00000000000E+00  0.52709620769E+02  0.52709620769E+02  0.00000000000E+00 0.  1.
         21   -1    0    0  501  503 -0.00000000000E+00 -0.00000000000E+00 -0.74443098602E+03  0.74443098602E+03  0.00000000000E+00 0.  1.
          6    2    1    2  501    0  0.33819001557E+02  0.26667981597E+02 -0.52858634108E+03  0.55725004803E+03  0.17108240687E+03 0.  0.
         24    2    3    3    0    0 -0.44399918862E+02 -0.67907910732E+01 -0.27914142511E+03  0.29365462871E+03  0.79345057275E+02 0.  0.
         -6    2    1    2    0  502 -0.33819001557E+02 -0.26667981597E+02 -0.16313502417E+03  0.23989055876E+03  0.17052723525E+03 0.  0.
        -24    2    5    5    0    0  0.68358205914E+01 -0.51213442761E+02 -0.32732536955E+02  0.10103022281E+03  0.80412323580E+02 0.  0.
          5    1    3    3  501    0  0.78218920420E+02  0.33458772670E+02 -0.24944491597E+03  0.26359541932E+03  0.47000000000E+01 0. -1.
        -13    1    4    4    0    0  0.71914214367E+01  0.36941236129E+01 -0.18967977586E+03  0.18985199620E+03  0.00000000000E+00 0.  1.
         14    1    4    4    0    0 -0.51591340299E+02 -0.10484914686E+02 -0.89461649251E+02  0.10380263251E+03  0.00000000000E+00 0. -1.
         -5    1    5    5    0  502 -0.40654822149E+02  0.24545461163E+02 -0.13040248721E+03  0.13886033595E+03  0.47000000000E+01 0.  1.
         11    1    6    6    0    0 -0.14861327954E+02 -0.61209819865E+02 -0.41669785567E+02  0.75523983910E+02  0.00000000000E+00 0. -1.
        -12    1    6    6    0    0  0.21697148546E+02  0.99963771041E+01  0.89372486120E+01  0.25506238903E+02  0.00000000000E+00 0.  1.
</event>
<event>
12    1  0.8313893E-002  0.2510454E+03  0.7818608E-02  0.1113038E+00
         21   -1    0    0  503  502  0.00000000000E+00  0.00000000000E+00  0.26911261126E+03  0.26911261126E+03  0.00000000000E+00 0. -1.
         21   -1    0    0  501  503 -0.00000000000E+00 -0.00000000000E+00 -0.46156131253E+03  0.46156131253E+03  0.00000000000E+00 0.  1.
          6    2    1    2  501    0  0.14322587875E+03  0.10719598817E+03 -0.35417687051E+03  0.43412560011E+03  0.17612253929E+03 0.  0.
         24    2    3    3    0    0  0.64934347761E+02  0.74510860102E+02 -0.31487576595E+03  0.34050643412E+03  0.83842387284E+02 0.  0.
         -6    2    1    2    0  502 -0.14322587875E+03 -0.10719598817E+03  0.16172816923E+03  0.29654832368E+03  0.17256962459E+03 0.  0.
        -24    2    5    5    0    0 -0.16840131013E+03 -0.11660209256E+03  0.13301847139E+03  0.25694259309E+03  0.79815619841E+02 0.  0.
          5    1    3    3  501    0  0.78291530985E+02  0.32685128064E+02 -0.39301104558E+02  0.93619165986E+02  0.47000000000E+01 0. -1.
        -13    1    4    4    0    0  0.67467935418E+02  0.62051819359E+02 -0.15463359868E+03  0.17976067545E+03  0.00000000000E+00 0.  1.
         14    1    4    4    0    0 -0.25335876571E+01  0.12459040743E+02 -0.16024216726E+03  0.16074575868E+03  0.00000000000E+00 0. -1.
         -5    1    5    5    0  502  0.25175431381E+02  0.94061043976E+01  0.28709697845E+02  0.39605730589E+02  0.47000000000E+01 0.  1.
         13    1    6    6    0    0 -0.12307753217E+03 -0.72415351409E+02  0.13072832739E+03  0.19360257650E+03  0.00000000000E+00 0. -1.
        -14    1    6    6    0    0 -0.45323777957E+02 -0.44186741155E+02  0.22901439971E+01  0.63340016591E+02  0.00000000000E+00 0.  1.
</event>
<event>
12    1  0.8313893E-002  0.1918254E+03  0.7818608E-02  0.1160883E+00
         21   -1    0    0  503  502  0.00000000000E+00  0.00000000000E+00  0.39957386332E+03  0.39957386332E+03  0.00000000000E+00 0. -1.
         21   -1    0    0  501  503 -0.00000000000E+00 -0.00000000000E+00 -0.30615231402E+03  0.30615231402E+03  0.00000000000E+00 0. -1.
          6    2    1    2  501    0  0.77830461585E+01  0.23865990346E+00 -0.25441091867E+03  0.30850529660E+03  0.17432719160E+03 0.  0.
         24    2    3    3    0    0 -0.51470949380E+02  0.35725183418E+02 -0.16228725664E+03  0.19326993552E+03  0.84205504264E+02 0.  0.
         -6    2    1    2    0  502 -0.77830461585E+01 -0.23865990346E+00  0.34783246797E+03  0.39722088073E+03  0.19166734086E+03 0.  0.
        -24    2    5    5    0    0  0.40531734532E+02  0.58822990119E+02  0.25883675270E+03  0.27989686839E+03  0.79011560637E+02 0.  0.
          5    1    3    3  501    0  0.59253995539E+02 -0.35486523514E+02 -0.92123662031E+02  0.11523536109E+03  0.47000000000E+01 0. -1.
        -11    1    4    4    0    0  0.20440185456E+02  0.32149026641E+01 -0.13084806405E+02  0.24481604100E+02  0.00000000000E+00 0.  1.
         12    1    4    4    0    0 -0.71911134837E+02  0.32510280754E+02 -0.14920245023E+03  0.16878833142E+03  0.00000000000E+00 0. -1.
         -5    1    5    5    0  502 -0.48314780691E+02 -0.59061650022E+02  0.88995715269E+02  0.11732401234E+03  0.47000000000E+01 0.  1.
         11    1    6    6    0    0  0.36142761306E+02  0.15719868667E+02  0.21380283048E+03  0.21740529843E+03  0.00000000000E+00 0. -1.
        -12    1    6    6    0    0  0.43889732259E+01  0.43103121452E+02  0.45033922222E+02  0.62491569956E+02  0.00000000000E+00 0.  1.
</event>
<event>
12    1  0.8313893E-002  0.1960485E+03  0.7818608E-02  0.1153225E+00
         21   -1    0    0  501  502  0.00000000000E+00  0.00000000000E+00  0.36771970377E+02  0.36771970377E+02  0.00000000000E+00 0.  1.
         21   -1    0    0  502  503 -0.00000000000E+00 -0.00000000000E+00 -0.12235927418E+04  0.12235927418E+04  0.00000000000E+00 0.  1.
         -6    2    1    2    0  503 -0.73422148166E+02 -0.61944945700E+02 -0.35165719729E+03  0.40261371333E+03  0.17090064253E+03 0.  0.
        -24    2    3    3    0    0 -0.78181103603E+01 -0.59151396512E+02 -0.31066460284E+03  0.32506259153E+03  0.74787581807E+02 0.  0.
          6    2    1    2  501    0  0.73422148166E+02  0.61944945700E+02 -0.83516357412E+03  0.85775099883E+03  0.17032496095E+03 0.  0.
         24    2    5    5    0    0  0.95529959169E+02  0.66518226739E+02 -0.44103880251E+03  0.46295219463E+03  0.79112967344E+02 0.  0.
          5    1    5    5  501    0 -0.22107811003E+02 -0.45732810391E+01 -0.39412477160E+03  0.39479880420E+03  0.47000000000E+01 0. -1.
        -13    1    6    6    0    0  0.70935748392E+02  0.25616192352E+01 -0.25501582176E+03  0.26471024090E+03  0.00000000000E+00 0.  1.
         14    1    6    6    0    0  0.24594210777E+02  0.63956607504E+02 -0.18602298076E+03  0.19824195373E+03  0.00000000000E+00 0. -1.
         -5    1    3    3    0  503 -0.65604037806E+02 -0.27935491885E+01 -0.40992594448E+02  0.77551121804E+02  0.47000000000E+01 0.  1.
         13    1    4    4    0    0 -0.15076992876E+01 -0.15895056634E+02 -0.56579509179E+01  0.16939255920E+02  0.00000000000E+00 0. -1.
        -14    1    4    4    0    0 -0.63104110727E+01 -0.43256339878E+02 -0.30500665193E+03  0.30812333561E+03  0.00000000000E+00 0.  1.
</event>
<event>
12    1  0.8313893E-002  0.2067040E+03  0.7818608E-02  0.1144300E+00
         21   -1    0    0  503  502  0.00000000000E+00  0.00000000000E+00  0.26128257165E+03  0.26128257165E+03  0.00000000000E+00 0.  1.
         21   -1    0    0  501  503 -0.00000000000E+00 -0.00000000000E+00 -0.18701790000E+03  0.18701790000E+03  0.00000000000E+00 0. -1.
          6    2    1    2  501    0  0.34213167375E+02  0.10874017065E+03  0.11717501281E+03  0.23718952776E+03  0.17185436542E+03 0.  0.
         24    2    3    3    0    0  0.73561016334E+02  0.21862224736E+02  0.55546167046E+02  0.12353991124E+03  0.79294091836E+02 0.  0.
         -6    2    1    2    0  502 -0.34213167375E+02 -0.10874017065E+03 -0.42910341164E+02  0.21111094390E+03  0.17242844232E+03 0.  0.
        -24    2    5    5    0    0  0.34330966015E+02 -0.25521769049E+02 -0.52482482464E+02  0.10277204749E+03  0.77315631383E+02 0.  0.
          5    1    3    3  501    0 -0.39347848959E+02  0.86877945917E+02  0.61628845769E+02  0.11364961652E+03  0.47000000000E+01 0. -1.
        -11    1    4    4    0    0  0.71090701022E+02  0.45573668458E+02  0.52678582261E+02  0.99528287725E+02  0.00000000000E+00 0.  1.
         12    1    4    4    0    0  0.24703153120E+01 -0.23711443722E+02  0.28675847846E+01  0.24011623510E+02  0.00000000000E+00 0. -1.
         -5    1    5    5    0  502 -0.68544133389E+02 -0.83218401604E+02  0.95721413006E+01  0.10833889642E+03  0.47000000000E+01 0.  1.
         11    1    6    6    0    0  0.34782928757E+02 -0.50716842262E+02 -0.45866527835E+02  0.76718893355E+02  0.00000000000E+00 0. -1.
        -12    1    6    6    0    0 -0.45196274225E+00  0.25195073214E+02 -0.66159546297E+01  0.26053154132E+02  0.00000000000E+00 0.  1.
</event>
<event>
12    1  0.8313893E-002  0.1872536E+03  0.7818608E-02  0.1161139E+00
         21   -1    0    0  503  502  0.00000000000E+00  0.00000000000E+00  0.19098420076E+03  0.19098420076E+03  0.00000000000E+00 0.  1.
         21   -1    0    0  501  503 -0.00000000000E+00 -0.00000000000E+00 -0.23037818367E+03  0.23037818367E+03  0.00000000000E+00 0. -1.
          6    2    1    2  501    0 -0.36335811733E+02 -0.63556601195E+02 -0.11536501893E+03  0.21928440959E+03  0.17151335786E+03 0.  0.
         24    2    3    3    0    0  0.11839798347E+02 -0.31258584042E+01  0.38216052376E-01  0.80314050427E+02  0.79375017606E+02 0.  0.
         -6    2    1    2    0  502  0.36335811733E+02  0.63556601195E+02  0.75971036015E+02  0.20207797485E+03  0.17234899720E+03 0.  0.
        -24    2    5    5    0    0 -0.27738973931E+02  0.85736126516E+02  0.48528781757E+02  0.12877942902E+03  0.78159865761E+02 0.  0.
          5    1    3    3  501    0 -0.48175610080E+02 -0.60430742791E+02 -0.11540323498E+03  0.13897035916E+03  0.47000000000E+01 0. -1.
        -11    1    4    4    0    0 -0.25484750816E+01 -0.40126323987E+02 -0.40197492469E+01  0.40407610496E+02  0.00000000000E+00 0.  1.
         12    1    4    4    0    0  0.14388273429E+02  0.37000465583E+02  0.40579652993E+01  0.39906439931E+02  0.00000000000E+00 0. -1.
         -5    1    5    5    0  502  0.64074785665E+02 -0.22179525320E+02  0.27442254258E+02  0.73298545826E+02  0.47000000000E+01 0.  1.
         13    1    6    6    0    0  0.15154985789E+02  0.62083362225E+02  0.64987758289E+01  0.64235905432E+02  0.00000000000E+00 0. -1.
        -14    1    6    6    0    0 -0.42893959720E+02  0.23652764290E+02  0.42030005928E+02  0.64543523590E+02  0.00000000000E+00 0.  1.
</event>
<event>
12    1  0.8313893E-002  0.1851133E+03  0.7818608E-02  0.1163689E+00
         21   -1    0    0  501  502  0.00000000000E+00  0.00000000000E+00  0.77332977220E+02  0.77332977220E+02  0.00000000000E+00 0.  1.
         21   -1    0    0  502  503 -0.00000000000E+00 -0.00000000000E+00 -0.95938255671E+03  0.95938255671E+03  0.00000000000E+00 0.  1.
         -6    2    1    2    0  503  0.21452414529E+02  0.64582642277E+02 -0.82576726524E+03  0.84626148487E+03  0.17215051746E+03 0.  0.
        -24    2    3    3    0    0  0.26523938550E+02 -0.27885882626E+02 -0.32691702848E+03  0.33886637535E+03  0.80464495673E+02 0.  0.
          6    2    1    2  501    0 -0.21452414529E+02 -0.64582642277E+02 -0.56282314250E+02  0.19045404906E+03  0.16874217651E+03 0.  0.
         24    2    5    5    0    0  0.16068392555E+02 -0.51709485672E+02 -0.94561787877E+02  0.13512831159E+03  0.79910354269E+02 0.  0.
          5    1    5    5  501    0 -0.37520807084E+02 -0.12873156605E+02  0.38279473627E+02  0.55325737468E+02  0.47000000000E+01 0. -1.
        -11    1    6    6    0    0 -0.58221933793E+01 -0.34247687687E+02  0.17947889336E+01  0.34785389390E+02  0.00000000000E+00 0.  1.
         12    1    6    6    0    0  0.21890585934E+02 -0.17461797985E+02 -0.96356576811E+02  0.10034292220E+03  0.00000000000E+00 0. -1.
         -5    1    3    3    0  503 -0.50715240206E+01  0.92468524904E+02 -0.49885023676E+03  0.50739510953E+03  0.47000000000E+01 0.  1.
         11    1    4    4    0    0  0.24442926022E+02  0.13859591660E+02 -0.24779267232E+03  0.24938073977E+03  0.00000000000E+00 0. -1.
        -12    1    4    4    0    0  0.20810125278E+01 -0.41745474286E+02 -0.79124356162E+02  0.89485635577E+02  0.00000000000E+00 0.  1.
</event>
<event>
12    1  0.8313893E-002  0.2007967E+03  0.7818608E-02  0.1149199E+00
         21   -1    0    0  501  502  0.00000000000E+00  0.00000000000E+00  0.43937097913E+03  0.43937097913E+03  0.00000000000E+00 0.  1.
         21   -1    0    0  502  503 -0.00000000000E+00 -0.00000000000E+00 -0.42058222523E+03  0.42058222523E+03  0.00000000000E+00 0.  1.
         -6    2    1    2    0  503 -0.73633456331E+01  0.10356944097E+03 -0.37095258860E+03  0.42181170895E+03  0.17186752704E+03 0.  0.
        -24    2    3    3    0    0 -0.24904292050E+02 -0.40307046928E+01 -0.22156203901E+03  0.23681143204E+03  0.79708511919E+02 0.  0.
          6    2    1    2  501    0  0.73633456331E+01 -0.10356944097E+03  0.38974134251E+03  0.43814149541E+03  0.17113973232E+03 0.  0.
         24    2    5    5    0    0 -0.60584391741E+02 -0.79287494181E+02  0.23199344359E+03  0.26461052536E+03  0.78998715218E+02 0.  0.
          5    1    5    5  501    0  0.67947737374E+02 -0.24281946784E+02  0.15774789892E+03  0.17353097005E+03  0.47000000000E+01 0. -1.
        -13    1    6    6    0    0 -0.24719506032E+02 -0.63287244002E+02  0.68555114661E+02  0.96520116960E+02  0.00000000000E+00 0.  1.
         14    1    6    6    0    0 -0.35864885709E+02 -0.16000250179E+02  0.16343832893E+03  0.16809040840E+03  0.00000000000E+00 0. -1.
         -5    1    3    3    0  503  0.17540946417E+02  0.10760014566E+03 -0.14939054959E+03  0.18500027690E+03  0.47000000000E+01 0.  1.
         13    1    4    4    0    0  0.20401788488E+02 -0.21824187303E+02 -0.47865589226E+02  0.56423778293E+02  0.00000000000E+00 0. -1.
        -14    1    4    4    0    0 -0.45306080538E+02  0.17793482610E+02 -0.17369644979E+03  0.18038765375E+03  0.00000000000E+00 0.  1.
</event>
<event>
12    1  0.8313893E-002  0.2360002E+03  0.7818608E-02  0.1124140E+00
         21   -1    0    0  501  502  0.00000000000E+00  0.00000000000E+00  0.50835856759E+03  0.50835856759E+03  0.00000000000E+00 0.  1.
         21   -1    0    0  502  503 -0.00000000000E+00 -0.00000000000E+00 -0.11506127304E+03  0.11506127304E+03  0.00000000000E+00 0. -1.
         -6    2    1    2    0  503 -0.32947201510E+02 -0.14383308720E+03  0.10907368091E+03  0.25998684059E+03  0.18418092830E+03 0.  0.
        -24    2    3    3    0    0  0.72355494768E+01 -0.15942518261E+03  0.46979562821E+02  0.18425351623E+03  0.79205662010E+02 0.  0.
          6    2    1    2  501    0  0.32947201510E+02  0.14383308720E+03  0.28422361365E+03  0.36343300004E+03  0.17183424543E+03 0.  0.
         24    2    5    5    0    0  0.30970529460E+02  0.17331399434E+03  0.22059289651E+03  0.29311949293E+03  0.79125829020E+02 0.  0.
          5    1    5    5  501    0  0.19766720501E+01 -0.29480907140E+02  0.63630717140E+02  0.70313507109E+02  0.47000000000E+01 0. -1.
        -13    1    6    6    0    0  0.38396236840E+02  0.66721644153E+02  0.13818976904E+03  0.15818489520E+03  0.00000000000E+00 0.  1.
         14    1    6    6    0    0 -0.74257073795E+01  0.10659235019E+03  0.82403127463E+02  0.13493459773E+03  0.00000000000E+00 0. -1.
         -5    1    3    3    0  503 -0.40182750987E+02  0.15592095411E+02  0.62094118088E+02  0.75733324352E+02  0.47000000000E+01 0.  1.
         11    1    4    4    0    0  0.27148047421E+02 -0.36415716827E+02 -0.11121404294E+02  0.46763303393E+02  0.00000000000E+00 0. -1.
        -12    1    4    4    0    0 -0.19912497944E+02 -0.12300946579E+03  0.58100967115E+02  0.13749021284E+03  0.00000000000E+00 0.  1.
</event>
<event>
12    1  0.8313893E-002  0.1783080E+03  0.7818608E-02  0.1169529E+00
         21   -1    0    0  503  502  0.00000000000E+00  0.00000000000E+00  0.31685585464E+03  0.31685585464E+03  0.00000000000E+00 0.  1.
         21   -1    0    0  501  503 -0.00000000000E+00 -0.00000000000E+00 -0.32024879458E+03  0.32024879458E+03  0.00000000000E+00 0.  1.
          6    2    1    2  501    0  0.38431008861E+02  0.23863984025E+02 -0.26577661815E+03  0.32004836878E+03  0.17247410074E+03 0.  0.
         24    2    3    3    0    0  0.63290612239E+02 -0.37446331743E+02 -0.19455337094E+03  0.22272521818E+03  0.79671697046E+02 0.  0.
         -6    2    1    2    0  502 -0.38431008861E+02 -0.23863984025E+02  0.26238367820E+03  0.31705628045E+03  0.17214255199E+03 0.  0.
        -24    2    5    5    0    0  0.16893124061E+02 -0.59910756559E+02  0.20782740692E+03  0.23127396158E+03  0.80129506707E+02 0.  0.
          5    1    3    3  501    0 -0.24859603378E+02  0.61310315768E+02 -0.71223247207E+02  0.97323150598E+02  0.47000000000E+01 0. -1.
        -11    1    4    4    0    0  0.91892724765E+01 -0.27521192837E+02 -0.14754307272E+03  0.15036893659E+03  0.00000000000E+00 0.  1.
         12    1    4    4    0    0  0.54101339762E+02 -0.99251389055E+01 -0.47010298218E+02  0.72356281586E+02  0.00000000000E+00 0. -1.
         -5    1    5    5    0  502 -0.55324132922E+02  0.36046772534E+02  0.54556271279E+02  0.85782318863E+02  0.47000000000E+01 0.  1.
         13    1    6    6    0    0  0.32726424039E+02 -0.48484188462E+02  0.66342587037E+02  0.88448144220E+02  0.00000000000E+00 0. -1.
        -14    1    6    6    0    0 -0.15833299978E+02 -0.11426568096E+02  0.14148481989E+03  0.14282581736E+03  0.00000000000E+00 0.  1.
</event>
<event>
12    1  0.8313893E-002  0.1944280E+03  0.7818608E-02  0.1154610E+00
         21   -1    0    0  503  502  0.00000000000E+00  0.00000000000E+00  0.15036479651E+03  0.15036479651E+03  0.00000000000E+00 0.  1.
         21   -1    0    0  501  503 -0.00000000000E+00 -0.00000000000E+00 -0.28377787135E+03  0.28377787135E+03  0.00000000000E+00 0.  1.
          6    2    1    2  501    0 -0.88677225174E+02 -0.18454926083E+01  0.72190989028E+01  0.19418504986E+03  0.17259392253E+03 0.  0.
         24    2    3    3    0    0 -0.80589154230E+02 -0.19966186635E+02 -0.55286611457E+02  0.12843681588E+03  0.80908255941E+02 0.  0.
         -6    2    1    2    0  502  0.88677225174E+02  0.18454926083E+01 -0.14063217374E+03  0.23995761800E+03  0.17301790092E+03 0.  0.
        -24    2    5    5    0    0  0.12981336233E+03  0.48812496617E+01 -0.12248194067E+03  0.19464847365E+03  0.77529780504E+02 0.  0.
          5    1    3    3  501    0 -0.80880709437E+01  0.18120694027E+02  0.62505710360E+02  0.65748233978E+02  0.47000000000E+01 0. -1.
        -13    1    4    4    0    0 -0.97094900706E+01  0.13353576701E+02 -0.46836771961E+02  0.49661609074E+02  0.00000000000E+00 0.  1.
         14    1    4    4    0    0 -0.70879664159E+02 -0.33319763336E+02 -0.84498394961E+01  0.78775206808E+02  0.00000000000E+00 0. -1.
         -5    1    5    5    0  502 -0.41136137161E+02 -0.30357570533E+01 -0.18150233064E+02  0.45309144350E+02  0.47000000000E+01 0.  1.
         13    1    6    6    0    0 -0.62140034897E+01 -0.11330222952E+02 -0.39949667131E+01  0.13525810532E+02  0.00000000000E+00 0. -1.
        -14    1    6    6    0    0  0.13602736582E+03  0.16211472613E+02 -0.11848697396E+03  0.18112266312E+03  0.00000000000E+00 0.  1.
</event>
<event>
12    1  0.8313893E-002  0.2548362E+03  0.7818608E-02  0.1111688E+00
         21   -1    0    0  503  502  0.00000000000E+00  0.00000000000E+00  0.86651319386E+03  0.86651319386E+03  0.00000000000E+00 0.  1.
         21   -1    0    0  501  503 -0.00000000000E+00 -0.00000000000E+00 -0.84418693631E+02  0.84418693631E+02  0.00000000000E+00 0. -1.
          6    2    1    2  501    0 -0.22381917754E+02 -0.17710290727E+03  0.56486427366E+03  0.61607300475E+03  0.16913872860E+03 0.  0.
         24    2    3    3    0    0 -0.48016430821E+02 -0.16999441929E+03  0.55411276208E+03  0.58699820702E+03  0.79512651380E+02 0.  0.
         -6    2    1    2    0  502  0.22381917754E+02  0.17710290727E+03  0.21723022657E+03  0.33485888274E+03  0.18186563724E+03 0.  0.
        -24    2    5    5    0    0 -0.32943520413E+02  0.17245182317E+03  0.13443313078E+03  0.23505915447E+03  0.79722221494E+02 0.  0.
          5    1    3    3  501    0  0.25634513067E+02 -0.71084879854E+01  0.10751511586E+02  0.29074797730E+02  0.47000000000E+01 0. -1.
        -13    1    4    4    0    0 -0.26265552315E+02 -0.16927642263E+02  0.17161479793E+03  0.17443641586E+03  0.00000000000E+00 0.  1.
         14    1    4    4    0    0 -0.21750878506E+02 -0.15306677702E+03  0.38249796415E+03  0.41256179116E+03  0.00000000000E+00 0. -1.
         -5    1    5    5    0  502  0.55325438167E+02  0.46510841076E+01  0.82797095789E+02  0.99799728271E+02  0.47000000000E+01 0.  1.
         11    1    6    6    0    0  0.18021030835E+02  0.10795319484E+03  0.63848087651E+02  0.12670922668E+03  0.00000000000E+00 0. -1.
        -12    1    6    6    0    0 -0.50964551249E+02  0.64498628326E+02  0.70585043127E+02  0.10834992779E+03  0.00000000000E+00 0.  1.
</event>
<event>
12    1  0.8313893E-002  0.2043681E+03  0.7818608E-02  0.1146271E+00
         21   -1    0    0  503  502  0.00000000000E+00  0.00000000000E+00  0.24754062386E+03  0.24754062386E+03  0.00000000000E+00 0. -1.
         21   -1    0    0  501  503 -0.00000000000E+00 -0.00000000000E+00 -0.35238968352E+03  0.35238968352E+03  0.00000000000E+00 0. -1.
          6    2    1    2  501    0  0.10502367341E+03 -0.31389220572E+02  0.16457288971E+03  0.26176687125E+03  0.17152960011E+03 0.  0.
         24    2    3    3    0    0 -0.10293225162E+02  0.10849244150E+02  0.72675776417E+02  0.10830924052E+03  0.78901625595E+02 0.  0.
         -6    2    1    2    0  502 -0.10502367341E+03  0.31389220572E+02 -0.26942194937E+03  0.33816343613E+03  0.17248497785E+03 0.  0.
        -24    2    5    5    0    0 -0.69561811902E+02  0.87901104002E+02 -0.17510809460E+03  0.22254194248E+03  0.79351254618E+02 0.  0.
          5    1    3    3  501    0  0.11531689857E+03 -0.42238464721E+02  0.91897113297E+02  0.15345763073E+03  0.47000000000E+01 0. -1.
        -13    1    4    4    0    0 -0.98971240351E+01  0.35784181241E+02  0.66337196079E+01  0.37715605883E+02  0.00000000000E+00 0.  1.
         14    1    4    4    0    0 -0.39610112714E+00 -0.24934937091E+02  0.66042056809E+02  0.70593634638E+02  0.00000000000E+00 0. -1.
         -5    1    5    5    0  502 -0.35461861506E+02 -0.56511883431E+02 -0.94313854774E+02  0.11562149365E+03  0.47000000000E+01 0.  1.
         11    1    6    6    0    0 -0.35721470123E+02  0.59979391503E+02 -0.39932207497E+02  0.80424697876E+02  0.00000000000E+00 0. -1.
        -12    1    6    6    0    0 -0.33840341779E+02  0.27921712500E+02 -0.13517588710E+03  0.14211724461E+03  0.00000000000E+00 0.  1.
</event>
<event>
12    1  0.8313893E-002  0.1825167E+03  0.7818608E-02  0.1165584E+00
         21   -1    0    0  501  502  0.00000000000E+00  0.00000000000E+00  0.80623387358E+02  0.80623387358E+02  0.00000000000E+00 0.  1.
         21   -1    0    0  502  503 -0.00000000000E+00 -0.00000000000E+00 -0.72178302378E+03  0.72178302378E+03  0.00000000000E+00 0.  1.
         -6    2    1    2    0  503 -0.11655228208E+02  0.61646291580E+02 -0.58410919523E+03  0.61196071044E+03  0.17139501030E+03 0.  0.
        -24    2    3    3    0    0  0.37854990231E+02 -0.62420745928E+01 -0.40199194773E+03  0.41133949065E+03  0.78298702086E+02 0.  0.
          6    2    1    2  501    0  0.11655228208E+02 -0.61646291580E+02 -0.57050441194E+02  0.19044570070E+03  0.17052478549E+03 0.  0.
         24    2    5    5    0    0  0.48928102526E+02 -0.86142259627E+02 -0.15685133925E+02  0.12943342115E+03  0.81807939559E+02 0.  0.
          5    1    5    5  501    0 -0.37272874318E+02  0.24495968046E+02 -0.41365307269E+02  0.61012279550E+02  0.47000000000E+01 0. -1.
        -13    1    6    6    0    0 -0.27247143052E+01 -0.33537215608E+02  0.27968664011E+02  0.43754029133E+02  0.00000000000E+00 0.  1.
         14    1    6    6    0    0  0.51652816831E+02 -0.52605044019E+02 -0.43653797936E+02  0.85679392021E+02  0.00000000000E+00 0. -1.
         -5    1    3    3    0  503 -0.49510218439E+02  0.67888366173E+02 -0.18211724750E+03  0.20062121979E+03  0.47000000000E+01 0.  1.
         13    1    4    4    0    0  0.47232633147E+02 -0.28014661279E+02 -0.18283484089E+03  0.19090395995E+03  0.00000000000E+00 0. -1.
        -14    1    4    4    0    0 -0.93776429158E+01  0.21772586686E+02 -0.21915710684E+03  0.22043553070E+03  0.00000000000E+00 0.  1.
</event>
<event>
12    1  0.8313893E-002  0.2318970E+03  0.7818608E-02  0.1125399E+00
         21   -1    0    0  501  502  0.00000000000E+00  0.00000000000E+00  0.42149476490E+03  0.42149476490E+03  0.00000000000E+00 0. -1.
         21   -1    0    0  502  503 -0.00000000000E+00 -0.00000000000E+00 -0.26748206327E+03  0.26748206327E+03  0.00000000000E+00 0. -1.
         -6    2    1    2    0  503  0.66349123017E+02  0.14060428834E+03 -0.17233285048E+03  0.28892010289E+03  0.17205941554E+03 0.  0.
        -24    2    3    3    0    0 -0.31196043592E+02  0.58001289855E+02 -0.89097421145E+02  0.13631426557E+03  0.79409607622E+02 0.  0.
          6    2    1    2  501    0 -0.66349123017E+02 -0.14060428834E+03  0.32634555211E+03  0.40005672527E+03  0.17138317312E+03 0.  0.
         24    2    5    5    0    0  0.14289714906E+02 -0.17565119171E+02  0.11137319924E+03  0.13952561037E+03  0.80936253172E+02 0.  0.
          5    1    5    5  501    0 -0.80638837923E+02 -0.12303916917E+03  0.21497235287E+03  0.26053111490E+03  0.47000000000E+01 0. -1.
        -11    1    6    6    0    0 -0.18966812756E+02 -0.36928496243E+02  0.36225941255E+02  0.55097846063E+02  0.00000000000E+00 0.  1.
         12    1    6    6    0    0  0.33256527662E+02  0.19363377072E+02  0.75147257986E+02  0.84427764311E+02  0.00000000000E+00 0. -1.
         -5    1    3    3    0  503  0.97545166609E+02  0.82602998489E+02 -0.83235429334E+02  0.15260583732E+03  0.47000000000E+01 0.  1.
         13    1    4    4    0    0 -0.21045216613E+02  0.19664970487E+02 -0.92143183878E+02  0.96540035953E+02  0.00000000000E+00 0. -1.
        -14    1    4    4    0    0 -0.10150826979E+02  0.38336319369E+02  0.30457627328E+01  0.39774229618E+02  0.00000000000E+00 0.  1.
</event>
<event>
12    1  0.8313893E-002  0.1978275E+03  0.7818608E-02  0.1152032E+00
         21   -1    0    0  501  502  0.00000000000E+00  0.00000000000E+00  0.24085050682E+03  0.24085050682E+03  0.00000000000E+00 0.  1.
         21   -1    0    0  502  503 -0.00000000000E+00 -0.00000000000E+00 -0.20607602464E+03  0.20607602464E+03  0.00000000000E+00 0.  1.
         -6    2    1    2    0  503  0.76632196548E+02  0.59039324477E+02 -0.87297589419E+02  0.21623268532E+03  0.17256178517E+03 0.  0.
        -24    2    3    3    0    0  0.40231014479E+02 -0.70284255254E+01  0.22617373563E+02  0.82840846238E+02  0.68433375828E+02 0.  0.
          6    2    1    2  501    0 -0.76632196548E+02 -0.59039324477E+02  0.12207207160E+03  0.23069384613E+03  0.17017615754E+03 0.  0.
         24    2    5    5    0    0 -0.92654572568E+02 -0.10858575493E+02  0.30057924744E+02  0.12549501378E+03  0.78375641399E+02 0.  0.
          5    1    5    5  501    0  0.16022376020E+02 -0.48180748983E+02  0.92014146859E+02  0.10519883235E+03  0.47000000000E+01 0. -1.
        -11    1    6    6    0    0 -0.12858834367E+02  0.16838107577E+02  0.34969148565E+02  0.40886585079E+02  0.00000000000E+00 0.  1.
         12    1    6    6    0    0 -0.79795738201E+02 -0.27696683070E+02 -0.49112238218E+01  0.84608428702E+02  0.00000000000E+00 0. -1.
         -5    1    3    3    0  503  0.36401182069E+02  0.66067750002E+02 -0.10991496298E+03  0.13339183908E+03  0.47000000000E+01 0.  1.
         11    1    4    4    0    0 -0.14402839188E+02 -0.34237648618E+01  0.23853711736E+02  0.28074249876E+02  0.00000000000E+00 0. -1.
        -12    1    4    4    0    0  0.54633853667E+02 -0.36046606636E+01 -0.12363381730E+01  0.54766596362E+02  0.00000000000E+00 0.  1.
</event>
<event>
12    1  0.8313893E-002  0.1860484E+03  0.7818608E-02  0.1162134E+00
         21   -1    0    0  503  502  0.00000000000E+00  0.00000000000E+00  0.17875754900E+03  0.17875754900E+03  0.00000000000E+00 0. -1.
         21   -1    0    0  501  503 -0.00000000000E+00 -0.00000000000E+00 -0.32146443196E+03  0.32146443196E+03  0.00000000000E+00 0. -1.
          6    2    1    2  501    0 -0.71585037393E+01  0.67610064497E+02 -0.22920617770E+03  0.29504854225E+03  0.17290403521E+03 0.  0.
         24    2    3    3    0    0  0.18635410054E+02  0.33956131697E+02 -0.44853592611E+02  0.10582412836E+03  0.87673279771E+02 0.  0.
         -6    2    1    2    0  502  0.71585037393E+01 -0.67610064497E+02  0.86499294747E+02  0.20517343871E+03  0.17318096594E+03 0.  0.
        -24    2    5    5    0    0 -0.41386372743E+02 -0.29917179950E+02 -0.46117811043E+01  0.95170362749E+02  0.80176429927E+02 0.  0.
          5    1    3    3  501    0 -0.25793913793E+02  0.33653932799E+02 -0.18435258509E+03  0.18922441389E+03  0.47000000000E+01 0. -1.
        -13    1    4    4    0    0 -0.25901465656E+02  0.31212122488E+02 -0.45819439554E+02  0.61192348822E+02  0.00000000000E+00 0.  1.
         14    1    4    4    0    0  0.44536875710E+02  0.27440092092E+01  0.96584694324E+00  0.44631779540E+02  0.00000000000E+00 0. -1.
         -5    1    5    5    0  502  0.48544876483E+02 -0.37692884546E+02  0.91111075852E+02  0.11000307596E+03  0.47000000000E+01 0.  1.
         13    1    6    6    0    0 -0.21760647499E+02 -0.43534861902E+02  0.26914377572E+02  0.55616487668E+02  0.00000000000E+00 0. -1.
        -14    1    6    6    0    0 -0.19625725245E+02  0.13617681952E+02 -0.31526158676E+02  0.39553875082E+02  0.00000000000E+00 0.  1.
</event>
<event>
12    1  0.8313893E-002  0.1747025E+03  0.7818608E-02  0.1174640E+00
         21   -1    0    0  501  502  0.00000000000E+00  0.00000000000E+00  0.13344708156E+03  0.13344708156E+03  0.00000000000E+00 0.  1.
         21   -1    0    0  502  503 -0.00000000000E+00 -0.00000000000E+00 -0.45225780748E+03  0.45225780748E+03  0.00000000000E+00 0.  1.
         -6    2    1    2    0  503 -0.13842452168E+02 -0.27266823666E+02 -0.37041538356E+03  0.40954674335E+03  0.17200548089E+03 0.  0.
        -24    2    3    3    0    0 -0.59412545638E+02 -0.62751361899E+01 -0.13001415034E+03  0.16392075267E+03  0.79981910175E+02 0.  0.
          6    2    1    2  501    0  0.13842452168E+02  0.27266823666E+02  0.51604657641E+02  0.17615814569E+03  0.16563078955E+03 0.  0.
         24    2    5    5    0    0 -0.35879915713E+02  0.20543205385E+02  0.78122845052E+02  0.11921233659E+03  0.79993816241E+02 0.  0.
          5    1    5    5  501    0  0.49722367881E+02  0.67236182818E+01 -0.26518187412E+02  0.56945809100E+02  0.47000000000E+01 0. -1.
        -13    1    6    6    0    0 -0.58598688255E+02  0.23391791048E+01  0.64162317663E+02  0.86925721349E+02  0.00000000000E+00 0.  1.
         14    1    6    6    0    0  0.22718772543E+02  0.18204026280E+02  0.13960527389E+02  0.32286615239E+02  0.00000000000E+00 0. -1.
         -5    1    3    3    0  503  0.45570093470E+02 -0.20991687477E+02 -0.24040123322E+03  0.24562599067E+03  0.47000000000E+01 0.  1.
         13    1    4    4    0    0 -0.77326116248E+02 -0.16284853045E+01 -0.12030536200E+03  0.14302223724E+03  0.00000000000E+00 0. -1.
        -14    1    4    4    0    0  0.17913570610E+02 -0.46466508854E+01 -0.97087883398E+01  0.20898515437E+02  0.00000000000E+00 0.  1.
</event>
<event>
12    1  0.8313893E-002  0.2096311E+03  0.7818608E-02  0.1142864E+00
         21   -1    0    0  503  502  0.00000000000E+00  0.00000000000E+00  0.61464798865E+02  0.61464798865E+02  0.00000000000E+00 0. -1.
         21   -1    0    0  501  503 -0.00000000000E+00 -0.00000000000E+00 -0.69813801759E+03  0.69813801759E+03  0.00000000000E+00 0.  1.
          6    2    1    2  501    0  0.23947803671E+02 -0.10902521254E+03 -0.31959208809E+03  0.37949012883E+03  0.17150411318E+03 0.  0.
         24    2    3    3    0    0  0.44155299200E+01 -0.79332525849E+02 -0.32412646185E+03  0.34335405397E+03  0.80752068331E+02 0.  0.
         -6    2    1    2    0  502 -0.23947803671E+02  0.10902521254E+03 -0.31708113063E+03  0.38011268762E+03  0.17744074396E+03 0.  0.
        -24    2    5    5    0    0 -0.79355645580E+02  0.59676368847E+02 -0.14644802777E+03  0.19398616315E+03  0.79529989137E+02 0.  0.
          5    1    3    3  501    0  0.19532273751E+02 -0.29692686693E+02  0.45343737653E+01  0.36136074861E+02  0.47000000000E+01 0. -1.
        -13    1    4    4    0    0 -0.31204046048E+02 -0.60695252317E+01 -0.94890339137E+02  0.10007351342E+03  0.00000000000E+00 0.  1.
         14    1    4    4    0    0  0.35619575968E+02 -0.73263000617E+02 -0.22923612272E+03  0.24328054055E+03  0.00000000000E+00 0. -1.
         -5    1    5    5    0  502  0.55407841909E+02  0.49348843695E+02 -0.17063310286E+03  0.18612652447E+03  0.47000000000E+01 0.  1.
         13    1    6    6    0    0 -0.83661119073E+01 -0.10176721872E+02  0.38140234776E+01  0.13715111068E+02  0.00000000000E+00 0. -1.
        -14    1    6    6    0    0 -0.70989533673E+02  0.69853090719E+02 -0.15026205125E+03  0.18027105208E+03  0.00000000000E+00 0.  1.
</event>
<event>
12    1  0.8313893E-002  0.1926925E+03  0.7818608E-02  0.1156098E+00
         21   -1    0    0  503  502  0.00000000000E+00  0.00000000000E+00  0.29662324260E+03  0.29662324260E+03  0.00000000000E+00 0. -1.
         21   -1    0    0  501  503 -0.00000000000E+00 -0.00000000000E+00 -0.14606673180E+03  0.14606673180E+03  0.00000000000E+00 0. -1.
          6    2    1    2  501    0 -0.19579273464E+02 -0.81360094751E+02 -0.86455641213E+01  0.19288636696E+03  0.17357301580E+03 0.  0.
         24    2    3    3    0    0  0.36388117870E+02  0.13146320452E+01  0.15693125951E+02  0.90017901542E+02  0.80815376113E+02 0.  0.
         -6    2    1    2    0  502  0.19579273464E+02  0.81360094751E+02  0.15920207492E+03  0.24980360744E+03  0.17336011266E+03 0.  0.
        -24    2    5    5    0    0  0.51288391130E+02  0.79120372549E+02  0.45260478301E+02  0.13141753587E+03  0.79570883004E+02 0.  0.
          5    1    3    3  501    0 -0.55967391334E+02 -0.82674726796E+02 -0.24338690072E+02  0.10286846542E+03  0.47000000000E+01 0. -1.
        -13    1    4    4    0    0  0.12030485888E+02  0.10565293472E+02  0.46786942024E+02  0.49450742773E+02  0.00000000000E+00 0.  1.
         14    1    4    4    0    0  0.24357631982E+02 -0.92506614264E+01 -0.31093816073E+02  0.40567158769E+02  0.00000000000E+00 0. -1.
         -5    1    5    5    0  502 -0.31709117666E+02  0.22397222019E+01  0.11394159662E+03  0.11838607156E+03  0.47000000000E+01 0.  1.
         11    1    6    6    0    0 -0.14732431592E+02  0.48141267852E+02  0.21154887435E+02  0.54609115296E+02  0.00000000000E+00 0. -1.
        -12    1    6    6    0    0  0.66020822722E+02  0.30979104697E+02  0.24105590866E+02  0.76808420578E+02  0.00000000000E+00 0.  1.
</event>
<event>
12    1  0.8313893E-002  0.1746205E+03  0.7818608E-02  0.1173288E+00
         21   -1    0    0  501  502  0.00000000000E+00  0.00000000000E+00  0.51009275335E+02  0.51009275335E+02  0.00000000000E+00 0. -1.
         21   -1    0    0  502  503 -0.00000000000E+00 -0.00000000000E+00 -0.60570894003E+03  0.60570894003E+03  0.00000000000E+00 0. -1.
         -6    2    1    2    0  503  0.22015249558E+02  0.16355652958E+02 -0.32070123379E+03  0.36515968115E+03  0.17245327711E+03 0.  0.
        -24    2    3    3    0    0 -0.88478320194E+01 -0.36988511245E+02 -0.97676666406E+02  0.13372896297E+03  0.83043785333E+02 0.  0.
          6    2    1    2  501    0 -0.22015249558E+02 -0.16355652958E+02 -0.23399843091E+03  0.29155853422E+03  0.17175253888E+03 0.  0.
         24    2    5    5    0    0 -0.53118138762E+02 -0.59571530817E+02 -0.11344043729E+03  0.15968237397E+03  0.79116520368E+02 0.  0.
          5    1    5    5  501    0  0.31102889204E+02  0.43215877859E+02 -0.12055799363E+03  0.13187616025E+03  0.47000000000E+01 0. -1.
        -11    1    6    6    0    0  0.17270367585E+02  0.19636153363E+01 -0.28406683137E+02  0.33302567897E+02  0.00000000000E+00 0.  1.
         12    1    6    6    0    0 -0.70388506347E+02 -0.61535146153E+02 -0.85033754148E+02  0.12637980607E+03  0.00000000000E+00 0. -1.
         -5    1    3    3    0  503  0.30863081578E+02  0.53344164203E+02 -0.22302456738E+03  0.23143071817E+03  0.47000000000E+01 0.  1.
         13    1    4    4    0    0 -0.57327223048E+00 -0.56771185402E+01 -0.10101050054E+03  0.10117153521E+03  0.00000000000E+00 0. -1.
        -14    1    4    4    0    0 -0.82745597889E+01 -0.31311392705E+02  0.33338341377E+01  0.32557427768E+02  0.00000000000E+00 0.  1.
</event>
<event>
12    1  0.8313893E-002  0.2368163E+03  0.7818608E-02  0.1122178E+00
         21   -1    0    0  503  502  0.00000000000E+00  0.00000000000E+00  0.62130225543E+02  0.62130225543E+02  0.00000000000E+00 0.  1.
         21   -1    0    0  501  503 -0.00000000000E+00 -0.00000000000E+00 -0.90866310881E+03  0.90866310881E+03  0.00000000000E+00 0.  1.
          6    2    1    2  501    0  0.41413649992E+02 -0.15911021747E+03 -0.36734180953E+03  0.43627854890E+03  0.16842747844E+03 0.  0.
         24    2    3    3    0    0  0.41763570738E+02 -0.10788092643E+03 -0.12802368070E+03  0.19149329712E+03  0.83048960818E+02 0.  0.
         -6    2    1    2    0  502 -0.41413649992E+02  0.15911021747E+03 -0.47919107374E+03  0.53451478545E+03  0.17044300808E+03 0.  0.
        -24    2    5    5    0    0  0.15973891444E+02  0.74513948070E+02 -0.36505506174E+03  0.38122102190E+03  0.79099783626E+02 0.  0.
          5    1    3    3  501    0 -0.34992074569E+00 -0.51229291039E+02 -0.23931812882E+03  0.24478525178E+03  0.47000000000E+01 0. -1.
        -11    1    4    4    0    0  0.19844974702E+02 -0.11475384332E+03 -0.11984977394E+03  0.16711144751E+03  0.00000000000E+00 0.  1.
         12    1    4    4    0    0  0.21918596035E+02  0.68729168813E+01 -0.81739067659E+01  0.24381849611E+02  0.00000000000E+00 0. -1.
         -5    1    5    5    0  502 -0.57387541436E+02  0.84596269404E+02 -0.11413601200E+03  0.15329376355E+03  0.47000000000E+01 0.  1.
         13    1    6    6    0    0  0.17360964864E+02 -0.11534860736E+02 -0.41833852241E+02  0.46738927101E+02  0.00000000000E+00 0. -1.
        -14    1    6    6    0    0 -0.13870734195E+01  0.86048808806E+02 -0.32322120950E+03  0.33448209480E+03  0.00000000000E+00 0.  1.
</event>
<event>
12    1  0.8313893E-002  0.2317582E+03  0.7818608E-02  0.1125483E+00
         21   -1    0    0  503  502  0.00000000000E+00  0.00000000000E+00  0.74812511806E+02  0.74812511806E+02  0.00000000000E+00 0. -1.
         21   -1    0    0  501  503 -0.00000000000E+00 -0.00000000000E+00 -0.79136637179E+03  0.79136637179E+03  0.00000000000E+00 0.  1.
          6    2    1    2  501    0 -0.44801326037E+02 -0.15008571444E+03 -0.49107464529E+03  0.54283268728E+03  0.17023553871E+03 0.  0.
         24    2    3    3    0    0  0.23316554735E+02 -0.21674837493E+02 -0.22550850607E+03  0.24005081315E+03  0.75873884050E+02 0.  0.
         -6    2    1    2    0  502  0.44801326037E+02  0.15008571444E+03 -0.22547921470E+03  0.32334619632E+03  0.17081863458E+03 0.  0.
        -24    2    5    5    0    0 -0.17782118507E+02  0.64875903145E+02 -0.17580988934E+03  0.20644225561E+03  0.84759667080E+02 0.  0.
          5    1    3    3  501    0 -0.68117880773E+02 -0.12841087695E+03 -0.26556613922E+03  0.30278187412E+03  0.47000000000E+01 0. -1.
        -11    1    4    4    0    0  0.19081521998E+02  0.62028060020E+01 -0.20295182913E+03  0.20394122739E+03  0.00000000000E+00 0.  1.
         12    1    4    4    0    0  0.42350327372E+01 -0.27877643495E+02 -0.22556676939E+02  0.36109585758E+02  0.00000000000E+00 0. -1.
         -5    1    5    5    0  502  0.62583444544E+02  0.85209811297E+02 -0.49669325358E+02  0.11690394071E+03  0.47000000000E+01 0.  1.
         13    1    6    6    0    0 -0.21301766248E+02  0.27280127196E+02 -0.94890601405E+01  0.35888895879E+02  0.00000000000E+00 0. -1.
        -14    1    6    6    0    0  0.35196477407E+01  0.37595775949E+02 -0.16632082920E+03  0.17055335973E+03  0.00000000000E+00 0.  1.
</event>
<event>
12    1  0.8313893E-002  0.3706275E+03  0.7818608E-02  0.1054458E+00
         21   -1    0    0  503  502  0.00000000000E+00  0.00000000000E+00  0.28213001257E+03  0.28213001257E+03  0.00000000000E+00 0. -1.
         21   -1    0    0  501  503 -0.00000000000E+00 -0.00000000000E+00 -0.11511640674E+04  0.11511640674E+04  0.00000000000E+00 0.  1.
          6    2    1    2  501    0 -0.28797512113E+03  0.15840862064E+03 -0.97892281588E+03  0.10467189739E+04  0.17119512077E+03 0.  0.
         24    2    3    3    0    0 -0.58719246273E+02  0.78096508169E+02 -0.30212709265E+03  0.32763425528E+03  0.80724287834E+02 0.  0.
         -6    2    1    2    0  502  0.28797512113E+03 -0.15840862064E+03  0.10988876105E+03  0.38657510608E+03  0.17129451642E+03 0.  0.
        -24    2    5    5    0    0  0.24063716224E+03 -0.60189620742E+02  0.61282485522E+02  0.26710747736E+03  0.77857736485E+02 0.  0.
          5    1    3    3  501    0 -0.22925587486E+03  0.80312112475E+02 -0.67679572323E+03  0.71908471862E+03  0.47000000000E+01 0. -1.
        -11    1    4    4    0    0 -0.45778154137E+02  0.23180622752E+02 -0.23210999467E+03  0.23771417773E+03  0.00000000000E+00 0.  1.
         12    1    4    4    0    0 -0.12941092136E+02  0.54915885417E+02 -0.70017097981E+02  0.89920077549E+02  0.00000000000E+00 0. -1.
         -5    1    5    5    0  502  0.47337958884E+02 -0.98218999902E+02  0.48606275527E+02  0.11946762873E+03  0.47000000000E+01 0.  1.
         11    1    6    6    0    0  0.17879809202E+03 -0.69108570591E+02  0.69901801098E+02  0.20403679579E+03  0.00000000000E+00 0. -1.
        -12    1    6    6    0    0  0.61839070220E+02  0.89189498484E+01 -0.86193155759E+01  0.63070681565E+02  0.00000000000E+00 0.  1.
</event>
<event>
12    1  0.8313893E-002  0.1737074E+03  0.7818608E-02  0.1174281E+00
         21   -1    0    0  503  502  0.00000000000E+00  0.00000000000E+00  0.22285412550E+03  0.22285412550E+03  0.00000000000E+00 0.  1.
         21   -1    0    0  501  503 -0.00000000000E+00 -0.00000000000E+00 -0.35455989008E+03  0.35455989008E+03  0.00000000000E+00 0.  1.
          6    2    1    2  501    0 -0.14649582678E+02 -0.98096389999E+01 -0.29329427014E+03  0.34087503251E+03  0.17281035733E+03 0.  0.
         24    2    3    3    0    0 -0.12023910671E+01  0.51033058228E+02 -0.24082654114E+03  0.25928083324E+03  0.81383713297E+02 0.  0.
         -6    2    1    2    0  502  0.14649582678E+02  0.98096389999E+01  0.16158850556E+03  0.23653898306E+03  0.17184005961E+03 0.  0.
        -24    2    5    5    0    0 -0.49617591577E+02 -0.14189399441E+02  0.58189092633E+02  0.11236268852E+03  0.81093518969E+02 0.  0.
          5    1    3    3  501    0 -0.13447191611E+02 -0.60842697228E+02 -0.52467728999E+02  0.81594199270E+02  0.47000000000E+01 0. -1.
        -11    1    4    4    0    0  0.19151662241E+01  0.69106777930E+02 -0.13288927494E+03  0.14979644192E+03  0.00000000000E+00 0.  1.
         12    1    4    4    0    0 -0.31175572912E+01 -0.18073719702E+02 -0.10793726621E+03  0.10948439132E+03  0.00000000000E+00 0. -1.
         -5    1    5    5    0  502  0.64267174254E+02  0.23999038440E+02  0.10339941293E+03  0.12417629455E+03  0.47000000000E+01 0.  1.
         11    1    6    6    0    0  0.66268899123E+01 -0.23942207266E+02 -0.69052159617E+01  0.25784238716E+02  0.00000000000E+00 0. -1.
        -12    1    6    6    0    0 -0.56244481489E+02  0.97528078254E+01  0.65094308595E+02  0.86578449801E+02  0.00000000000E+00 0.  1.
</event>
<event>
12    1  0.8313893E-002  0.1735284E+03  0.7818608E-02  0.1174227E+00
         21   -1    0    0  503  502  0.00000000000E+00  0.00000000000E+00  0.86820196140E+02  0.86820196140E+02  0.00000000000E+00 0.  1.
         21   -1    0    0  501  503 -0.00000000000E+00 -0.00000000000E+00 -0.38736034695E+03  0.38736034695E+03  0.00000000000E+00 0.  1.
          6    2    1    2  501    0 -0.13908570247E+02  0.15071668058E+02 -0.22701588144E+03  0.28571851089E+03  0.17227377494E+03 0.  0.
         24    2    3    3    0    0  0.10620741871E+02 -0.36662870572E+02 -0.20785222526E+03  0.22515874406E+03  0.77697787890E+02 0.  0.
         -6    2    1    2    0  502  0.13908570247E+02 -0.15071668058E+02 -0.73524269366E+02  0.18846203220E+03  0.17231226274E+03 0.  0.
        -24    2    5    5    0    0 -0.29452198359E+02  0.32971958300E+01 -0.10236367585E+03  0.13304206485E+03  0.79646502734E+02 0.  0.
          5    1    3    3  501    0 -0.24529312118E+02  0.51734538631E+02 -0.19163656183E+02  0.60559766831E+02  0.47000000000E+01 0. -1.
        -13    1    4    4    0    0  0.22005017515E+02  0.13374531059E+02 -0.27613422058E+02  0.37757117933E+02  0.00000000000E+00 0.  1.
         14    1    4    4    0    0 -0.11384275644E+02 -0.50037401632E+02 -0.18023880320E+03  0.18740162612E+03  0.00000000000E+00 0. -1.
         -5    1    5    5    0  502  0.43360768607E+02 -0.18368863888E+02  0.28839406485E+02  0.55419967350E+02  0.47000000000E+01 0.  1.
         11    1    6    6    0    0  0.17948571695E+02  0.54917074914E+01  0.15227227123E+01  0.18831589458E+02  0.00000000000E+00 0. -1.
        -12    1    6    6    0    0 -0.47400770054E+02 -0.21945116614E+01 -0.10388639856E+03  0.11421047539E+03  0.00000000000E+00 0.  1.
</event>
<event>
12    1  0.8313893E-002  0.2049643E+03  0.7818608E-02  0.1145654E+00
         21   -1    0    0  501  502  0.00000000000E+00  0.00000000000E+00  0.17815618416E+04  0.17815618416E+04  0.00000000000E+00 0.  1.
         21   -1    0    0  502  503 -0.00000000000E+00 -0.00000000000E+00 -0.28284923963E+02  0.28284923963E+02  0.00000000000E+00 0.  1.
         -6    2    1    2    0  503  0.11065839668E+03 -0.12267045076E+02  0.50645422454E+03  0.54628941141E+03  0.17187343691E+03 0.  0.
        -24    2    3    3    0    0  0.76427595595E+02 -0.11252398065E+02  0.49838791212E+03  0.51079388145E+03  0.80944947666E+02 0.  0.
          6    2    1    2  501    0 -0.11065839668E+03  0.12267045076E+02  0.12468226931E+04  0.12635573542E+04  0.17208892488E+03 0.  0.
         24    2    5    5    0    0 -0.13731859005E+03  0.33490853129E+01  0.75717079757E+03  0.77307660560E+03  0.73974386631E+02 0.  0.
          5    1    5    5  501    0  0.26660193369E+02  0.89179597632E+01  0.48965189554E+03  0.49048074858E+03  0.47000000000E+01 0. -1.
        -11    1    6    6    0    0 -0.93762461734E+02 -0.26087380892E+02  0.58560711097E+03  0.59363931734E+03  0.00000000000E+00 0.  1.
         12    1    6    6    0    0 -0.43556128311E+02  0.29436466205E+02  0.17156368661E+03  0.17943728826E+03  0.00000000000E+00 0. -1.
         -5    1    3    3    0  503  0.34230801082E+02 -0.10146470108E+01  0.80663124289E+01  0.35495529964E+02  0.47000000000E+01 0.  1.
         13    1    4    4    0    0  0.61073607900E+02 -0.44236924568E+02  0.34604157538E+03  0.35416332810E+03  0.00000000000E+00 0. -1.
        -14    1    4    4    0    0  0.15353987695E+02  0.32984526503E+02  0.15234633673E+03  0.15663055335E+03  0.00000000000E+00 0.  1.
</event>
<event>
12    1  0.8313893E-002  0.3012310E+03  0.7818608E-02  0.1084650E+00
         21   -1    0    0  503  502  0.00000000000E+00  0.00000000000E+00  0.27147703010E+03  0.27147703010E+03  0.00000000000E+00 0.  1.
         21   -1    0    0  501  503 -0.00000000000E+00 -0.00000000000E+00 -0.43256338241E+03  0.43256338241E+03  0.00000000000E+00 0. -1.
          6    2    1    2  501    0  0.15980865982E+03  0.18872897450E+03  0.87438080609E+02  0.31366472852E+03  0.17199625114E+03 0.  0.
         24    2    3    3    0    0  0.17118505106E+03  0.16573030491E+03  0.11432895851E+03  0.27620047363E+03  0.80279108161E+02 0.  0.
         -6    2    1    2    0  502 -0.15980865982E+03 -0.18872897450E+03 -0.24852443291E+03  0.39037568399E+03  0.17167220894E+03 0.  0.
        -24    2    5    5    0    0 -0.16140407278E+03 -0.16292749120E+03 -0.26039612956E+03  0.36154360004E+03  0.10154303688E+03 0.  0.
          5    1    3    3  501    0 -0.11376391241E+02  0.22998669597E+02 -0.26890877896E+02  0.37464254896E+02  0.47000000000E+01 0. -1.
        -11    1    4    4    0    0  0.16230084548E+02  0.43663956734E+02  0.50890319829E+02  0.68991169104E+02  0.00000000000E+00 0.  1.
         12    1    4    4    0    0  0.15495496651E+03  0.12206634817E+03  0.63438638676E+02  0.20720930452E+03  0.00000000000E+00 0. -1.
         -5    1    5    5    0  502  0.15954129637E+01 -0.25801483303E+02  0.11871696653E+02  0.28832083945E+02  0.47000000000E+01 0.  1.
         13    1    6    6    0    0 -0.11260466790E+03 -0.69818165392E+02 -0.86135558846E+02  0.15803076267E+03  0.00000000000E+00 0. -1.
        -14    1    6    6    0    0 -0.48799404885E+02 -0.93109325808E+02 -0.17426057072E+03  0.20351283738E+03  0.00000000000E+00 0.  1.
</event>
<event>
12    1  0.8313893E-002  0.1780503E+03  0.7818608E-02  0.1169733E+00
         21   -1    0    0  501  502  0.00000000000E+00  0.00000000000E+00  0.86370491827E+02  0.86370491827E+02  0.00000000000E+00 0.  1.
         21   -1    0    0  502  503 -0.00000000000E+00 -0.00000000000E+00 -0.36709358001E+03  0.36709358001E+03  0.00000000000E+00 0.  1.
         -6    2    1    2    0  503 -0.43314363540E+02 -0.17595643391E+02 -0.14679814904E+03  0.23066865587E+03  0.17167583255E+03 0.  0.
        -24    2    3    3    0    0  0.36637389735E+02 -0.15407524295E+02 -0.11296540380E+03  0.14369845771E+03  0.79425274069E+02 0.  0.
          6    2    1    2  501    0  0.43314363540E+02  0.17595643391E+02 -0.13392493915E+03  0.22279541597E+03  0.17180269875E+03 0.  0.
         24    2    5    5    0    0  0.40215539556E+02  0.45281550120E+02 -0.15734937544E+03  0.18609519313E+03  0.78771102264E+02 0.  0.
          5    1    5    5  501    0  0.30988239840E+01 -0.27685906729E+02  0.23424436290E+02  0.36700222847E+02  0.47000000000E+01 0. -1.
        -13    1    6    6    0    0  0.22766618782E+02  0.13222934897E+02 -0.18758875080E+01  0.26394770164E+02  0.00000000000E+00 0.  1.
         14    1    6    6    0    0  0.17448920774E+02  0.32058615223E+02 -0.15547348793E+03  0.15970042296E+03  0.00000000000E+00 0. -1.
         -5    1    3    3    0  503 -0.79951753275E+02 -0.21881190958E+01 -0.33832745240E+02  0.86970198157E+02  0.47000000000E+01 0.  1.
         11    1    4    4    0    0 -0.20623055901E+02  0.13380549810E+02 -0.35027656515E+02  0.42793530689E+02  0.00000000000E+00 0. -1.
        -12    1    4    4    0    0  0.57260445636E+02 -0.28788074106E+02 -0.77937747286E+02  0.10090492702E+03  0.00000000000E+00 0.  1.
</event>
<event>
12    1  0.8313893E-002  0.2459503E+03  0.7818608E-02  0.1116383E+00
         21   -1    0    0  501  502  0.00000000000E+00  0.00000000000E+00  0.30814732171E+03  0.30814732171E+03  0.00000000000E+00 0.  1.
         21   -1    0    0  502  503 -0.00000000000E+00 -0.00000000000E+00 -0.26937139838E+03  0.26937139838E+03  0.00000000000E+00 0. -1.
         -6    2    1    2    0  503 -0.17023395485E+03  0.17346325921E+02 -0.13354175478E+03  0.27721062113E+03  0.17242921386E+03 0.  0.
        -24    2    3    3    0    0 -0.13456882213E+03 -0.51678612255E+02 -0.82661528045E+02  0.18421959331E+03  0.79526621259E+02 0.  0.
          6    2    1    2  501    0  0.17023395485E+03 -0.17346325921E+02  0.17231767811E+03  0.30030809896E+03  0.17666657212E+03 0.  0.
         24    2    5    5    0    0  0.11727737023E+03 -0.76406912648E+02  0.84154189619E+02  0.18161756242E+03  0.79441887458E+02 0.  0.
          5    1    5    5  501    0  0.52956584621E+02  0.59060586727E+02  0.88163488492E+02  0.11869053653E+03  0.47000000000E+01 0. -1.
        -13    1    6    6    0    0  0.81101804560E+02 -0.66458296939E+01  0.32759570151E+02  0.87720346509E+02  0.00000000000E+00 0.  1.
         14    1    6    6    0    0  0.36175565665E+02 -0.69761082954E+02  0.51394619468E+02  0.93897215914E+02  0.00000000000E+00 0. -1.
         -5    1    3    3    0  503 -0.35665132720E+02  0.69024938176E+02 -0.50880226732E+02  0.92991027817E+02  0.47000000000E+01 0.  1.
         13    1    4    4    0    0 -0.10717764405E+03 -0.13154671448E+01 -0.50528429616E+02  0.11849852336E+03  0.00000000000E+00 0. -1.
        -14    1    4    4    0    0 -0.27391178076E+02 -0.50363145110E+02 -0.32133098429E+02  0.65721069958E+02  0.00000000000E+00 0.  1.
</event>
<event>
12    1  0.8313893E-002  0.1816783E+03  0.7818608E-02  0.1166400E+00
         21   -1    0    0  501  502  0.00000000000E+00  0.00000000000E+00  0.48806536542E+03  0.48806536542E+03  0.00000000000E+00 0. -1.
         21   -1    0    0  502  503 -0.00000000000E+00 -0.00000000000E+00 -0.74263279255E+02  0.74263279255E+02  0.00000000000E+00 0. -1.
         -6    2    1    2    0  503  0.47417709087E+01 -0.54265046747E+02  0.12035351262E+03  0.21719236355E+03  0.17239598340E+03 0.  0.
        -24    2    3    3    0    0 -0.28469436406E+02 -0.58951116162E+02  0.11287992347E+02  0.10298938088E+03  0.78699751567E+02 0.  0.
          6    2    1    2  501    0 -0.47417709087E+01  0.54265046747E+02  0.29344857355E+03  0.34513628113E+03  0.17331995715E+03 0.  0.
         24    2    5    5    0    0 -0.27469187753E+02  0.29792948369E+02  0.56153472742E+02  0.10545634050E+03  0.79533962568E+02 0.  0.
          5    1    5    5  501    0  0.22727416844E+02  0.24472098378E+02  0.23729510080E+03  0.23967994063E+03  0.47000000000E+01 0. -1.
        -11    1    6    6    0    0  0.16427253845E+02 -0.73300477671E+01  0.42814449969E+02  0.46439868597E+02  0.00000000000E+00 0.  1.
         12    1    6    6    0    0 -0.43896441597E+02  0.37122996136E+02  0.13339022772E+02  0.59016471900E+02  0.00000000000E+00 0. -1.
         -5    1    3    3    0  503  0.33211207314E+02  0.46860694146E+01  0.10906552027E+03  0.11420298267E+03  0.47000000000E+01 0.  1.
         11    1    4    4    0    0 -0.35121884864E+02 -0.59969247552E+02  0.35373244722E+02  0.77981561222E+02  0.00000000000E+00 0. -1.
        -12    1    4    4    0    0  0.66524484588E+01  0.10181313902E+01 -0.24085252376E+02  0.25007819658E+02  0.00000000000E+00 0.  1.
</event>
<event>
12    1  0.8313893E-002  0.1819018E+03  0.7818608E-02  0.1166131E+00
         21   -1    0    0  501  502  0.00000000000E+00  0.00000000000E+00  0.11511809128E+03  0.11511809128E+03  0.00000000000E+00 0.  1.
         21   -1    0    0  502  503 -0.00000000000E+00 -0.00000000000E+00 -0.37073275542E+03  0.37073275542E+03  0.00000000000E+00 0.  1.
         -6    2    1    2    0  503 -0.51784511620E+02 -0.24640379798E+02 -0.24384703645E+03  0.30421974821E+03  0.17262529959E+03 0.  0.
        -24    2    3    3    0    0  0.44474890787E+01 -0.47350838911E+02 -0.21821224395E+03  0.23821190442E+03  0.82864020496E+02 0.  0.
          6    2    1    2  501    0  0.51784511620E+02  0.24640379798E+02 -0.11767627694E+02  0.18163109848E+03  0.17193776465E+03 0.  0.
         24    2    5    5    0    0  0.58982065646E+02 -0.32074479289E+02  0.31708284687E+02  0.10965453992E+03  0.80691055996E+02 0.  0.
          5    1    5    5  501    0 -0.71975540260E+01  0.56714859086E+02 -0.43475912380E+02  0.71976558562E+02  0.47000000000E+01 0. -1.
        -11    1    6    6    0    0  0.14200472758E+02 -0.35395964144E+02 -0.18420966979E+02  0.42353981261E+02  0.00000000000E+00 0.  1.
         12    1    6    6    0    0  0.44781592888E+02  0.33214848550E+01  0.50129251666E+02  0.67300558659E+02  0.00000000000E+00 0. -1.
         -5    1    3    3    0  503 -0.56232000699E+02  0.22710459113E+02 -0.25634792498E+02  0.66007843793E+02  0.47000000000E+01 0.  1.
         11    1    4    4    0    0  0.33692033932E+02 -0.17861946791E+02 -0.40162310518E+02  0.55382429342E+02  0.00000000000E+00 0. -1.
        -12    1    4    4    0    0 -0.29244544853E+02 -0.29488892120E+02 -0.17804993343E+03  0.18282947508E+03  0.00000000000E+00 0.  1.
</event>
<event>
12    1  0.8313893E-002  0.3286187E+03  0.7818608E-02  0.1071782E+00
         21   -1    0    0  503  502  0.00000000000E+00  0.00000000000E+00  0.21201989389E+03  0.21201989389E+03  0.00000000000E+00 0. -1.
         21   -1    0    0  501  503 -0.00000000000E+00 -0.00000000000E+00 -0.60178778505E+03  0.60178778505E+03  0.00000000000E+00 0.  1.
          6    2    1    2  501    0  0.22589976288E+03 -0.16588180768E+03 -0.35468234843E+03  0.48332129904E+03  0.17103342607E+03 0.  0.
         24    2    3    3    0    0  0.14485799701E+03 -0.80309609429E+02 -0.12005754219E+03  0.22071654160E+03  0.82876448011E+02 0.  0.
         -6    2    1    2    0  502 -0.22589976288E+03  0.16588180768E+03 -0.35085542730E+02  0.33048637991E+03  0.17158897111E+03 0.  0.
        -24    2    5    5    0    0 -0.13560612774E+03  0.11115080401E+03  0.45850741406E+02  0.19736539959E+03  0.78149135356E+02 0.  0.
          5    1    3    3  501    0  0.81041765871E+02 -0.85572198251E+02 -0.23462480624E+03  0.26260475744E+03  0.47000000000E+01 0. -1.
        -13    1    4    4    0    0  0.82556840914E+02 -0.80288357055E+02 -0.10671427995E+03  0.15700251528E+03  0.00000000000E+00 0.  1.
         14    1    4    4    0    0  0.62301156094E+02 -0.21252374237E-01 -0.13343262244E+02  0.63714026318E+02  0.00000000000E+00 0. -1.
         -5    1    5    5    0  502 -0.90293635140E+02  0.54731003674E+02 -0.80936284136E+02  0.13312098031E+03  0.47000000000E+01 0.  1.
         13    1    6    6    0    0 -0.94934901097E+02  0.83523843410E+02 -0.51135549752E+01  0.12655044966E+03  0.00000000000E+00 0. -1.
        -14    1    6    6    0    0 -0.40671226642E+02  0.27626960595E+02  0.50964296381E+02  0.70814949932E+02  0.00000000000E+00 0.  1.
</event>
<event>
12    1  0.8313893E-002  0.2107591E+03  0.7818608E-02  0.1140980E+00
         21   -1    0    0  501  502  0.00000000000E+00  0.00000000000E+00  0.34104115931E+03  0.34104115931E+03  0.00000000000E+00 0. -1.
         21   -1    0    0  502  503 -0.00000000000E+00 -0.00000000000E+00 -0.90063617746E+03  0.90063617746E+03  0.00000000000E+00 0.  1.
         -6    2    1    2    0  503  0.57118936954E+02 -0.10627203231E+03 -0.85401485920E+03  0.87963673584E+03  0.17280940222E+03 0.  0.
        -24    2    3    3    0    0  0.76681202004E+02 -0.32377402146E+02 -0.30227344117E+03  0.32260551504E+03  0.76005145778E+02 0.  0.
          6    2    1    2  501    0 -0.57118936954E+02  0.10627203231E+03  0.29441984105E+03  0.36204060093E+03  0.17272531982E+03 0.  0.
         24    2    5    5    0    0 -0.56514542525E+02  0.12702484143E+03  0.30048428274E+03  0.33990664891E+03  0.76918930993E+02 0.  0.
          5    1    5    5  501    0 -0.60439442838E+00 -0.20752809116E+02 -0.60644416894E+01  0.22133952016E+02  0.47000000000E+01 0. -1.
        -13    1    6    6    0    0 -0.18561825297E+02  0.44685024663E+01  0.10055940995E+03  0.10235577073E+03  0.00000000000E+00 0.  1.
         14    1    6    6    0    0 -0.37952717228E+02  0.12255633896E+03  0.19992487279E+03  0.23755087818E+03  0.00000000000E+00 0. -1.
         -5    1    3    3    0  503 -0.19562265050E+02 -0.73894630166E+02 -0.55174141803E+03  0.55703122081E+03  0.47000000000E+01 0.  1.
         11    1    4    4    0    0  0.35331741136E+02  0.18887479774E+02 -0.17230695562E+03  0.17690323846E+03  0.00000000000E+00 0. -1.
        -12    1    4    4    0    0  0.41349460867E+02 -0.51264881920E+02 -0.12996648555E+03  0.14570227657E+03  0.00000000000E+00 0.  1.
</event>
<event>
12    1  0.8313893E-002  0.2495464E+03  0.7818608E-02  0.1113594E+00
         21   -1    0    0  503  502  0.00000000000E+00  0.00000000000E+00  0.16102014947E+03  0.16102014947E+03  0.00000000000E+00 0. -1.
         21   -1    0    0  501  503 -0.00000000000E+00 -0.00000000000E+00 -0.40225097679E+03  0.40225097679E+03  0.00000000000E+00 0.  1.
          6    2    1    2  501    0  0.73633607696E+02 -0.16475693886E+03 -0.17594760453E+03  0.30532675212E+03  0.17233719545E+03 0.  0.
         24    2    3    3    0    0  0.69829044513E+02 -0.32283535394E+02 -0.11464855516E+03  0.15923314932E+03  0.79325799879E+02 0.  0.
         -6    2    1    2    0  502 -0.73633607696E+02  0.16475693886E+03 -0.65283222790E+02  0.25794437414E+03  0.17235615419E+03 0.  0.
        -24    2    5    5    0    0 -0.29150708658E+02  0.71729130400E+02  0.31086542620E+02  0.11672779176E+03  0.81634381690E+02 0.  0.
          5    1    3    3  501    0  0.38045631835E+01 -0.13247340346E+03 -0.61299049375E+02  0.14609360280E+03  0.47000000000E+01 0. -1.
        -11    1    4    4    0    0  0.71711428813E+02 -0.52302180898E+02 -0.10311088907E+03  0.13605110287E+03  0.00000000000E+00 0.  1.
         12    1    4    4    0    0 -0.18823843000E+01  0.20018645504E+02 -0.11537666093E+02  0.23182046444E+02  0.00000000000E+00 0. -1.
         -5    1    5    5    0  502 -0.44482899038E+02  0.93027808455E+02 -0.96369765410E+02  0.14121658238E+03  0.47000000000E+01 0.  1.
         13    1    6    6    0    0 -0.22441931767E+02 -0.13813797416E+02  0.34282421978E+01  0.26574689934E+02  0.00000000000E+00 0. -1.
        -14    1    6    6    0    0 -0.67087768905E+01  0.85542927816E+02  0.27658300423E+02  0.90153101827E+02  0.00000000000E+00 0.  1.
</event>
<event>
12    1  0.8313893E-002  0.1765787E+03  0.7818608E-02  0.1171229E+00
         21   -1    0    0  501  502  0.00000000000E+00  0.00000000000E+00  0.33201656703E+02  0.33201656703E+02  0.00000000000E+00 0.  1.
         21   -1    0    0  502  503 -0.00000000000E+00 -0.00000000000E+00 -0.10036897347E+04  0.10036897347E+04  0.00000000000E+00 0.  1.
         -6    2    1    2    0  503  0.18110843420E+01  0.41586563594E+02 -0.61796385238E+03  0.64261564458E+03  0.17129746499E+03 0.  0.
        -24    2    3    3    0    0 -0.33056890067E+01 -0.42834339160E+02 -0.28879583732E+03  0.30272339352E+03  0.79954419140E+02 0.  0.
          6    2    1    2  501    0 -0.18110843420E+01 -0.41586563594E+02 -0.35252422563E+03  0.39427574683E+03  0.17160219285E+03 0.  0.
         24    2    5    5    0    0  0.18872835345E+02 -0.90974610013E+02 -0.25332334110E+03  0.28144884776E+03  0.80051078577E+02 0.  0.
          5    1    5    5  501    0 -0.20683919687E+02  0.49388046419E+02 -0.99200884530E+02  0.11282689907E+03  0.47000000000E+01 0. -1.
        -11    1    6    6    0    0  0.13955339246E+02 -0.21742649334E+02 -0.88429911706E+01  0.27307376044E+02  0.00000000000E+00 0.  1.
         12    1    6    6    0    0  0.49174960995E+01 -0.69231960679E+02 -0.24448034992E+03  0.25414147172E+03  0.00000000000E+00 0. -1.
         -5    1    3    3    0  503  0.51167733487E+01  0.84420902754E+02 -0.32916801507E+03  0.33989225107E+03  0.47000000000E+01 0.  1.
         11    1    4    4    0    0 -0.64530009065E+01 -0.53571627993E+02 -0.28619339316E+03  0.29123567576E+03  0.00000000000E+00 0. -1.
        -12    1    4    4    0    0  0.31473118999E+01  0.10737288832E+02 -0.26024441549E+01  0.11487717756E+02  0.00000000000E+00 0.  1.
</event>
<event>
12    1  0.8313893E-002  0.1950872E+03  0.7818608E-02  0.1154392E+00
         21   -1    0    0  501  502  0.00000000000E+00  0.00000000000E+00  0.92223767134E+03  0.92223767134E+03  0.00000000000E+00 0.  1.
         21   -1    0    0  502  503 -0.00000000000E+00 -0.00000000000E+00 -0.45517514768E+02  0.45517514768E+02  0.00000000000E+00 0.  1.
         -6    2    1    2    0  503 -0.92268183869E+02 -0.51181652781E+01  0.59137609381E+03  0.62209603356E+03  0.16952338264E+03 0.  0.
        -24    2    3    3    0    0 -0.49358590912E+02  0.49076786749E+02  0.22640353934E+03  0.25060527793E+03  0.81851336019E+02 0.  0.
          6    2    1    2  501    0  0.92268183869E+02  0.51181652781E+01  0.28534406275E+03  0.34565915255E+03  0.17181211314E+03 0.  0.
         24    2    5    5    0    0  0.36461397782E+02  0.63435354182E+02  0.11932898805E+03  0.16100166712E+03  0.79552823573E+02 0.  0.
          5    1    5    5  501    0  0.55806786088E+02 -0.58317188904E+02  0.16601507471E+03  0.18465748543E+03  0.47000000000E+01 0. -1.
        -13    1    6    6    0    0  0.28370232522E+02  0.23259321244E+02  0.20218987923E+01  0.36741722780E+02  0.00000000000E+00 0.  1.
         14    1    6    6    0    0  0.80911652595E+01  0.40176032938E+02  0.11730708925E+03  0.12425994434E+03  0.00000000000E+00 0. -1.
         -5    1    3    3    0  503 -0.42909592958E+02 -0.54194952027E+02  0.36497255448E+03  0.37149075563E+03  0.47000000000E+01 0.  1.
         13    1    4    4    0    0 -0.50672877087E+02  0.18449882027E+02  0.57066095523E+02  0.78515462664E+02  0.00000000000E+00 0. -1.
        -14    1    4    4    0    0  0.13142861759E+01  0.30626904721E+02  0.16933744381E+03  0.17208981527E+03  0.00000000000E+00 0.  1.
</event>
<event>
12    1  0.8313893E-002  0.1891944E+03  0.7818608E-02  0.1159305E+00
         21   -1    0    0  501  502  0.00000000000E+00  0.00000000000E+00  0.14189570504E+02  0.14189570504E+02  0.00000000000E+00 0. -1.
         21   -1    0    0  502  503 -0.00000000000E+00 -0.00000000000E+00 -0.25491142281E+04  0.25491142281E+04  0.00000000000E+00 0.  1.
         -6    2    1    2    0  503  0.77708258621E+02 -0.63285002311E+01 -0.11227650331E+04  0.11385938024E+04  0.17238301473E+03 0.  0.
        -24    2    3    3    0    0  0.85213509521E+02  0.20759359157E+02 -0.47200253836E+03  0.48720759163E+03  0.83021370325E+02 0.  0.
          6    2    1    2  501    0 -0.77708258621E+02  0.63285002311E+01 -0.14121596244E+04  0.14247099962E+04  0.17182882490E+03 0.  0.
         24    2    5    5    0    0 -0.95667668643E+02 -0.46271324960E+02 -0.94715834647E+03  0.95637511547E+03  0.79063834090E+02 0.  0.
          5    1    5    5  501    0  0.17959410022E+02  0.52599825191E+02 -0.46500127796E+03  0.46833488075E+03  0.47000000000E+01 0. -1.
        -11    1    6    6    0    0 -0.74437028393E+02 -0.38543180537E+02 -0.90193686327E+03  0.90582368775E+03  0.00000000000E+00 0.  1.
         12    1    6    6    0    0 -0.21230640249E+02 -0.77281444229E+01 -0.45221483203E+02  0.50551427722E+02  0.00000000000E+00 0. -1.
         -5    1    3    3    0  503 -0.75052509004E+01 -0.27087859388E+02 -0.65076249478E+03  0.65138621073E+03  0.47000000000E+01 0.  1.
         13    1    4    4    0    0  0.10085584029E+03  0.24080133331E+02 -0.42825129511E+03  0.44062560651E+03  0.00000000000E+00 0. -1.
        -14    1    4    4    0    0 -0.15642330768E+02 -0.33207741743E+01 -0.43751243246E+02  0.46581985128E+02  0.00000000000E+00 0.  1.
</event>
<event>
12    1  0.8313893E-002  0.1798524E+03  0.7818608E-02  0.1168582E+00
         21   -1    0    0  501  502  0.00000000000E+00  0.00000000000E+00  0.13017233058E+03  0.13017233058E+03  0.00000000000E+00 0. -1.
         21   -1    0    0  502  503 -0.00000000000E+00 -0.00000000000E+00 -0.32958697442E+03  0.32958697442E+03  0.00000000000E+00 0. -1.
         -6    2    1    2    0  503  0.31907814081E+02  0.28602088759E+02  0.16272462883E+02  0.18058702601E+03  0.17467310278E+03 0.  0.
        -24    2    3    3    0    0  0.12644251328E+02  0.78453108234E+02  0.43601971161E+02  0.12037738380E+03  0.79213732129E+02 0.  0.
          6    2    1    2  501    0 -0.31907814081E+02 -0.28602088759E+02 -0.21568710673E+03  0.27917227899E+03  0.17198850329E+03 0.  0.
         24    2    5    5    0    0 -0.79446691289E+02 -0.69441327671E+01 -0.97233400109E+02  0.14962544376E+03  0.81076763553E+02 0.  0.
          5    1    5    5  501    0  0.47538877208E+02 -0.21657955992E+02 -0.11845370662E+03  0.12954683522E+03  0.47000000000E+01 0. -1.
        -13    1    6    6    0    0 -0.19311200041E+01 -0.31906875502E+02 -0.22446263198E+02  0.39059091903E+02  0.00000000000E+00 0.  1.
         14    1    6    6    0    0 -0.77515571285E+02  0.24962742735E+02 -0.74787136911E+02  0.11056635186E+03  0.00000000000E+00 0. -1.
         -5    1    3    3    0  503  0.19263562753E+02 -0.49851019475E+02 -0.27329508278E+02  0.60209642213E+02  0.47000000000E+01 0.  1.
         11    1    4    4    0    0 -0.49608911855E+01  0.20827143481E+02  0.55029891353E+02  0.59048025278E+02  0.00000000000E+00 0. -1.
        -12    1    4    4    0    0  0.17605142513E+02  0.57625964753E+02 -0.11427920192E+02  0.61329358521E+02  0.00000000000E+00 0.  1.
</event>
<event>
12    1  0.8313893E-002  0.1852243E+03  0.7818608E-02  0.1162966E+00
         21   -1    0    0  501  502  0.00000000000E+00  0.00000000000E+00  0.17072536172E+03  0.17072536172E+03  0.00000000000E+00 0.  1.
         21   -1    0    0  502  503 -0.00000000000E+00 -0.00000000000E+00 -0.22592551096E+03  0.22592551096E+03  0.00000000000E+00 0.  1.
         -6    2    1    2    0  503 -0.58887435198E+01  0.66799748816E+02 -0.94336767932E+02  0.20786407872E+03  0.17265910256E+03 0.  0.
        -24    2    3    3    0    0 -0.69547248432E+02  0.60510068229E+02 -0.59641822050E+02  0.13494086843E+03  0.78444903676E+02 0.  0.
          6    2    1    2  501    0  0.58887435198E+01 -0.66799748816E+02  0.39136618688E+02  0.18878679397E+03  0.17208107075E+03 0.  0.
         24    2    5    5    0    0 -0.39212835356E+02 -0.90373735755E+02  0.50057233336E+02  0.13652557410E+03  0.80177597893E+02 0.  0.
          5    1    5    5  501    0  0.45101578875E+02  0.23573986939E+02 -0.10920614648E+02  0.52261219863E+02  0.47000000000E+01 0. -1.
        -11    1    6    6    0    0  0.63522999891E+01 -0.67064594929E+02  0.36918657645E+01  0.67465854185E+02  0.00000000000E+00 0.  1.
         12    1    6    6    0    0 -0.45565135345E+02 -0.23309140826E+02  0.46365367572E+02  0.69059719917E+02  0.00000000000E+00 0. -1.
         -5    1    3    3    0  503  0.63658504912E+02  0.62896805866E+01 -0.34694945882E+02  0.72923210292E+02  0.47000000000E+01 0.  1.
         13    1    4    4    0    0 -0.54394390034E+02  0.46182388696E+01 -0.53952631327E+02  0.76752617054E+02  0.00000000000E+00 0. -1.
        -14    1    4    4    0    0 -0.15152858398E+02  0.55891829360E+02 -0.56891907226E+01  0.58188251373E+02  0.00000000000E+00 0.  1.
</event>
<event>
12    1  0.8313893E-002  0.1839037E+03  0.7818608E-02  0.1164292E+00
         21   -1    0    0  503  502  0.00000000000E+00  0.00000000000E+00  0.16711583296E+03  0.16711583296E+03  0.00000000000E+00 0. -1.
         21   -1    0    0  501  503 -0.00000000000E+00 -0.00000000000E+00 -0.21787469550E+03  0.21787469550E+03  0.00000000000E+00 0.  1.
          6    2    1    2  501    0 -0.45721750670E+02 -0.43826928957E+02  0.27645912110E+02  0.18507084531E+03  0.17168472017E+03 0.  0.
         24    2    3    3    0    0  0.10233386736E+02 -0.10253362449E+02 -0.40512379136E+02  0.90594369739E+02  0.79725988985E+02 0.  0.
         -6    2    1    2    0  502  0.45721750670E+02  0.43826928957E+02 -0.78404774652E+02  0.19991968315E+03  0.17265367889E+03 0.  0.
        -24    2    5    5    0    0  0.60789001310E+02  0.30319641301E+02 -0.11645115624E+03  0.15657125741E+03  0.79618487345E+02 0.  0.
          5    1    3    3  501    0 -0.55955137406E+02 -0.33573566508E+02  0.68158291246E+02  0.94476475568E+02  0.47000000000E+01 0. -1.
        -11    1    4    4    0    0  0.41951430430E+02 -0.18967450266E+02 -0.13352344096E+02  0.47937164888E+02  0.00000000000E+00 0.  1.
         12    1    4    4    0    0 -0.31718043694E+02  0.87140878165E+01 -0.27160035041E+02  0.42657204851E+02  0.00000000000E+00 0. -1.
         -5    1    5    5    0  502 -0.15067250639E+02  0.13507287656E+02  0.38046381592E+02  0.43348425737E+02  0.47000000000E+01 0.  1.
         11    1    6    6    0    0  0.68328766508E+02  0.31860530185E+02 -0.51819806902E+02  0.91483365174E+02  0.00000000000E+00 0. -1.
        -12    1    6    6    0    0 -0.75397651985E+01 -0.15408888836E+01 -0.64631349342E+02  0.65087892235E+02  0.00000000000E+00 0.  1.
</event>
<event>
12    1  0.8313893E-002  0.4849414E+03  0.7818608E-02  0.1017814E+00
         21   -1    0    0  503  502  0.00000000000E+00  0.00000000000E+00  0.89313834421E+03  0.89313834421E+03  0.00000000000E+00 0. -1.
         21   -1    0    0  501  503 -0.00000000000E+00 -0.00000000000E+00 -0.26737261421E+03  0.26737261421E+03  0.00000000000E+00 0. -1.
          6    2    1    2  501    0  0.36715755900E+03  0.26509474360E+03  0.23921315326E+03  0.54035686241E+03  0.17228670827E+03 0.  0.
         24    2    3    3    0    0  0.34465490124E+03  0.26304131444E+03  0.25778048559E+03  0.51073555238E+03  0.80139201810E+02 0.  0.
         -6    2    1    2    0  502 -0.36715755900E+03 -0.26509474360E+03  0.38655257674E+03  0.62015409601E+03  0.17345982818E+03 0.  0.
        -24    2    5    5    0    0 -0.10519457891E+03 -0.13560952271E+03  0.19221795562E+03  0.26918535049E+03  0.77827812322E+02 0.  0.
          5    1    3    3  501    0  0.22502657767E+02  0.20534291617E+01 -0.18567332335E+02  0.29621310031E+02  0.47000000000E+01 0. -1.
        -13    1    4    4    0    0  0.93640578102E+01 -0.27232415403E+00  0.21172383821E+02  0.23152312537E+02  0.00000000000E+00 0.  1.
         14    1    4    4    0    0  0.33529084343E+03  0.26331363860E+03  0.23660810177E+03  0.48758323985E+03  0.00000000000E+00 0. -1.
         -5    1    5    5    0  502 -0.26196298010E+03 -0.12948522089E+03  0.19433462112E+03  0.35096874552E+03  0.47000000000E+01 0.  1.
         13    1    6    6    0    0 -0.10868282903E+03 -0.13815933289E+03  0.16324990893E+03  0.23989683481E+03  0.00000000000E+00 0. -1.
        -14    1    6    6    0    0  0.34882501166E+01  0.25498101791E+01  0.28968046697E+02  0.29288515672E+02  0.00000000000E+00 0.  1.
</event>
<event>
12    1  0.8313893E-002  0.1961420E+03  0.7818608E-02  0.1153956E+00
         21   -1    0    0  503  502  0.00000000000E+00  0.00000000000E+00  0.31885567546E+03  0.31885567546E+03  0.00000000000E+00 0.  1.
         21   -1    0    0  501  503 -0.00000000000E+00 -0.00000000000E+00 -0.12663637745E+03  0.12663637745E+03  0.00000000000E+00 0. -1.
          6    2    1    2  501    0 -0.90149668173E+02  0.28441591240E+02  0.37252564873E+02  0.19551927062E+03  0.16704533759E+03 0.  0.
         24    2    3    3    0    0 -0.72266886691E+02  0.45783402382E+01  0.86564013607E+02  0.13770095520E+03  0.78897151405E+02 0.  0.
         -6    2    1    2    0  502  0.90149668173E+02 -0.28441591240E+02  0.15496673313E+03  0.24997278228E+03  0.17185987525E+03 0.  0.
        -24    2    5    5    0    0  0.12275319262E+03 -0.46793272088E+01  0.85356869513E+02  0.16937961811E+03  0.79457016411E+02 0.  0.
          5    1    3    3  501    0 -0.17882781482E+02  0.23863251001E+02 -0.49311448734E+02  0.57818315421E+02  0.47000000000E+01 0. -1.
        -11    1    4    4    0    0 -0.40878079192E+02 -0.35794639338E+02  0.32644955059E+02  0.63387432939E+02  0.00000000000E+00 0.  1.
         12    1    4    4    0    0 -0.31388807499E+02  0.40372979577E+02  0.53919058548E+02  0.74313522260E+02  0.00000000000E+00 0. -1.
         -5    1    5    5    0  502 -0.32603524448E+02 -0.23762264031E+02  0.69609863619E+02  0.80593164173E+02  0.47000000000E+01 0.  1.
         11    1    6    6    0    0  0.21236632948E+02 -0.97894327771E+01 -0.13988201317E+02  0.27248804545E+02  0.00000000000E+00 0. -1.
        -12    1    6    6    0    0  0.10151655967E+03  0.51101055682E+01  0.99345070830E+02  0.14213081357E+03  0.00000000000E+00 0.  1.
</event>
<event>
12    1  0.8313893E-002  0.1866317E+03  0.7818608E-02  0.1161872E+00
         21   -1    0    0  503  502  0.00000000000E+00  0.00000000000E+00  0.15025456511E+03  0.15025456511E+03  0.00000000000E+00 0.  1.
         21   -1    0    0  501  503 -0.00000000000E+00 -0.00000000000E+00 -0.29189592578E+03  0.29189592578E+03  0.00000000000E+00 0.  1.
          6    2    1    2  501    0 -0.45329435641E+01 -0.68758315144E+02 -0.17283017061E+03  0.25436522074E+03  0.17344493123E+03 0.  0.
         24    2    3    3    0    0  0.39959052774E+02 -0.94065241394E+02 -0.97675566765E+02  0.16331423099E+03  0.81768124381E+02 0.  0.
         -6    2    1    2    0  502  0.45329435641E+01  0.68758315144E+02  0.31188809940E+02  0.18778527015E+03  0.17187877223E+03 0.  0.
        -24    2    5    5    0    0 -0.20306607797E+02  0.83903570023E+02 -0.28823013076E+02  0.12092802702E+03  0.79628225233E+02 0.  0.
          5    1    3    3  501    0 -0.44491996338E+02  0.25306926250E+02 -0.75154603849E+02  0.91050989748E+02  0.47000000000E+01 0. -1.
        -13    1    4    4    0    0  0.51750637399E+01 -0.59162514970E+02 -0.97352387023E+02  0.11403715062E+03  0.00000000000E+00 0.  1.
         14    1    4    4    0    0  0.34783989034E+02 -0.34902726425E+02 -0.32317974168E+00  0.49277080374E+02  0.00000000000E+00 0. -1.
         -5    1    5    5    0  502  0.24839551361E+02 -0.15145254879E+02  0.60011823016E+02  0.66857243130E+02  0.47000000000E+01 0.  1.
         13    1    6    6    0    0 -0.29259570767E+02 -0.24901827941E+01 -0.15013271275E+02  0.32980627740E+02  0.00000000000E+00 0. -1.
        -14    1    6    6    0    0  0.89529629700E+01  0.86393752817E+02 -0.13809741802E+02  0.87947399282E+02  0.00000000000E+00 0.  1.
</event>
<event>
12    1  0.8313893E-002  0.2131215E+03  0.7818608E-02  0.1139155E+00
         21   -1    0    0  501  502  0.00000000000E+00  0.00000000000E+00  0.98578398696E+03  0.98578398696E+03  0.00000000000E+00 0.  1.
         21   -1    0    0  502  503 -0.00000000000E+00 -0.00000000000E+00 -0.51509390865E+02  0.51509390865E+02  0.00000000000E+00 0.  1.
         -6    2    1    2    0  503 -0.25444526914E+01 -0.12603289223E+03  0.29823743099E+03  0.36656016130E+03  0.17184301687E+03 0.  0.
        -24    2    3    3    0    0  0.20813603323E+02 -0.44380125715E+01  0.16164199212E+03  0.18213858594E+03  0.81199931230E+02 0.  0.
          6    2    1    2  501    0  0.25444526914E+01  0.12603289223E+03  0.63603716510E+03  0.67073321652E+03  0.17160713326E+03 0.  0.
         24    2    5    5    0    0  0.61191146462E+02  0.79802375762E+02  0.29647402979E+03  0.32302369953E+03  0.79590731453E+02 0.  0.
          5    1    5    5  501    0 -0.58646693771E+02  0.46230516471E+02  0.33956313531E+03  0.34770951699E+03  0.47000000000E+01 0. -1.
        -13    1    6    6    0    0  0.12223718815E+02  0.36051214929E+02  0.21518155468E+03  0.21852279257E+03  0.00000000000E+00 0.  1.
         14    1    6    6    0    0  0.48967427647E+02  0.43751160833E+02  0.81292475113E+02  0.10450090696E+03  0.00000000000E+00 0. -1.
         -5    1    3    3    0  503 -0.23358056015E+02 -0.12159487966E+03  0.13659543887E+03  0.18442157536E+03  0.47000000000E+01 0.  1.
         11    1    4    4    0    0  0.27804824571E+02  0.25103938691E+02  0.32872292077E+02  0.49838776004E+02  0.00000000000E+00 0. -1.
        -12    1    4    4    0    0 -0.69912212480E+01 -0.29541951262E+02  0.12876970005E+03  0.13229980994E+03  0.00000000000E+00 0.  1.
</event>
<event>
12    1  0.8313893E-002  0.4396715E+03  0.7818608E-02  0.1030887E+00
         21   -1    0    0  503  502  0.00000000000E+00  0.00000000000E+00  0.13056717470E+04  0.13056717470E+04  0.00000000000E+00 0.  1.
         21   -1    0    0  501  503 -0.00000000000E+00 -0.00000000000E+00 -0.14801846895E+03  0.14801846895E+03  0.00000000000E+00 0. -1.
          6    2    1    2  501    0 -0.22331220256E+03 -0.33736509212E+03  0.55714407446E+03  0.70973274588E+03  0.17212642353E+03 0.  0.
         24    2    3    3    0    0 -0.70384271239E+02 -0.22590903668E+03  0.33322167750E+03  0.41652167117E+03  0.80403841376E+02 0.  0.
         -6    2    1    2    0  502  0.22331220256E+03  0.33736509212E+03  0.60050920363E+03  0.74395747011E+03  0.17081530519E+03 0.  0.
        -24    2    5    5    0    0  0.20722037292E+03  0.32671474201E+03  0.60580096747E+03  0.72340340231E+03  0.81454678709E+02 0.  0.
          5    1    3    3  501    0 -0.15292793132E+03 -0.11145605544E+03  0.22392239696E+03  0.29321107471E+03  0.47000000000E+01 0. -1.
        -13    1    4    4    0    0 -0.31799491661E+02 -0.15292086804E+02  0.56815487245E+02  0.66880902951E+02  0.00000000000E+00 0.  1.
         14    1    4    4    0    0 -0.38584779578E+02 -0.21061694988E+03  0.27640619025E+03  0.34964076822E+03  0.00000000000E+00 0. -1.
         -5    1    5    5    0  502  0.16091829636E+02  0.10650350107E+02 -0.52917638371E+01  0.20554067796E+02  0.47000000000E+01 0.  1.
         11    1    6    6    0    0  0.61427448472E+02  0.13821936340E+03  0.17689280836E+03  0.23274232424E+03  0.00000000000E+00 0. -1.
        -12    1    6    6    0    0  0.14579292445E+03  0.18849537861E+03  0.42890815911E+03  0.49066107807E+03  0.00000000000E+00 0.  1.
</event>
<event>
12    1  0.8313893E-002  0.1766969E+03  0.7818608E-02  0.1171397E+00
         21   -1    0    0  501  502  0.00000000000E+00  0.00000000000E+00  0.21708993735E+02  0.21708993735E+02  0.00000000000E+00 0.  1.
         21   -1    0    0  502  503 -0.00000000000E+00 -0.00000000000E+00 -0.14579761947E+04  0.14579761947E+04  0.00000000000E+00 0.  1.
         -6    2    1    2    0  503 -0.26165753171E+02  0.19139492197E+02 -0.82969123493E+03  0.84829790320E+03  0.17369749700E+03 0.  0.
        -24    2    3    3    0    0 -0.58198708022E+02  0.59725392595E+02 -0.43380889199E+03  0.44902575922E+03  0.80496990891E+02 0.  0.
          6    2    1    2  501    0  0.26165753171E+02 -0.19139492197E+02 -0.60657596608E+03  0.63138728527E+03  0.17223395304E+03 0.  0.
         24    2    5    5    0    0 -0.53155933765E+01  0.51172530676E+02 -0.27651195764E+03  0.29241944696E+03  0.80021164801E+02 0.  0.
          5    1    5    5  501    0  0.31481346547E+02 -0.70312022873E+02 -0.33006400844E+03  0.33896783831E+03  0.47000000000E+01 0. -1.
        -13    1    6    6    0    0  0.73773400952E+01  0.55265921538E+02 -0.93069025494E+02  0.10849235336E+03  0.00000000000E+00 0.  1.
         14    1    6    6    0    0 -0.12692933472E+02 -0.40933908618E+01 -0.18344293215E+03  0.18392709361E+03  0.00000000000E+00 0. -1.
         -5    1    3    3    0  503  0.32032954851E+02 -0.40585900398E+02 -0.39588234294E+03  0.39927214398E+03  0.47000000000E+01 0.  1.
         11    1    4    4    0    0  0.20288349013E+02  0.17122007522E+02 -0.93808333856E+02  0.97492480470E+02  0.00000000000E+00 0. -1.
        -12    1    4    4    0    0 -0.78487057035E+02  0.42603385073E+02 -0.34000055813E+03  0.35153327875E+03  0.00000000000E+00 0.  1.
</event>
<event>
12    1  0.8313893E-002  0.2122375E+03  0.7818608E-02  0.1139961E+00
         21   -1    0    0  501  502  0.00000000000E+00  0.00000000000E+00  0.52185112749E+02  0.52185112749E+02  0.00000000000E+00 0. -1.
         21   -1    0    0  502  503 -0.00000000000E+00 -0.00000000000E+00 -0.90579992369E+03  0.90579992369E+03  0.00000000000E+00 0. -1.
         -6    2    1    2    0  503 -0.11535666285E+03  0.46434851835E+02 -0.31981187430E+03  0.38382858071E+03  0.17199241059E+03 0.  0.
        -24    2    3    3    0    0 -0.26250093001E+02  0.68422864316E+02 -0.23640603159E+03  0.25972347171E+03  0.78725562815E+02 0.  0.
          6    2    1    2  501    0  0.11535666285E+03 -0.46434851835E+02 -0.53380293664E+03  0.57415645572E+03  0.17101668152E+03 0.  0.
         24    2    5    5    0    0  0.12768341108E+03 -0.66386529343E+02 -0.52221993911E+03  0.54758063986E+03  0.80129068380E+02 0.  0.
          5    1    5    5  501    0 -0.12326748229E+02  0.19951677508E+02 -0.11582997529E+02  0.26575815868E+02  0.47000000000E+01 0. -1.
        -13    1    6    6    0    0 -0.32030076449E+01  0.11702350144E+02 -0.45499975588E+02  0.47089829426E+02  0.00000000000E+00 0.  1.
         14    1    6    6    0    0  0.13088641872E+03 -0.78088879486E+02 -0.47671996352E+03  0.50049081043E+03  0.00000000000E+00 0. -1.
         -5    1    3    3    0  503 -0.89106569847E+02 -0.21988012482E+02 -0.83405842715E+02  0.12410510901E+03  0.47000000000E+01 0.  1.
         11    1    4    4    0    0 -0.49696101520E+02  0.19769570323E+02 -0.12213718574E+03  0.13333428126E+03  0.00000000000E+00 0. -1.
        -12    1    4    4    0    0  0.23446008520E+02  0.48653293993E+02 -0.11426884584E+03  0.12638919045E+03  0.00000000000E+00 0.  1.
</event>
<event>
12    1  0.8313893E-002  0.2755551E+03  0.7818608E-02  0.1098144E+00
         21   -1    0    0  501  502  0.00000000000E+00  0.00000000000E+00  0.20440230122E+03  0.20440230122E+03  0.00000000000E+00 0. -1.
         21   -1    0    0  502  503 -0.00000000000E+00 -0.00000000000E+00 -0.45348726201E+03  0.45348726201E+03  0.00000000000E+00 0.  1.
         -6    2    1    2    0  503 -0.18415772949E+03  0.11239473255E+03 -0.26444943360E+03  0.38192163106E+03  0.17141757233E+03 0.  0.
        -24    2    3    3    0    0 -0.37732246191E+02 -0.10922619149E+01 -0.62485950149E+02  0.10782117736E+03  0.79347318051E+02 0.  0.
          6    2    1    2  501    0  0.18415772949E+03 -0.11239473255E+03  0.15364472810E+02  0.27596793217E+03  0.17139307841E+03 0.  0.
         24    2    5    5    0    0  0.57514483625E+02 -0.54021438108E+02 -0.44714136617E+02  0.12405518571E+03  0.84641027200E+02 0.  0.
          5    1    5    5  501    0  0.12664324586E+03 -0.58373294440E+02  0.60078609427E+02  0.15191274646E+03  0.47000000000E+01 0. -1.
        -11    1    6    6    0    0  0.70457555326E+02 -0.25541477173E+02 -0.52882259400E+02  0.91723320470E+02  0.00000000000E+00 0.  1.
         12    1    6    6    0    0 -0.12943071701E+02 -0.28479960935E+02  0.81681227829E+01  0.32331865238E+02  0.00000000000E+00 0. -1.
         -5    1    3    3    0  503 -0.14642548329E+03  0.11348699446E+03 -0.20196348345E+03  0.27410045370E+03  0.47000000000E+01 0.  1.
         13    1    4    4    0    0 -0.32268557146E+02 -0.12564148041E+01  0.11012983328E+02  0.34119263770E+02  0.00000000000E+00 0. -1.
        -14    1    4    4    0    0 -0.54636890455E+01  0.16415288920E+00 -0.73498933477E+02  0.73701913587E+02  0.00000000000E+00 0.  1.
</event>
<event>
12    1  0.8313893E-002  0.1742691E+03  0.7818608E-02  0.1173597E+00
         21   -1    0    0  503  502  0.00000000000E+00  0.00000000000E+00  0.39468495638E+03  0.39468495638E+03  0.00000000000E+00 0. -1.
         21   -1    0    0  501  503 -0.00000000000E+00 -0.00000000000E+00 -0.30557543698E+03  0.30557543698E+03  0.00000000000E+00 0. -1.
          6    2    1    2  501    0 -0.13349159132E+02  0.17303112398E+02 -0.25846643873E+03  0.31144324949E+03  0.17237865285E+03 0.  0.
         24    2    3    3    0    0  0.57051077338E+02  0.27390735990E+02 -0.16667257735E+03  0.19522725907E+03  0.79554112383E+02 0.  0.
         -6    2    1    2    0  502  0.13349159132E+02 -0.17303112398E+02  0.34757595813E+03  0.38881714387E+03  0.17289339763E+03 0.  0.
        -24    2    5    5    0    0 -0.47902494879E+02 -0.28698901566E+02  0.12584331888E+03  0.15844986659E+03  0.78431775125E+02 0.  0.
          5    1    3    3  501    0 -0.70400236469E+02 -0.10087623592E+02 -0.91793861376E+02  0.11621599043E+03  0.47000000000E+01 0. -1.
        -13    1    4    4    0    0 -0.15217481923E+01 -0.23809626920E+02 -0.39572767737E+02  0.46208419124E+02  0.00000000000E+00 0.  1.
         14    1    4    4    0    0  0.58572825530E+02  0.51200362910E+02 -0.12709980962E+03  0.14901883994E+03  0.00000000000E+00 0. -1.
         -5    1    5    5    0  502  0.61251654010E+02  0.11395789168E+02  0.22173263925E+03  0.23036727727E+03  0.47000000000E+01 0.  1.
         11    1    6    6    0    0 -0.23572861318E+02  0.36506478424E+01  0.11372147666E+03  0.11619630491E+03  0.00000000000E+00 0. -1.
        -12    1    6    6    0    0 -0.24329633561E+02 -0.32349549408E+02  0.12121842220E+02  0.42253561683E+02  0.00000000000E+00 0.  1.
</event>
<event>
12    1  0.8313893E-002  0.1872278E+03  0.7818608E-02  0.1161073E+00
         21   -1    0    0  503  502  0.00000000000E+00  0.00000000000E+00  0.12054618923E+04  0.12054618923E+04  0.00000000000E+00 0. -1.
         21   -1    0    0  501  503 -0.00000000000E+00 -0.00000000000E+00 -0.29705183230E+02  0.29705183230E+02  0.00000000000E+00 0.  1.
          6    2    1    2  501    0  0.35033325871E+02 -0.62464594227E+02  0.49351788541E+03  0.52770396958E+03  0.17257582922E+03 0.  0.
         24    2    3    3    0    0  0.80191269250E+02 -0.66775154343E+02  0.28130305828E+03  0.31064396950E+03  0.80490398720E+02 0.  0.
         -6    2    1    2    0  502 -0.35033325871E+02  0.62464594227E+02  0.68223882368E+03  0.70746310598E+03  0.17298865376E+03 0.  0.
        -24    2    5    5    0    0 -0.87561689227E+02  0.52805775874E+02  0.54276976777E+03  0.55804346441E+03  0.79736992566E+02 0.  0.
          5    1    3    3  501    0 -0.45157943380E+02  0.43105601166E+01  0.21221482713E+03  0.21706000008E+03  0.47000000000E+01 0. -1.
        -13    1    4    4    0    0  0.28904315372E+01 -0.33796042888E+02  0.28716252572E+02  0.44442662737E+02  0.00000000000E+00 0.  1.
         14    1    4    4    0    0  0.77300837713E+02 -0.32979111456E+02  0.25258680571E+03  0.26620130676E+03  0.00000000000E+00 0. -1.
         -5    1    5    5    0  502  0.52528363356E+02  0.96588183532E+01  0.13946905591E+03  0.14941964157E+03  0.47000000000E+01 0.  1.
         11    1    6    6    0    0  0.10879976189E+02 -0.62951603025E+01  0.93151175488E+02  0.93995448932E+02  0.00000000000E+00 0. -1.
        -12    1    6    6    0    0 -0.98441665415E+02  0.59100936176E+02  0.44961859228E+03  0.46404801548E+03  0.00000000000E+00 0.  1.
</event>
<event>
12    1  0.8313893E-002  0.2385861E+03  0.7818608E-02  0.1120781E+00
         21   -1    0    0  501  502  0.00000000000E+00  0.00000000000E+00  0.37050131486E+03  0.37050131486E+03  0.00000000000E+00 0.  1.
         21   -1    0    0  502  503 -0.00000000000E+00 -0.00000000000E+00 -0.15349761078E+03  0.15349761078E+03  0.00000000000E+00 0.  1.
         -6    2    1    2    0  503 -0.14840054356E+02  0.16381739174E+03  0.10525358036E+03  0.26053850378E+03  0.17246921674E+03 0.  0.
        -24    2    3    3    0    0  0.36374035938E+02  0.25573258288E+02  0.44084498089E+02  0.10085735240E+03  0.79067695881E+02 0.  0.
          6    2    1    2  501    0  0.14840054356E+02 -0.16381739174E+03  0.11175012372E+03  0.26346042185E+03  0.17282053895E+03 0.  0.
         24    2    5    5    0    0  0.45056467791E+02 -0.12771430038E+03  0.16078816256E+02  0.15672919906E+03  0.77230082842E+02 0.  0.
          5    1    5    5  501    0 -0.30216413435E+02 -0.36103091364E+02  0.95671307462E+02  0.10673122279E+03  0.47000000000E+01 0. -1.
        -13    1    6    6    0    0  0.37763802552E+02 -0.15761323177E+02 -0.86990390535E+01  0.41835360306E+02  0.00000000000E+00 0.  1.
         14    1    6    6    0    0  0.72926652387E+01 -0.11195297720E+03  0.24777855310E+02  0.11489383876E+03  0.00000000000E+00 0. -1.
         -5    1    3    3    0  503 -0.51214090294E+02  0.13824413346E+03  0.61169082272E+02  0.15968115138E+03  0.47000000000E+01 0.  1.
         11    1    4    4    0    0  0.81136507084E+01  0.80728378553E+01 -0.23166653207E+02  0.25839811525E+02  0.00000000000E+00 0. -1.
        -12    1    4    4    0    0  0.28260385230E+02  0.17500420432E+02  0.67251151296E+02  0.75017540877E+02  0.00000000000E+00 0.  1.
</event>
<event>
12    1  0.8313893E-002  0.2276494E+03  0.7818608E-02  0.1130933E+00
         21   -1    0    0  501  502  0.00000000000E+00  0.00000000000E+00  0.45506832475E+02  0.45506832475E+02  0.00000000000E+00 0. -1.
         21   -1    0    0  502  503 -0.00000000000E+00 -0.00000000000E+00 -0.15454813110E+04  0.15454813110E+04  0.00000000000E+00 0.  1.
         -6    2    1    2    0  503 -0.94491776730E+02 -0.84937694138E+02 -0.12084044332E+04  0.12296607340E+04  0.18889451771E+03 0.  0.
        -24    2    3    3    0    0  0.13258525773E+02 -0.19082182363E+02 -0.27534081368E+03  0.28807861640E+03  0.81466602728E+02 0.  0.
          6    2    1    2  501    0  0.94491776730E+02  0.84937694138E+02 -0.29157004531E+03  0.36132740945E+03  0.17146806626E+03 0.  0.
         24    2    5    5    0    0  0.94481005259E+02  0.12341859349E+03 -0.23963546028E+03  0.29651945583E+03  0.79623013549E+02 0.  0.
          5    1    5    5  501    0  0.10771471058E-01 -0.38480899353E+02 -0.51934585031E+02  0.64807953628E+02  0.47000000000E+01 0. -1.
        -11    1    6    6    0    0  0.36489044172E+01  0.52647565507E+01 -0.71721071670E+02  0.72006557246E+02  0.00000000000E+00 0.  1.
         12    1    6    6    0    0  0.90832100842E+02  0.11815383694E+03 -0.16791438861E+03  0.22451289858E+03  0.00000000000E+00 0. -1.
         -5    1    3    3    0  503 -0.10775030250E+03 -0.65855511775E+02 -0.93306361953E+03  0.94158211761E+03  0.47000000000E+01 0.  1.
         13    1    4    4    0    0  0.25123452151E+02 -0.46830220222E+02 -0.14933354752E+03  0.15850793604E+03  0.00000000000E+00 0. -1.
        -14    1    4    4    0    0 -0.11864926378E+02  0.27748037860E+02 -0.12600726616E+03  0.12957068036E+03  0.00000000000E+00 0.  1.
</event>
<event>
12    1  0.8313893E-002  0.2303454E+03  0.7818608E-02  0.1126502E+00
         21   -1    0    0  501  502  0.00000000000E+00  0.00000000000E+00  0.47449041330E+02  0.47449041330E+02  0.00000000000E+00 0. -1.
         21   -1    0    0  502  503 -0.00000000000E+00 -0.00000000000E+00 -0.12027890294E+04  0.12027890294E+04  0.00000000000E+00 0.  1.
         -6    2    1    2    0  503 -0.94992174924E+02  0.11893947806E+03 -0.40980008366E+03  0.47010117585E+03  0.17288404851E+03 0.  0.
        -24    2    3    3    0    0 -0.16892075653E+02  0.12524398088E+03 -0.28658328952E+03  0.32400586237E+03  0.82936240886E+02 0.  0.
          6    2    1    2  501    0  0.94992174924E+02 -0.11893947806E+03 -0.74553990446E+03  0.78013689493E+03  0.17208635319E+03 0.  0.
         24    2    5    5    0    0  0.10371469333E+03 -0.14501284853E+03 -0.57995992235E+03  0.61222405012E+03  0.81727058963E+02 0.  0.
          5    1    5    5  501    0 -0.87225184048E+01  0.26073370479E+02 -0.16557998211E+03  0.16791284481E+03  0.47000000000E+01 0. -1.
        -13    1    6    6    0    0  0.96347516213E+02 -0.12646804898E+03 -0.56591120774E+03  0.58782013094E+03  0.00000000000E+00 0.  1.
         14    1    6    6    0    0  0.73671771158E+01 -0.18544799558E+02 -0.14048714604E+02  0.24403919180E+02  0.00000000000E+00 0. -1.
         -5    1    3    3    0  503 -0.78100099271E+02 -0.63045028219E+01 -0.12321679414E+03  0.14609531348E+03  0.47000000000E+01 0.  1.
         11    1    4    4    0    0 -0.39392841757E+02  0.42963413154E+02 -0.69157045219E+02  0.90445274918E+02  0.00000000000E+00 0. -1.
        -12    1    4    4    0    0  0.22500766104E+02  0.82280567723E+02 -0.21742624430E+03  0.23356058745E+03  0.00000000000E+00 0.  1.
</event>
<event>
12    1  0.8313893E-002  0.1977936E+03  0.7818608E-02  0.1152647E+00
         21   -1    0    0  503  502  0.00000000000E+00  0.00000000000E+00  0.24146758497E+03  0.24146758497E+03  0.00000000000E+00 0.  1.
         21   -1    0    0  501  503 -0.00000000000E+00 -0.00000000000E+00 -0.15842761575E+03  0.15842761575E+03  0.00000000000E+00 0.  1.
          6    2    1    2  501    0  0.41667046111E+02  0.72825497114E+02  0.33507410612E+02  0.20061165244E+03  0.17911614323E+03 0.  0.
         24    2    3    3    0    0 -0.37440009292E+02  0.73959899690E+02 -0.72105664250E+00  0.11428152413E+03  0.78663369976E+02 0.  0.
         -6    2    1    2    0  502 -0.41667046111E+02 -0.72825497114E+02  0.49532558606E+02  0.19928354829E+03  0.17384119907E+03 0.  0.
        -24    2    5    5    0    0 -0.57482015449E+02 -0.91802986617E+02  0.82985794703E+02  0.15743301223E+03  0.78527324959E+02 0.  0.
          5    1    3    3  501    0  0.79107055403E+02 -0.11344025752E+01  0.34228467255E+02  0.86330128312E+02  0.47000000000E+01 0. -1.
        -11    1    4    4    0    0 -0.47488430968E+02  0.39769717765E+02  0.28512269226E+02  0.68188936223E+02  0.00000000000E+00 0.  1.
         12    1    4    4    0    0  0.10048421676E+02  0.34190181925E+02 -0.29233325868E+02  0.46092587902E+02  0.00000000000E+00 0. -1.
         -5    1    5    5    0  502  0.15814969338E+02  0.18977489503E+02 -0.33453236097E+02  0.41850536058E+02  0.47000000000E+01 0.  1.
         13    1    6    6    0    0  0.90487944536E+01 -0.23016715652E+01  0.34653672799E+02  0.35889488872E+02  0.00000000000E+00 0. -1.
        -14    1    6    6    0    0 -0.66530809903E+02 -0.89501315052E+02  0.48332121904E+02  0.12154352336E+03  0.00000000000E+00 0.  1.
</event>
<event>
12    1  0.8313893E-002  0.2395317E+03  0.7818608E-02  0.1120205E+00
         21   -1    0    0  501  502  0.00000000000E+00  0.00000000000E+00  0.59437495352E+02  0.59437495352E+02  0.00000000000E+00 0.  1.
         21   -1    0    0  502  503 -0.00000000000E+00 -0.00000000000E+00 -0.10314289530E+04  0.10314289530E+04  0.00000000000E+00 0.  1.
         -6    2    1    2    0  503 -0.51950224564E+02 -0.15894717588E+03 -0.34596669954E+03  0.42079496079E+03  0.17150047022E+03 0.  0.
        -24    2    3    3    0    0  0.12221467492E+02 -0.13099221807E+02 -0.97052065861E+02  0.12521042698E+03  0.77055782763E+02 0.  0.
          6    2    1    2  501    0  0.51950224564E+02  0.15894717588E+03 -0.62602475810E+03  0.67007148755E+03  0.17066273795E+03 0.  0.
         24    2    5    5    0    0  0.83205933756E+02  0.16885832032E+03 -0.53743488864E+03  0.57549133577E+03  0.83172460959E+02 0.  0.
          5    1    5    5  501    0 -0.31255709193E+02 -0.99111444377E+01 -0.88589869463E+02  0.94580151790E+02  0.47000000000E+01 0. -1.
        -13    1    6    6    0    0  0.16720827681E+02  0.43106720551E+02 -0.51709844294E+02  0.69366298963E+02  0.00000000000E+00 0.  1.
         14    1    6    6    0    0  0.66485106076E+02  0.12575159977E+03 -0.48572504435E+03  0.50612503680E+03  0.00000000000E+00 0. -1.
         -5    1    3    3    0  503 -0.64171692056E+02 -0.14584795407E+03 -0.24891463368E+03  0.29558453381E+03  0.47000000000E+01 0.  1.
         13    1    4    4    0    0  0.20111195981E+01 -0.10791866826E+02  0.11648999552E+02  0.16006504372E+02  0.00000000000E+00 0. -1.
        -14    1    4    4    0    0  0.10210347894E+02 -0.23073549808E+01 -0.10870106541E+03  0.10920392261E+03  0.00000000000E+00 0.  1.
</event>
<event>
12    1  0.8313893E-002  0.1817267E+03  0.7818608E-02  0.1166734E+00
         21   -1    0    0  503  502  0.00000000000E+00  0.00000000000E+00  0.21296749885E+03  0.21296749885E+03  0.00000000000E+00 0. -1.
         21   -1    0    0  501  503 -0.00000000000E+00 -0.00000000000E+00 -0.22142007237E+03  0.22142007237E+03  0.00000000000E+00 0. -1.
          6    2    1    2  501    0 -0.44729351295E+02  0.51716069628E+01 -0.12495777006E+03  0.21852177784E+03  0.17352193726E+03 0.  0.
         24    2    3    3    0    0  0.40504770883E+02 -0.17483008112E+02 -0.58017732681E+02  0.10770144681E+03  0.79292195719E+02 0.  0.
         -6    2    1    2    0  502  0.44729351295E+02 -0.51716069628E+01  0.11650519653E+03  0.21586579338E+03  0.17605998849E+03 0.  0.
        -24    2    5    5    0    0  0.53931202870E+02  0.54465215283E+02  0.10691043913E+03  0.15458468691E+03  0.81188355779E+02 0.  0.
          5    1    3    3  501    0 -0.85234122178E+02  0.22654615075E+02 -0.66940037374E+02  0.11082033104E+03  0.47000000000E+01 0. -1.
        -13    1    4    4    0    0  0.15259637108E+02  0.27060063786E+02 -0.10175701353E+01  0.31082776996E+02  0.00000000000E+00 0.  1.
         14    1    4    4    0    0  0.25245133774E+02 -0.44543071898E+02 -0.57000162546E+02  0.76618669811E+02  0.00000000000E+00 0. -1.
         -5    1    5    5    0  502 -0.92018515747E+01 -0.59636822246E+02  0.95947574021E+01  0.61281106465E+02  0.47000000000E+01 0.  1.
         11    1    6    6    0    0  0.22083992004E+02  0.59644723231E+02  0.28307117759E+02  0.69616726640E+02  0.00000000000E+00 0. -1.
        -12    1    6    6    0    0  0.31847210866E+02 -0.51795079483E+01  0.78603321370E+02  0.84967960273E+02  0.00000000000E+00 0.  1.
</event>
<event>
12    1  0.8313893E-002  0.1967555E+03  0.7818608E-02  0.1152747E+00
         21   -1    0    0  501  502  0.00000000000E+00  0.00000000000E+00  0.10855556548E+03  0.10855556548E+03  0.00000000000E+00 0.  1.
         21   -1    0    0  502  503 -0.00000000000E+00 -0.00000000000E+00 -0.42279081497E+03  0.42279081497E+03  0.00000000000E+00 0. -1.
         -6    2    1    2    0  503  0.39013342633E+02 -0.85123768050E+02 -0.26343980866E+03  0.32813978201E+03  0.17177627007E+03 0.  0.
        -24    2    3    3    0    0  0.23750637881E+02 -0.12567929474E+03 -0.22460206630E+03  0.26976032386E+03  0.77234488541E+02 0.  0.
          6    2    1    2  501    0 -0.39013342633E+02  0.85123768050E+02 -0.50795440830E+02  0.20320659843E+03  0.17304521966E+03 0.  0.
         24    2    5    5    0    0 -0.88127335033E+02  0.27952450644E+02 -0.39779353572E+02  0.12689023084E+03  0.77272032690E+02 0.  0.
          5    1    5    5  501    0  0.49113992400E+02  0.57171317406E+02 -0.11016087259E+02  0.76316367589E+02  0.47000000000E+01 0. -1.
        -13    1    6    6    0    0 -0.80215930767E+02 -0.34389918280E+01 -0.66414231775E+01  0.80563830069E+02  0.00000000000E+00 0.  1.
         14    1    6    6    0    0 -0.79114042660E+01  0.31391442472E+02 -0.33137930394E+02  0.46326400775E+02  0.00000000000E+00 0. -1.
         -5    1    3    3    0  503  0.15262704751E+02  0.40555526689E+02 -0.38837742364E+02  0.58379458145E+02  0.47000000000E+01 0.  1.
         13    1    4    4    0    0 -0.23033417422E+02 -0.14893984803E+02 -0.27317219315E+02  0.38711749800E+02  0.00000000000E+00 0. -1.
        -14    1    4    4    0    0  0.46784055303E+02 -0.11078530994E+03 -0.19728484698E+03  0.23104857406E+03  0.00000000000E+00 0.  1.
</event>
<event>
12    1  0.8313893E-002  0.2156182E+03  0.7818608E-02  0.1137580E+00
         21   -1    0    0  501  502  0.00000000000E+00  0.00000000000E+00  0.61075133497E+02  0.61075133497E+02  0.00000000000E+00 0.  1.
         21   -1    0    0  502  503 -0.00000000000E+00 -0.00000000000E+00 -0.89022719234E+03  0.89022719234E+03  0.00000000000E+00 0.  1.
         -6    2    1    2    0  503 -0.64137698658E+02  0.10862384100E+03 -0.59891179497E+03  0.63586325459E+03  0.17237736845E+03 0.  0.
        -24    2    3    3    0    0  0.22391644158E+02  0.79641692918E+02 -0.24527857044E+03  0.27061561316E+03  0.78911646728E+02 0.  0.
          6    2    1    2  501    0  0.64137698658E+02 -0.10862384100E+03 -0.23024026387E+03  0.31543907125E+03  0.17486693610E+03 0.  0.
         24    2    5    5    0    0  0.74322379650E+02 -0.13867473599E+03 -0.22024956952E+03  0.28184311926E+03  0.78556810549E+02 0.  0.
          5    1    5    5  501    0 -0.10184680992E+02  0.30050894985E+02 -0.99906943470E+01  0.33595951986E+02  0.47000000000E+01 0. -1.
        -11    1    6    6    0    0  0.12001000490E+02 -0.37790590459E+02 -0.10700998949E+02  0.41069016527E+02  0.00000000000E+00 0.  1.
         12    1    6    6    0    0  0.62321379160E+02 -0.10088414553E+03 -0.20954857058E+03  0.24077410274E+03  0.00000000000E+00 0. -1.
         -5    1    3    3    0  503 -0.86529342817E+02  0.28982148082E+02 -0.35363322454E+03  0.36524764143E+03  0.47000000000E+01 0.  1.
         11    1    4    4    0    0  0.49713696429E+02  0.56023290491E+02 -0.19346014687E+03  0.20745334203E+03  0.00000000000E+00 0. -1.
        -12    1    4    4    0    0 -0.27322052271E+02  0.23618402427E+02 -0.51818423563E+02  0.63162271128E+02  0.00000000000E+00 0.  1.
</event>
<event>
12    1  0.8313893E-002  0.1819644E+03  0.7818608E-02  0.1166187E+00
         21   -1    0    0  501  502  0.00000000000E+00  0.00000000000E+00  0.10893916428E+03  0.10893916428E+03  0.00000000000E+00 0. -1.
         21   -1    0    0  502  503 -0.00000000000E+00 -0.00000000000E+00 -0.44309438675E+03  0.44309438675E+03  0.00000000000E+00 0. -1.
         -6    2    1    2    0  503 -0.31534911070E+02  0.45615620837E+02 -0.32244982357E+03  0.36969305180E+03  0.17211574113E+03 0.  0.
        -24    2    3    3    0    0  0.45359823162E+02  0.22221828901E+02 -0.21817122769E+03  0.23795017642E+03  0.80438042180E+02 0.  0.
          6    2    1    2  501    0  0.31534911070E+02 -0.45615620837E+02 -0.11705398896E+02  0.18234049924E+03  0.17330841243E+03 0.  0.
         24    2    5    5    0    0  0.20831060681E+02 -0.67001025343E+02 -0.63361203772E+02  0.12522377562E+03  0.82117485053E+02 0.  0.
          5    1    5    5  501    0  0.10703850389E+02  0.21385404505E+02  0.51655804877E+02  0.57116723615E+02  0.47000000000E+01 0. -1.
        -11    1    6    6    0    0  0.38651368724E+02 -0.11510956534E-01 -0.24327939108E+02  0.45670308276E+02  0.00000000000E+00 0.  1.
         12    1    6    6    0    0 -0.17820308043E+02 -0.66989514386E+02 -0.39033264664E+02  0.79553467346E+02  0.00000000000E+00 0. -1.
         -5    1    3    3    0  503 -0.76894734232E+02  0.23393791936E+02 -0.10427859588E+03  0.13174287538E+03  0.47000000000E+01 0.  1.
         13    1    4    4    0    0 -0.12392000886E+02  0.12757509462E+02 -0.13549631703E+03  0.13665858064E+03  0.00000000000E+00 0. -1.
        -14    1    4    4    0    0  0.57751824047E+02  0.94643194393E+01 -0.82674910658E+02  0.10129159578E+03  0.00000000000E+00 0.  1.
</event>
<event>
12    1  0.8313893E-002  0.1791087E+03  0.7818608E-02  0.1170770E+00
         21   -1    0    0  501  502  0.00000000000E+00  0.00000000000E+00  0.49469011464E+03  0.49469011464E+03  0.00000000000E+00 0.  1.
         21   -1    0    0  502  503 -0.00000000000E+00 -0.00000000000E+00 -0.68544831076E+02  0.68544831076E+02  0.00000000000E+00 0.  1.
         -6    2    1    2    0  503  0.36478354677E+02 -0.30046959369E+02  0.29650740832E+03  0.34213334081E+03  0.16402770979E+03 0.  0.
        -24    2    3    3    0    0 -0.20294352660E+02 -0.28260693835E+02  0.73751824550E+02  0.11220189202E+03  0.77067537796E+02 0.  0.
          6    2    1    2  501    0 -0.36478354677E+02  0.30046959369E+02  0.12963787524E+03  0.22110160490E+03  0.17276125395E+03 0.  0.
         24    2    5    5    0    0  0.43707379167E+02  0.13178826030E+00  0.48486054621E+02  0.10306611293E+03  0.79758220773E+02 0.  0.
          5    1    5    5  501    0 -0.80185733843E+02  0.29915171108E+02  0.81151820617E+02  0.11803549197E+03  0.47000000000E+01 0. -1.
        -13    1    6    6    0    0  0.22185154039E+01  0.34269778983E+02  0.31807301097E+02  0.46808588584E+02  0.00000000000E+00 0.  1.
         14    1    6    6    0    0  0.41488863763E+02 -0.34137990722E+02  0.16678753524E+02  0.56257524350E+02  0.00000000000E+00 0. -1.
         -5    1    3    3    0  503  0.56772707336E+02 -0.17862655340E+01  0.22275558377E+03  0.22993144879E+03  0.47000000000E+01 0.  1.
         13    1    4    4    0    0  0.26838797165E+02 -0.19519639688E+01  0.10097035385E+02  0.28741630436E+02  0.00000000000E+00 0. -1.
        -14    1    4    4    0    0 -0.47133149825E+02 -0.26308729866E+02  0.63654789165E+02  0.83460261581E+02  0.00000000000E+00 0.  1.
</event>
<event>
12    1  0.8313893E-002  0.3306833E+03  0.7818608E-02  0.1070845E+00
         21   -1    0    0  501  502  0.00000000000E+00  0.00000000000E+00  0.18902271251E+03  0.18902271251E+03  0.00000000000E+00 0. -1.
         21   -1    0    0  502  503 -0.00000000000E+00 -0.00000000000E+00 -0.63422389412E+03  0.63422389412E+03  0.00000000000E+00 0.  1.
         -6    2    1    2    0  503  0.21989471109E+03 -0.17692912434E+03 -0.10040504415E+03  0.34550630304E+03  0.17215061296E+03 0.  0.
        -24    2    3    3    0    0  0.14349234363E+03 -0.16737613936E+03 -0.21288942458E+02  0.23500730384E+03  0.78551824196E+02 0.  0.
          6    2    1    2  501    0 -0.21989471109E+03  0.17692912434E+03 -0.34479613746E+03  0.47774030360E+03  0.17231895505E+03 0.  0.
         24    2    5    5    0    0 -0.53387478455E+02  0.91683649489E+02 -0.19016491432E+03  0.23499691096E+03  0.88344434346E+02 0.  0.
          5    1    5    5  501    0 -0.16650723263E+03  0.85245474856E+02 -0.15463122314E+03  0.24274339264E+03  0.47000000000E+01 0. -1.
        -11    1    6    6    0    0 -0.59666435315E+02  0.10183880528E+03 -0.13850343366E+03  0.18197369838E+03  0.00000000000E+00 0.  1.
         12    1    6    6    0    0  0.62789568594E+01 -0.10155155791E+02 -0.51661480660E+02  0.53023212581E+02  0.00000000000E+00 0. -1.
         -5    1    3    3    0  503  0.76402367463E+02 -0.95529849890E+01 -0.79116101690E+02  0.11049899919E+03  0.47000000000E+01 0.  1.
         11    1    4    4    0    0  0.49451286156E+02 -0.36632937855E+02  0.26515454137E+02  0.67010977806E+02  0.00000000000E+00 0. -1.
        -12    1    4    4    0    0  0.94041057469E+02 -0.13074320150E+03 -0.47804396595E+02  0.16799632604E+03  0.00000000000E+00 0.  1.
</event>
<event>
12    1  0.8313893E-002  0.2770469E+03  0.7818608E-02  0.1098072E+00
         21   -1    0    0  501  502  0.00000000000E+00  0.00000000000E+00  0.13692667685E+03  0.13692667685E+03  0.00000000000E+00 0.  1.
         21   -1    0    0  502  503 -0.00000000000E+00 -0.00000000000E+00 -0.74717656816E+03  0.74717656816E+03  0.00000000000E+00 0. -1.
         -6    2    1    2    0  503  0.10983331031E+03  0.18040901736E+03 -0.53463378832E+03  0.60215302350E+03  0.17928805455E+03 0.  0.
        -24    2    3    3    0    0 -0.15541884414E+02  0.96719895348E+02 -0.23520287464E+03  0.26688630779E+03  0.79445709276E+02 0.  0.
          6    2    1    2  501    0 -0.10983331031E+03 -0.18040901736E+03 -0.75616103001E+02  0.28195022151E+03  0.17078455075E+03 0.  0.
         24    2    5    5    0    0 -0.13580720308E+03 -0.18286000673E+03 -0.52936430128E+02  0.24706314631E+03  0.79728001123E+02 0.  0.
          5    1    5    5  501    0  0.25973892763E+02  0.24509893661E+01 -0.22679672873E+02  0.34887075197E+02  0.47000000000E+01 0. -1.
        -11    1    6    6    0    0 -0.76831831886E+02 -0.11328641866E+03  0.84166185767E+01  0.13714146897E+03  0.00000000000E+00 0.  1.
         12    1    6    6    0    0 -0.58975371192E+02 -0.69573588065E+02 -0.61353048704E+02  0.10992167734E+03  0.00000000000E+00 0. -1.
         -5    1    3    3    0  503  0.12537519473E+03  0.83689122012E+02 -0.29943091368E+03  0.33526671571E+03  0.47000000000E+01 0.  1.
         13    1    4    4    0    0 -0.47223206295E+02  0.43731318414E+02 -0.11727198749E+03  0.13377286150E+03  0.00000000000E+00 0. -1.
        -14    1    4    4    0    0  0.31681321881E+02  0.52988576934E+02 -0.11793088714E+03  0.13311344629E+03  0.00000000000E+00 0.  1.
</event>
<event>
12    1  0.8313893E-002  0.1803216E+03  0.7818608E-02  0.1167859E+00
         21   -1    0    0  501  502  0.00000000000E+00  0.00000000000E+00  0.11497554507E+04  0.11497554507E+04  0.00000000000E+00 0.  1.
         21   -1    0    0  502  503 -0.00000000000E+00 -0.00000000000E+00 -0.28140853172E+02  0.28140853172E+02  0.00000000000E+00 0.  1.
         -6    2    1    2    0  503  0.30841726743E+02  0.42347332040E+02  0.59768145256E+03  0.62429079509E+03  0.17254381895E+03 0.  0.
        -24    2    3    3    0    0 -0.15711690959E+02  0.72756938294E+02  0.48827104086E+03  0.50147103674E+03  0.86741927826E+02 0.  0.
          6    2    1    2  501    0 -0.30841726743E+02 -0.42347332040E+02  0.52393314497E+03  0.55360550878E+03  0.17096376903E+03 0.  0.
         24    2    5    5    0    0  0.54880712700E+01 -0.70407633309E+02  0.19975766238E+03  0.22616227975E+03  0.79113205893E+02 0.  0.
          5    1    5    5  501    0 -0.36329798013E+02  0.28060301269E+02  0.32417548259E+03  0.32744322904E+03  0.47000000000E+01 0. -1.
        -13    1    6    6    0    0 -0.12786234675E+02 -0.56946288835E+02  0.19421939800E+03  0.20279926570E+03  0.00000000000E+00 0.  1.
         14    1    6    6    0    0  0.18274305945E+02 -0.13461344474E+02  0.55382643739E+01  0.23363014041E+02  0.00000000000E+00 0. -1.
         -5    1    3    3    0  503  0.46553417702E+02 -0.30409606254E+02  0.10941041171E+03  0.12281975835E+03  0.47000000000E+01 0.  1.
         13    1    4    4    0    0  0.13407763188E+02  0.67299606674E+01  0.29148530608E+03  0.29187110879E+03  0.00000000000E+00 0. -1.
        -14    1    4    4    0    0 -0.29119454147E+02  0.66026977627E+02  0.19678573477E+03  0.20959992794E+03  0.00000000000E+00 0.  1.
</event>
<event>
12    1  0.8313893E-002  0.1983072E+03  0.7818608E-02  0.1151316E+00
         21   -1    0    0  501  502  0.00000000000E+00  0.00000000000E+00  0.78047903654E+02  0.78047903654E+02  0.00000000000E+00 0. -1.
         21   -1    0    0  502  503 -0.00000000000E+00 -0.00000000000E+00 -0.57500352751E+03  0.57500352751E+03  0.00000000000E+00 0. -1.
         -6    2    1    2    0  503 -0.11434746071E+02  0.98200684997E+02 -0.36503321021E+03  0.41542147838E+03  0.17190588177E+03 0.  0.
        -24    2    3    3    0    0 -0.33321338647E+02  0.39710344484E+02 -0.82529611653E+02  0.12605922088E+03  0.79953532129E+02 0.  0.
          6    2    1    2  501    0  0.11434746071E+02 -0.98200684997E+02 -0.13192241364E+03  0.23762995278E+03  0.17114421780E+03 0.  0.
         24    2    5    5    0    0 -0.36541724378E+02 -0.11013771360E+03 -0.67329378852E+02  0.15615244354E+03  0.79904485422E+02 0.  0.
          5    1    5    5  501    0  0.47976470449E+02  0.11937028604E+02 -0.64593034790E+02  0.81477509240E+02  0.47000000000E+01 0. -1.
        -11    1    6    6    0    0  0.23579118069E+01 -0.30626284506E+02  0.15955680486E+02  0.34613765910E+02  0.00000000000E+00 0.  1.
         12    1    6    6    0    0 -0.38899636185E+02 -0.79511429095E+02 -0.83285059338E+02  0.12153867763E+03  0.00000000000E+00 0. -1.
         -5    1    3    3    0  503  0.21886592576E+02  0.58490340513E+02 -0.28250359856E+03  0.28936225750E+03  0.47000000000E+01 0.  1.
         13    1    4    4    0    0 -0.36262365146E+02  0.56497458601E+02 -0.85554895850E+02  0.10874999843E+03  0.00000000000E+00 0. -1.
        -14    1    4    4    0    0  0.29410264988E+01 -0.16787114117E+02  0.30252841971E+01  0.17309222447E+02  0.00000000000E+00 0.  1.
</event>
<event>
12    1  0.8313893E-002  0.2110653E+03  0.7818608E-02  0.1141742E+00
         21   -1    0    0  503  502  0.00000000000E+00  0.00000000000E+00  0.42329608733E+03  0.42329608733E+03  0.00000000000E+00 0.  1.
         21   -1    0    0  501  503 -0.00000000000E+00 -0.00000000000E+00 -0.15136613601E+03  0.15136613601E+03  0.00000000000E+00 0. -1.
          6    2    1    2  501    0  0.46029255916E+02 -0.10283326410E+03 -0.28059031276E+02  0.20786260822E+03  0.17241282450E+03 0.  0.
         24    2    3    3    0    0  0.91122024814E+02 -0.88468969597E+02  0.94607929082E+01  0.14728606185E+03  0.73984426899E+02 0.  0.
         -6    2    1    2    0  502 -0.46029255916E+02  0.10283326410E+03  0.29998898260E+03  0.36679961513E+03  0.17848023804E+03 0.  0.
        -24    2    5    5    0    0 -0.54122394127E+02  0.77791809591E+02  0.31319817875E+03  0.33698106062E+03  0.80512960839E+02 0.  0.
          5    1    3    3  501    0 -0.45092768898E+02 -0.14364294499E+02 -0.37519824184E+02  0.60576546371E+02  0.47000000000E+01 0. -1.
        -11    1    4    4    0    0  0.15430192024E+02 -0.50369350854E+02  0.29265085436E+02  0.60262820685E+02  0.00000000000E+00 0.  1.
         12    1    4    4    0    0  0.75691832790E+02 -0.38099618743E+02 -0.19804292528E+02  0.87023241160E+02  0.00000000000E+00 0. -1.
         -5    1    5    5    0  502  0.80931382114E+01  0.25041454505E+02 -0.13209196146E+02  0.29818554504E+02  0.47000000000E+01 0.  1.
         11    1    6    6    0    0 -0.59966101384E+00  0.56409737174E+02  0.88040211974E+02  0.10456336340E+03  0.00000000000E+00 0. -1.
        -12    1    6    6    0    0 -0.53522733113E+02  0.21382072417E+02  0.22515796677E+03  0.23241769722E+03  0.00000000000E+00 0.  1.
</event>
<event>
12    1  0.8313893E-002  0.2438167E+03  0.7818608E-02  0.1118184E+00
         21   -1    0    0  501  502  0.00000000000E+00  0.00000000000E+00  0.51406129737E+02  0.51406129737E+02  0.00000000000E+00 0.  1.
         21   -1    0    0  502  503 -0.00000000000E+00 -0.00000000000E+00 -0.12934801061E+04  0.12934801061E+04  0.00000000000E+00 0.  1.
         -6    2    1    2    0  503  0.37915906830E+02  0.16711373237E+03 -0.85353489655E+03  0.88618239649E+03  0.16562851411E+03 0.  0.
        -24    2    3    3    0    0  0.56917483438E+02  0.15753661791E+03 -0.52551598409E+03  0.55744043390E+03  0.80718039571E+02 0.  0.
          6    2    1    2  501    0 -0.37915906830E+02 -0.16711373237E+03 -0.38853907982E+03  0.45870383935E+03  0.17344157561E+03 0.  0.
         24    2    5    5    0    0 -0.93696387096E+01 -0.13788474296E+03 -0.38580345804E+03  0.41748737574E+03  0.79695722598E+02 0.  0.
          5    1    5    5  501    0 -0.28546268121E+02 -0.29228989414E+02 -0.27356217799E+01  0.41216463607E+02  0.47000000000E+01 0. -1.
        -11    1    6    6    0    0 -0.58501017747E+01 -0.10641532201E+03 -0.36337947760E+03  0.37868600343E+03  0.00000000000E+00 0.  1.
         12    1    6    6    0    0 -0.35195369349E+01 -0.31469420945E+02 -0.22423980434E+02  0.38801372313E+02  0.00000000000E+00 0. -1.
         -5    1    3    3    0  503 -0.19001576608E+02  0.95771144589E+01 -0.32801891246E+03  0.32874196259E+03  0.47000000000E+01 0.  1.
         13    1    4    4    0    0  0.58006045832E+02  0.50324804106E+02 -0.25968867286E+03  0.27080526965E+03  0.00000000000E+00 0. -1.
        -14    1    4    4    0    0 -0.10885623940E+01  0.10721181381E+03 -0.26582731123E+03  0.28663516425E+03  0.00000000000E+00 0.  1.
</event>
<event>
12    1  0.8313893E-002  0.2011524E+03  0.7818608E-02  0.1149041E+00
         21   -1    0    0  501  502  0.00000000000E+00  0.00000000000E+00  0.32232366529E+02  0.32232366529E+02  0.00000000000E+00 0. -1.
         21   -1    0    0  502  503 -0.00000000000E+00 -0.00000000000E+00 -0.21763644077E+04  0.21763644077E+04  0.00000000000E+00 0. -1.
         -6    2    1    2    0  503 -0.32235918755E+01 -0.10228327781E+03 -0.17916012538E+04  0.18027147188E+04  0.17167715109E+03 0.  0.
        -24    2    3    3    0    0 -0.34209958957E+02 -0.12913335334E+03 -0.12792726201E+04  0.12887265862E+04  0.80199957910E+02 0.  0.
          6    2    1    2  501    0  0.32235918755E+01  0.10228327781E+03 -0.35253078741E+03  0.40588205550E+03  0.17317628716E+03 0.  0.
         24    2    5    5    0    0  0.20385520893E+02  0.57286899029E+02 -0.34297067310E+03  0.35655973097E+03  0.76214177664E+02 0.  0.
          5    1    5    5  501    0 -0.17161929017E+02  0.44996378783E+02 -0.95601143092E+01  0.49322324527E+02  0.47000000000E+01 0. -1.
        -11    1    6    6    0    0  0.49244928627E+02  0.29365144285E+02 -0.20381133969E+03  0.21172254693E+03  0.00000000000E+00 0.  1.
         12    1    6    6    0    0 -0.28859407734E+02  0.27921754744E+02 -0.13915933342E+03  0.14483718404E+03  0.00000000000E+00 0. -1.
         -5    1    3    3    0  503  0.30986367081E+02  0.26850075532E+02 -0.51232863368E+03  0.51398813254E+03  0.47000000000E+01 0.  1.
         11    1    4    4    0    0  0.14691118919E+02 -0.40134549283E+02 -0.64130177243E+03  0.64272433775E+03  0.00000000000E+00 0. -1.
        -12    1    4    4    0    0 -0.48901077875E+02 -0.88998804060E+02 -0.63797084770E+03  0.64600224849E+03  0.00000000000E+00 0.  1.
</event>
<event>
12    1  0.8313893E-002  0.2327951E+03  0.7818608E-02  0.1124797E+00
         21   -1    0    0  503  502  0.00000000000E+00  0.00000000000E+00  0.55978844846E+02  0.55978844846E+02  0.00000000000E+00 0.  1.
         21   -1    0    0  501  503 -0.00000000000E+00 -0.00000000000E+00 -0.11759372928E+04  0.11759372928E+04  0.00000000000E+00 0.  1.
          6    2    1    2  501    0  0.34192460366E+02 -0.15275575652E+03 -0.81993054278E+03  0.85216580012E+03  0.17145556399E+03 0.  0.
         24    2    3    3    0    0  0.17707257115E+02 -0.51858382729E+02 -0.62497248977E+03  0.63197775686E+03  0.76173705297E+02 0.  0.
         -6    2    1    2    0  502 -0.34192460366E+02  0.15275575652E+03 -0.30002790515E+03  0.37975033750E+03  0.17230823969E+03 0.  0.
        -24    2    5    5    0    0 -0.65462917575E+02  0.12080176382E+03 -0.29392913302E+03  0.33438312285E+03  0.80865801722E+02 0.  0.
          5    1    3    3  501    0  0.16485203252E+02 -0.10089737379E+03 -0.19495805301E+03  0.22018804327E+03  0.47000000000E+01 0. -1.
        -11    1    4    4    0    0 -0.17018118805E+02 -0.43420346374E+02 -0.19402413384E+03  0.19955026274E+03  0.00000000000E+00 0.  1.
         12    1    4    4    0    0  0.34725375919E+02 -0.84380363555E+01 -0.43094835593E+03  0.43242749412E+03  0.00000000000E+00 0. -1.
         -5    1    5    5    0  502  0.31270457209E+02  0.31953992703E+02 -0.60987721325E+01  0.45367214652E+02  0.47000000000E+01 0.  1.
         13    1    6    6    0    0  0.72507585696E+01  0.97598993832E+01 -0.91593764246E+02  0.92397222819E+02  0.00000000000E+00 0. -1.
        -14    1    6    6    0    0 -0.72713676144E+02  0.11104186444E+03 -0.20233536877E+03  0.24198590003E+03  0.00000000000E+00 0.  1.
</event>
<event>
12    1  0.8313893E-002  0.1940159E+03  0.7818608E-02  0.1155080E+00
         21   -1    0    0  503  502  0.00000000000E+00  0.00000000000E+00  0.54027967802E+02  0.54027967802E+02  0.00000000000E+00 0. -1.
         21   -1    0    0  501  503 -0.00000000000E+00 -0.00000000000E+00 -0.16614309671E+04  0.16614309671E+04  0.00000000000E+00 0. -1.
          6    2    1    2  501    0 -0.90116084621E+02 -0.11666745513E+02 -0.14575982205E+04  0.14703392772E+04  0.17043472590E+03 0.  0.
         24    2    3    3    0    0 -0.11100537412E+03  0.25342061491E+02 -0.85405420048E+03  0.86528267786E+03  0.79631162763E+02 0.  0.
         -6    2    1    2    0  502  0.90116084621E+02  0.11666745513E+02 -0.14980477875E+03  0.24511965773E+03  0.17142098241E+03 0.  0.
        -24    2    5    5    0    0  0.59479893698E+02 -0.16903858318E+02 -0.17137414614E+03  0.19776796074E+03  0.76938092988E+02 0.  0.
          5    1    3    3  501    0  0.20889289501E+02 -0.37008807004E+02 -0.60354402006E+03  0.60505659931E+03  0.47000000000E+01 0. -1.
        -13    1    4    4    0    0 -0.46940570788E+02  0.49766906303E+02 -0.35397805895E+03  0.36052826293E+03  0.00000000000E+00 0.  1.
         14    1    4    4    0    0 -0.64064803333E+02 -0.24424844812E+02 -0.50007614152E+03  0.50475441493E+03  0.00000000000E+00 0. -1.
         -5    1    5    5    0  502  0.30636190923E+02  0.28570603831E+02  0.21569367389E+02  0.47351696982E+02  0.47000000000E+01 0.  1.
         13    1    6    6    0    0  0.18513647077E+02 -0.93526714286E+01  0.66984258784E+00  0.20752741507E+02  0.00000000000E+00 0. -1.
        -14    1    6    6    0    0  0.40966246621E+02 -0.75511868893E+01 -0.17204398872E+03  0.17701521924E+03  0.00000000000E+00 0.  1.
</event>
<event>
12    1  0.8313893E-002  0.2240500E+03  0.7818608E-02  0.1130918E+00
         21   -1    0    0  501  502  0.00000000000E+00  0.00000000000E+00  0.34859336549E+03  0.34859336549E+03  0.00000000000E+00 0. -1.
         21   -1    0    0  502  503 -0.00000000000E+00 -0.00000000000E+00 -0.14471835554E+03  0.14471835554E+03  0.00000000000E+00 0. -1.
         -6    2    1    2    0  503 -0.13536000125E+03 -0.47807802770E+02  0.12003298145E+03  0.25408825161E+03  0.17188661095E+03 0.  0.
        -24    2    3    3    0    0 -0.33665507862E+02 -0.44721076132E+02  0.11639778468E+03  0.15217356904E+03  0.80467445382E+02 0.  0.
          6    2    1    2  501    0  0.13536000125E+03  0.47807802770E+02  0.83842028495E+02  0.23922346941E+03  0.17201879732E+03 0.  0.
         24    2    5    5    0    0  0.52388234281E+02 -0.16355382836E+02 -0.12422644734E+02  0.96779775928E+02  0.78739934517E+02 0.  0.
          5    1    5    5  501    0  0.82971766974E+02  0.64163185606E+02  0.96264673229E+02  0.14244369349E+03  0.47000000000E+01 0. -1.
        -13    1    6    6    0    0  0.64675496677E+02 -0.15464959060E+00  0.11170999355E+02  0.65633337668E+02  0.00000000000E+00 0.  1.
         14    1    6    6    0    0 -0.12287262396E+02 -0.16200733245E+02 -0.23593644089E+02  0.31146438260E+02  0.00000000000E+00 0. -1.
         -5    1    3    3    0  503 -0.10169449339E+03 -0.30867266378E+01  0.36351967709E+01  0.10191468257E+03  0.47000000000E+01 0.  1.
         13    1    4    4    0    0 -0.56216732311E+02 -0.44561395732E+02  0.68294800081E+02  0.99046548145E+02  0.00000000000E+00 0. -1.
        -14    1    4    4    0    0  0.22551224449E+02 -0.15968039967E+00  0.48102984600E+02  0.53127020897E+02  0.00000000000E+00 0.  1.
</event>
<event>
12    1  0.8313893E-002  0.1945876E+03  0.7818608E-02  0.1154901E+00
         21   -1    0    0  501  502  0.00000000000E+00  0.00000000000E+00  0.54817014693E+03  0.54817014693E+03  0.00000000000E+00 0. -1.
         21   -1    0    0  502  503 -0.00000000000E+00 -0.00000000000E+00 -0.69993456125E+02  0.69993456125E+02  0.00000000000E+00 0. -1.
         -6    2    1    2    0  503 -0.52037765263E+02 -0.75440606532E+02  0.19168969035E+03  0.27314697854E+03  0.17165407182E+03 0.  0.
        -24    2    3    3    0    0 -0.75558889366E+02  0.33291094771E+01  0.13723344742E+03  0.17442776140E+03  0.76627645944E+02 0.  0.
          6    2    1    2  501    0  0.52037765263E+02  0.75440606532E+02  0.28648700045E+03  0.34501662451E+03  0.16900430655E+03 0.  0.
         24    2    5    5    0    0  0.19580673778E+02  0.81705972436E+02  0.28937384788E+03  0.31150332140E+03  0.78979913193E+02 0.  0.
          5    1    5    5  501    0  0.32457091484E+02 -0.62653659034E+01 -0.28868474267E+01  0.33513303114E+02  0.47000000000E+01 0. -1.
        -11    1    6    6    0    0 -0.78232582021E+01  0.18894826878E+02  0.18818456065E+03  0.18929248987E+03  0.00000000000E+00 0.  1.
         12    1    6    6    0    0  0.27403931980E+02  0.62811145557E+02  0.10118928723E+03  0.12221083153E+03  0.00000000000E+00 0. -1.
         -5    1    3    3    0  503  0.23521124103E+02 -0.78769716009E+02  0.54456242924E+02  0.98719217140E+02  0.47000000000E+01 0.  1.
         11    1    4    4    0    0 -0.46387878741E+02 -0.33372331014E+02  0.97316838215E+02  0.11285439633E+03  0.00000000000E+00 0. -1.
        -12    1    4    4    0    0 -0.29171010625E+02  0.36701440491E+02  0.39916609210E+02  0.61573365068E+02  0.00000000000E+00 0.  1.
</event>
<event>
12    1  0.8313893E-002  0.1996545E+03  0.7818608E-02  0.1152529E+00
         21   -1    0    0  501  502  0.00000000000E+00  0.00000000000E+00  0.10167073714E+03  0.10167073714E+03  0.00000000000E+00 0.  1.
         21   -1    0    0  502  503 -0.00000000000E+00 -0.00000000000E+00 -0.39166476116E+03  0.39166476116E+03  0.00000000000E+00 0.  1.
         -6    2    1    2    0  503  0.37959795017E+02  0.90022098563E+02 -0.82845928286E+02  0.20563379404E+03  0.16086293903E+03 0.  0.
        -24    2    3    3    0    0  0.12883618071E+02 -0.13419888294E+01 -0.80770371370E+02  0.11075171433E+03  0.74661240187E+02 0.  0.
          6    2    1    2  501    0 -0.37959795017E+02 -0.90022098563E+02 -0.20714809573E+03  0.28770170426E+03  0.17411781298E+03 0.  0.
         24    2    5    5    0    0 -0.83991761650E+02 -0.98310045789E+02 -0.14687866330E+03  0.21126789952E+03  0.79632295611E+02 0.  0.
          5    1    5    5  501    0  0.46031966633E+02  0.82879472265E+01 -0.60269432429E+02  0.76433804737E+02  0.47000000000E+01 0. -1.
        -11    1    6    6    0    0 -0.15399635147E+02 -0.68366292968E+02 -0.10278368162E+03  0.12440090025E+03  0.00000000000E+00 0.  1.
         12    1    6    6    0    0 -0.68592126504E+02 -0.29943752821E+02 -0.44094981687E+02  0.86866999265E+02  0.00000000000E+00 0. -1.
         -5    1    3    3    0  503  0.25076176946E+02  0.91364087392E+02 -0.20755569163E+01  0.94882079719E+02  0.47000000000E+01 0.  1.
         13    1    4    4    0    0  0.50780681950E+01 -0.31414592255E+01  0.14220708752E+02  0.15423491825E+02  0.00000000000E+00 0. -1.
        -14    1    4    4    0    0  0.78055498758E+01  0.17994703961E+01 -0.94991080122E+02  0.95328222501E+02  0.00000000000E+00 0.  1.
</event>
<event>
12    1  0.8313893E-002  0.1829172E+03  0.7818608E-02  0.1165102E+00
         21   -1    0    0  503  502  0.00000000000E+00  0.00000000000E+00  0.19727863547E+03  0.19727863547E+03  0.00000000000E+00 0.  1.
         21   -1    0    0  501  503 -0.00000000000E+00 -0.00000000000E+00 -0.32038967017E+03  0.32038967017E+03  0.00000000000E+00 0.  1.
          6    2    1    2  501    0  0.51150568797E+02  0.34167725403E+02 -0.23930249275E+03  0.30096769263E+03  0.17184893024E+03 0.  0.
         24    2    3    3    0    0 -0.10116235514E+02 -0.37198948154E+02 -0.12405928718E+03  0.15213923489E+03  0.79180427453E+02 0.  0.
         -6    2    1    2    0  502 -0.51150568797E+02 -0.34167725403E+02  0.11619145805E+03  0.21670061302E+03  0.17226400265E+03 0.  0.
        -24    2    5    5    0    0 -0.65727704107E+02 -0.48085147665E+00  0.13721753113E+03  0.17413907993E+03  0.84707768266E+02 0.  0.
          5    1    3    3  501    0  0.61266804311E+02  0.71366673557E+02 -0.11524320557E+03  0.14882845774E+03  0.47000000000E+01 0. -1.
        -13    1    4    4    0    0  0.27763765115E+02 -0.10086253942E+02 -0.89180764810E+02  0.93945558618E+02  0.00000000000E+00 0.  1.
         14    1    4    4    0    0 -0.37880000628E+02 -0.27112694212E+02 -0.34878522372E+02  0.58193676271E+02  0.00000000000E+00 0. -1.
         -5    1    5    5    0  502  0.14577135310E+02 -0.33686873926E+02 -0.21026073085E+02  0.42561533081E+02  0.47000000000E+01 0.  1.
         13    1    6    6    0    0 -0.69860233593E+02 -0.91077984148E+01  0.49981801772E+02  0.86380465026E+02  0.00000000000E+00 0. -1.
        -14    1    6    6    0    0  0.41325294860E+01  0.86269469381E+01  0.87235729362E+02  0.87758614909E+02  0.00000000000E+00 0.  1.
</event>
<event>
12    1  0.8313893E-002  0.2273355E+03  0.7818608E-02  0.1132107E+00
         21   -1    0    0  501  502  0.00000000000E+00  0.00000000000E+00  0.11666700236E+04  0.11666700236E+04  0.00000000000E+00 0.  1.
         21   -1    0    0  502  503 -0.00000000000E+00 -0.00000000000E+00 -0.80630034490E+02  0.80630034490E+02  0.00000000000E+00 0. -1.
         -6    2    1    2    0  503 -0.11632714180E+03 -0.20054073294E+02  0.92080302536E+02  0.22767400299E+03  0.17152988005E+03 0.  0.
        -24    2    3    3    0    0 -0.14982160324E+03 -0.35683456279E+02  0.86314291651E+02  0.18997130493E+03  0.70136423512E+02 0.  0.
          6    2    1    2  501    0  0.11632714180E+03  0.20054073294E+02  0.99395968657E+03  0.10196260551E+04  0.19428655105E+03 0.  0.
         24    2    5    5    0    0  0.92915501714E+02  0.41530572036E+02  0.97227817351E+03  0.98087656608E+03  0.80224138089E+02 0.  0.
          5    1    5    5  501    0  0.23411640088E+02 -0.21476498742E+02  0.21681513057E+02  0.38749489006E+02  0.47000000000E+01 0. -1.
        -13    1    6    6    0    0 -0.45050868240E+00  0.18789951896E+02  0.41115718856E+03  0.41158656314E+03  0.00000000000E+00 0.  1.
         14    1    6    6    0    0  0.93366010397E+02  0.22740620141E+02  0.56112098495E+03  0.56929000295E+03  0.00000000000E+00 0. -1.
         -5    1    3    3    0  503  0.33494461442E+02  0.15629382984E+02  0.57660108844E+01  0.37702698064E+02  0.47000000000E+01 0.  1.
         13    1    4    4    0    0 -0.40267057778E+02 -0.42075567688E+02  0.19141103267E+02  0.61303924611E+02  0.00000000000E+00 0. -1.
        -14    1    4    4    0    0 -0.10955454547E+03  0.63921114097E+01  0.67173188385E+02  0.12866738032E+03  0.00000000000E+00 0.  1.
</event>
<event>
12    1  0.8313893E-002  0.2158689E+03  0.7818608E-02  0.1137123E+00
         21   -1    0    0  503  502  0.00000000000E+00  0.00000000000E+00  0.36943655269E+03  0.36943655269E+03  0.00000000000E+00 0.  1.
         21   -1    0    0  501  503 -0.00000000000E+00 -0.00000000000E+00 -0.29988922434E+03  0.29988922434E+03  0.00000000000E+00 0.  1.
          6    2    1    2  501    0 -0.87919147856E+02  0.96498495424E+02 -0.22025927577E+03  0.30795722232E+03  0.17111915743E+03 0.  0.
         24    2    3    3    0    0 -0.88930731819E+02  0.12822113241E+03 -0.21199823198E+03  0.27482591018E+03  0.78972759127E+02 0.  0.
         -6    2    1    2    0  502  0.87919147856E+02 -0.96498495424E+02  0.28980660412E+03  0.36136855471E+03  0.17192332118E+03 0.  0.
        -24    2    5    5    0    0  0.47300292055E+02 -0.50837547448E+02  0.28005823306E+03  0.29930460096E+03  0.79554109848E+02 0.  0.
          5    1    3    3  501    0  0.10115839631E+01 -0.31722636988E+02 -0.82610437860E+01  0.33131312139E+02  0.47000000000E+01 0. -1.
        -11    1    4    4    0    0 -0.81537702127E+02  0.10464451289E+03 -0.11771087535E+03  0.17735478883E+03  0.00000000000E+00 0.  1.
         12    1    4    4    0    0 -0.73930296921E+01  0.23576619520E+02 -0.94287356630E+02  0.97471121346E+02  0.00000000000E+00 0. -1.
         -5    1    5    5    0  502  0.40618855801E+02 -0.45660947975E+02  0.97483710589E+01  0.62063953748E+02  0.47000000000E+01 0.  1.
         13    1    6    6    0    0 -0.78752773810E+01 -0.36721715331E+02  0.51391197580E+02  0.63651862183E+02  0.00000000000E+00 0. -1.
        -14    1    6    6    0    0  0.55175569436E+02 -0.14115832117E+02  0.22866703548E+03  0.23565273878E+03  0.00000000000E+00 0.  1.
</event>
<event>
12    1  0.8313893E-002  0.1749851E+03  0.7818608E-02  0.1173080E+00
         21   -1    0    0  501  502  0.00000000000E+00  0.00000000000E+00  0.25432061662E+03  0.25432061662E+03  0.00000000000E+00 0. -1.
         21   -1    0    0  502  503 -0.00000000000E+00 -0.00000000000E+00 -0.14131186430E+03  0.14131186430E+03  0.00000000000E+00 0. -1.
         -6    2    1    2    0  503  0.23786409957E+02 -0.15506170614E+02 -0.21410852008E+02  0.17497797980E+03  0.17132610485E+03 0.  0.
        -24    2    3    3    0    0  0.43605643246E+01 -0.70737161921E+02 -0.42448674974E+02  0.11258802969E+03  0.76494534606E+02 0.  0.
          6    2    1    2  501    0 -0.23786409957E+02  0.15506170614E+02  0.13441960433E+03  0.22065450112E+03  0.17266599031E+03 0.  0.
         24    2    5    5    0    0 -0.34051452860E+02 -0.54213308570E+02  0.98555763304E+02  0.14144287333E+03  0.78703644569E+02 0.  0.
          5    1    5    5  501    0  0.10265042903E+02  0.69719479184E+02  0.35863841022E+02  0.79211627785E+02  0.47000000000E+01 0. -1.
        -11    1    6    6    0    0 -0.40610362035E+02 -0.68468384047E+01  0.12576857908E+02  0.43061096776E+02  0.00000000000E+00 0.  1.
         12    1    6    6    0    0  0.65589091745E+01 -0.47366470165E+02  0.85978905396E+02  0.98381776557E+02  0.00000000000E+00 0. -1.
         -5    1    3    3    0  503  0.19425845633E+02  0.55230991307E+02  0.21037822966E+02  0.62389950108E+02  0.47000000000E+01 0.  1.
         11    1    4    4    0    0  0.22474800998E+02 -0.47135018256E+01 -0.37465900050E+02  0.43943457373E+02  0.00000000000E+00 0. -1.
        -12    1    4    4    0    0 -0.18114236673E+02 -0.66023660096E+02 -0.49827749241E+01  0.68644572317E+02  0.00000000000E+00 0.  1.
</event>
<event>
12    1  0.8313893E-002  0.1776169E+03  0.7818608E-02  0.1170676E+00
         21   -1    0    0  501  502  0.00000000000E+00  0.00000000000E+00  0.34599733772E+02  0.34599733772E+02  0.00000000000E+00 0.  1.
         21   -1    0    0  502  503 -0.00000000000E+00 -0.00000000000E+00 -0.91091410200E+03  0.91091410200E+03  0.00000000000E+00 0.  1.
         -6    2    1    2    0  503  0.37929326783E+02  0.14878879310E+02 -0.48597735455E+03  0.51666565215E+03  0.17061474761E+03 0.  0.
        -24    2    3    3    0    0  0.13538587433E+01 -0.57324050705E+02 -0.28761846809E+03  0.30237760816E+03  0.73620343671E+02 0.  0.
          6    2    1    2  501    0 -0.37929326783E+02 -0.14878879310E+02 -0.39033701369E+03  0.42884818363E+03  0.17288078397E+03 0.  0.
         24    2    5    5    0    0 -0.80342493222E+02 -0.47833710518E+02 -0.27741686168E+03  0.30371645976E+03  0.80873930954E+02 0.  0.
          5    1    5    5  501    0  0.42413166439E+02  0.32954831209E+02 -0.11292015201E+03  0.12513172386E+03  0.47000000000E+01 0. -1.
        -11    1    6    6    0    0 -0.64243460928E+02 -0.35266306085E+02 -0.94130839513E+02  0.11929605846E+03  0.00000000000E+00 0.  1.
         12    1    6    6    0    0 -0.16099032294E+02 -0.12567404433E+02 -0.18328602217E+03  0.18442040130E+03  0.00000000000E+00 0. -1.
         -5    1    3    3    0  503  0.36575468040E+02  0.72202930014E+02 -0.19835888645E+03  0.21428804399E+03  0.47000000000E+01 0.  1.
         13    1    4    4    0    0 -0.33903129276E+02 -0.38588504071E+02 -0.12997884762E+03  0.13976049388E+03  0.00000000000E+00 0. -1.
        -14    1    4    4    0    0  0.35256988019E+02 -0.18735546634E+02 -0.15763962047E+03  0.16261711427E+03  0.00000000000E+00 0.  1.
</event>
<event>
12    1  0.8313893E-002  0.1807832E+03  0.7818608E-02  0.1167190E+00
         21   -1    0    0  501  502  0.00000000000E+00  0.00000000000E+00  0.76829458466E+03  0.76829458466E+03  0.00000000000E+00 0. -1.
         21   -1    0    0  502  503 -0.00000000000E+00 -0.00000000000E+00 -0.67495649344E+02  0.67495649344E+02  0.00000000000E+00 0.  1.
         -6    2    1    2    0  503 -0.36325562048E+02  0.40292779107E+02  0.95218977252E+02  0.20380159434E+03  0.17182951353E+03 0.  0.
        -24    2    3    3    0    0 -0.58769427774E+02 -0.10382163413E+02  0.10748321256E+03  0.14684390499E+03  0.80304772539E+02 0.  0.
          6    2    1    2  501    0  0.36325562048E+02 -0.40292779107E+02  0.60557995806E+03  0.63198863967E+03  0.17245144405E+03 0.  0.
         24    2    5    5    0    0 -0.66682333973E+01 -0.11674063544E+02  0.13044603921E+03  0.15403275449E+03  0.80803287157E+02 0.  0.
          5    1    5    5  501    0  0.42993795445E+02 -0.28618715563E+02  0.47513391885E+03  0.47795588517E+03  0.47000000000E+01 0. -1.
        -11    1    6    6    0    0  0.33034842418E+02 -0.17450817048E+02  0.38168069231E+02  0.53410049036E+02  0.00000000000E+00 0.  1.
         12    1    6    6    0    0 -0.39703075816E+02  0.57767535037E+01  0.92277969979E+02  0.10062270546E+03  0.00000000000E+00 0. -1.
         -5    1    3    3    0  503  0.22443865726E+02  0.50674942520E+02 -0.12264235306E+02  0.56957689347E+02  0.47000000000E+01 0.  1.
         11    1    4    4    0    0  0.20097148096E+02 -0.62426156035E+01  0.21099463197E+02  0.29800217421E+02  0.00000000000E+00 0. -1.
        -12    1    4    4    0    0 -0.78866575870E+02 -0.41395478096E+01  0.86383749362E+02  0.11704368757E+03  0.00000000000E+00 0.  1.
</event>
<event>
12    1  0.8313893E-002  0.1970642E+03  0.7818608E-02  0.1153535E+00
         21   -1    0    0  503  502  0.00000000000E+00  0.00000000000E+00  0.80730555007E+03  0.80730555007E+03  0.00000000000E+00 0. -1.
         21   -1    0    0  501  503 -0.00000000000E+00 -0.00000000000E+00 -0.70655565188E+02  0.70655565188E+02  0.00000000000E+00 0. -1.
          6    2    1    2  501    0 -0.95640980426E+02 -0.15297903019E+02  0.10884786975E+03  0.21995670421E+03  0.16477824493E+03 0.  0.
         24    2    3    3    0    0 -0.33685317536E+02 -0.46127966085E+02  0.11452943963E+03  0.15036239992E+03  0.78926351086E+02 0.  0.
         -6    2    1    2    0  502  0.95640980426E+02  0.15297903019E+02  0.62780211512E+03  0.65800441104E+03  0.17161901475E+03 0.  0.
        -24    2    5    5    0    0  0.86124665326E+01 -0.38368973306E+02  0.31414962884E+03  0.32807401233E+03  0.86001253316E+02 0.  0.
          5    1    3    3  501    0 -0.61955662890E+02  0.30830063066E+02 -0.56815698790E+01  0.69594304287E+02  0.47000000000E+01 0. -1.
        -11    1    4    4    0    0  0.13624494196E+02 -0.22231168768E+02  0.22126903833E+01  0.26167684376E+02  0.00000000000E+00 0.  1.
         12    1    4    4    0    0 -0.47309811732E+02 -0.23896797317E+02  0.11231674925E+03  0.12419471555E+03  0.00000000000E+00 0. -1.
         -5    1    5    5    0  502  0.87028513894E+02  0.53666876325E+02  0.31365248628E+03  0.32993039871E+03  0.47000000000E+01 0.  1.
         13    1    6    6    0    0 -0.20709253163E+02 -0.86982685057E+01  0.25332781906E+03  0.25432168006E+03  0.00000000000E+00 0. -1.
        -14    1    6    6    0    0  0.29321719695E+02 -0.29670704800E+02  0.60821809784E+02  0.73752332266E+02  0.00000000000E+00 0.  1.
</event>
<event>
12    1  0.8313893E-002  0.2346171E+03  0.7818608E-02  0.1123484E+00
         21   -1    0    0  503  502  0.00000000000E+00  0.00000000000E+00  0.75657305679E+03  0.75657305679E+03  0.00000000000E+00 0. -1.
         21   -1    0    0  501  503 -0.00000000000E+00 -0.00000000000E+00 -0.80683110437E+02  0.80683110437E+02  0.00000000000E+00 0.  1.
          6    2    1    2  501    0  0.11107050128E+03  0.11572814986E+03  0.20573893647E+03  0.31181618356E+03  0.17079567157E+03 0.  0.
         24    2    3    3    0    0  0.80700012241E+02  0.11669041935E+03  0.81794426495E+02  0.18411487535E+03  0.84135683115E+02 0.  0.
         -6    2    1    2    0  502 -0.11107050128E+03 -0.11572814986E+03  0.47015100988E+03  0.52543998366E+03  0.17121782447E+03 0.  0.
        -24    2    5    5    0    0 -0.13970426107E+03 -0.79127081036E+02  0.42110304729E+03  0.45771020385E+03  0.79952978429E+02 0.  0.
          5    1    3    3  501    0  0.30370489034E+02 -0.96226949041E+00  0.12394450998E+03  0.12770130822E+03  0.47000000000E+01 0. -1.
        -11    1    4    4    0    0  0.11364829896E+02  0.83122055283E+02  0.62737502181E+02  0.10475891186E+03  0.00000000000E+00 0.  1.
         12    1    4    4    0    0  0.69335182345E+02  0.33568364070E+02  0.19056924314E+02  0.79355963490E+02  0.00000000000E+00 0. -1.
         -5    1    5    5    0  502  0.28633759792E+02 -0.36601068827E+02  0.49047962591E+02  0.67729779812E+02  0.47000000000E+01 0.  1.
         13    1    6    6    0    0 -0.99416474004E+02 -0.93087976274E+02  0.30506072713E+03  0.33408240580E+03  0.00000000000E+00 0. -1.
        -14    1    6    6    0    0 -0.40287787063E+02  0.13960895238E+02  0.11604232016E+03  0.12362779805E+03  0.00000000000E+00 0.  1.
</event>
<event>
12    1  0.8313893E-002  0.1795333E+03  0.7818608E-02  0.1168524E+00
         21   -1    0    0  501  502  0.00000000000E+00  0.00000000000E+00  0.76420695062E+02  0.76420695062E+02  0.00000000000E+00 0.  1.
         21   -1    0    0  502  503 -0.00000000000E+00 -0.00000000000E+00 -0.97503632438E+03  0.97503632438E+03  0.00000000000E+00 0.  1.
         -6    2    1    2    0  503  0.35880863406E+02  0.31768350372E+02 -0.84684829693E+03  0.86566981822E+03  0.17301887674E+03 0.  0.
        -24    2    3    3    0    0  0.56000063079E+02  0.80925260132E+02 -0.59797053833E+03  0.61114395961E+03  0.79014364921E+02 0.  0.
          6    2    1    2  501    0 -0.35880863406E+02 -0.31768350372E+02 -0.51767332384E+02  0.18578720122E+03  0.17187310142E+03 0.  0.
         24    2    5    5    0    0 -0.49778489036E+02  0.36511854176E+02 -0.57135064135E+02  0.11574269483E+03  0.79504354521E+02 0.  0.
          5    1    5    5  501    0  0.13897625630E+02 -0.68280204548E+02  0.53677317513E+01  0.70044506390E+02  0.47000000000E+01 0. -1.
        -11    1    6    6    0    0 -0.36868562660E+02  0.23492629431E+02  0.11085876393E+02  0.45100900275E+02  0.00000000000E+00 0.  1.
         12    1    6    6    0    0 -0.12909926376E+02  0.13019224745E+02 -0.68220940529E+02  0.70641794560E+02  0.00000000000E+00 0. -1.
         -5    1    3    3    0  503 -0.20119199673E+02 -0.49156909760E+02 -0.24887775861E+03  0.25452585861E+03  0.47000000000E+01 0.  1.
         13    1    4    4    0    0  0.60833060929E+02  0.68287527619E+02 -0.58595367416E+03  0.59304768442E+03  0.00000000000E+00 0. -1.
        -14    1    4    4    0    0 -0.48329978493E+01  0.12637732513E+02 -0.12016864163E+02  0.18096275185E+02  0.00000000000E+00 0.  1.
</event>
<event>
12    1  0.8313893E-002  0.1791620E+03  0.7818608E-02  0.1169059E+00
         21   -1    0    0  503  502  0.00000000000E+00  0.00000000000E+00  0.32551272892E+03  0.32551272892E+03  0.00000000000E+00 0. -1.
         21   -1    0    0  501  503 -0.00000000000E+00 -0.00000000000E+00 -0.16943282154E+03  0.16943282154E+03  0.00000000000E+00 0. -1.
          6    2    1    2  501    0  0.49714672623E+02  0.21268592795E+01 -0.83302763823E+02  0.19594205494E+03  0.17022886427E+03 0.  0.
         24    2    3    3    0    0 -0.36154842656E+02  0.15236284743E+02 -0.16022063157E+02  0.85968360943E+02  0.74796627967E+02 0.  0.
         -6    2    1    2    0  502 -0.49714672623E+02 -0.21268592795E+01  0.23938267120E+03  0.29900349552E+03  0.17211320361E+03 0.  0.
        -24    2    5    5    0    0 -0.48641633314E+02  0.23603489614E+02  0.25323444845E+03  0.26938654091E+03  0.74285189173E+02 0.  0.
          5    1    3    3  501    0  0.85869515279E+02 -0.13109425464E+02 -0.67280700666E+02  0.10997369400E+03  0.47000000000E+01 0. -1.
        -11    1    4    4    0    0 -0.70022991788E+01  0.36310174680E+02  0.13568180564E+02  0.39389802016E+02  0.00000000000E+00 0.  1.
         12    1    4    4    0    0 -0.29152543477E+02 -0.21073889936E+02 -0.29590243721E+02  0.46578558927E+02  0.00000000000E+00 0. -1.
         -5    1    5    5    0  502 -0.10730393090E+01 -0.25730348893E+02 -0.13851777243E+02  0.29616954609E+02  0.47000000000E+01 0.  1.
         13    1    6    6    0    0 -0.45565404320E+02 -0.13606409436E+02  0.88425443266E+02  0.10040119255E+03  0.00000000000E+00 0. -1.
        -14    1    6    6    0    0 -0.30762289944E+01  0.37209899050E+02  0.16480900518E+03  0.16898534836E+03  0.00000000000E+00 0.  1.
</event>
<event>
12    1  0.8313893E-002  0.1995443E+03  0.7818608E-02  0.1150283E+00
         21   -1    0    0  501  502  0.00000000000E+00  0.00000000000E+00  0.31071823469E+04  0.31071823469E+04  0.00000000000E+00 0. -1.
         21   -1    0    0  502  503 -0.00000000000E+00 -0.00000000000E+00 -0.37504750788E+02  0.37504750788E+02  0.00000000000E+00 0. -1.
         -6    2    1    2    0  503  0.58068895237E+02 -0.56724860438E+02  0.25686500345E+03  0.32480542863E+03  0.18146412893E+03 0.  0.
        -24    2    3    3    0    0 -0.28756952207E+02 -0.23262277603E+00  0.61788329864E+02  0.10388214042E+03  0.78400797040E+02 0.  0.
          6    2    1    2  501    0 -0.58068895237E+02  0.56724860438E+02  0.28128125927E+04  0.28198816691E+04  0.18228614768E+03 0.  0.
         24    2    5    5    0    0 -0.47535115808E+02  0.10989940952E+03  0.21759930148E+04  0.21807418112E+04  0.79698049550E+02 0.  0.
          5    1    5    5  501    0 -0.10533779429E+02 -0.53174549081E+02  0.63681957792E+03  0.63913985794E+03  0.47000000000E+01 0. -1.
        -13    1    6    6    0    0 -0.21595881945E+02  0.80761175947E+02  0.83345967396E+03  0.83764179562E+03  0.00000000000E+00 0.  1.
         14    1    6    6    0    0 -0.25939233864E+02  0.29138233572E+02  0.13425333408E+04  0.13431000155E+04  0.00000000000E+00 0. -1.
         -5    1    3    3    0  503  0.86825847444E+02 -0.56492237662E+02  0.19507667358E+03  0.22092328822E+03  0.47000000000E+01 0.  1.
         13    1    4    4    0    0 -0.10591196326E+02 -0.65713111627E+01 -0.17951319441E+02  0.21854185862E+02  0.00000000000E+00 0. -1.
        -14    1    4    4    0    0 -0.18165755881E+02  0.63386883866E+01  0.79739649305E+02  0.82027954555E+02  0.00000000000E+00 0.  1.
</event>
<event>
12    1  0.8313893E-002  0.1982306E+03  0.7818608E-02  0.1151269E+00
         21   -1    0    0  503  502  0.00000000000E+00  0.00000000000E+00  0.11789143509E+03  0.11789143509E+03  0.00000000000E+00 0.  1.
         21   -1    0    0  501  503 -0.00000000000E+00 -0.00000000000E+00 -0.33316647355E+03  0.33316647355E+03  0.00000000000E+00 0.  1.
          6    2    1    2  501    0  0.81471212328E+02  0.53287576924E+02 -0.11108470064E+03  0.22723372908E+03  0.17267956632E+03 0.  0.
         24    2    3    3    0    0 -0.96763660855E+01  0.45859937523E+02 -0.16848273633E+02  0.95834927519E+02  0.81876144743E+02 0.  0.
         -6    2    1    2    0  502 -0.81471212328E+02 -0.53287576924E+02 -0.10419033782E+03  0.22382417956E+03  0.17252394781E+03 0.  0.
        -24    2    5    5    0    0  0.21798635459E+02 -0.27743733182E+01 -0.51141023263E+02  0.97125462218E+02  0.79593174930E+02 0.  0.
          5    1    3    3  501    0  0.91147578414E+02  0.74276394008E+01 -0.94236427003E+02  0.13139880156E+03  0.47000000000E+01 0. -1.
        -11    1    4    4    0    0  0.20904580592E+01  0.59757413124E+02 -0.35686970732E+02  0.69633887714E+02  0.00000000000E+00 0.  1.
         12    1    4    4    0    0 -0.11766824145E+02 -0.13897475601E+02  0.18838697099E+02  0.26201039806E+02  0.00000000000E+00 0. -1.
         -5    1    5    5    0  502 -0.10326984779E+03 -0.50513203606E+02 -0.53049314555E+02  0.12669871734E+03  0.47000000000E+01 0.  1.
         13    1    6    6    0    0  0.24982362688E+02 -0.38798245361E+02 -0.24822353892E+02  0.52398201699E+02  0.00000000000E+00 0. -1.
        -14    1    6    6    0    0 -0.31837272292E+01  0.36023872043E+02 -0.26318669372E+02  0.44727260519E+02  0.00000000000E+00 0.  1.
</event>
<event>
12    1  0.8313893E-002  0.2805223E+03  0.7818608E-02  0.1095661E+00
         21   -1    0    0  501  502  0.00000000000E+00  0.00000000000E+00  0.59262994446E+03  0.59262994446E+03  0.00000000000E+00 0.  1.
         21   -1    0    0  502  503 -0.00000000000E+00 -0.00000000000E+00 -0.26655051052E+03  0.26655051052E+03  0.00000000000E+00 0. -1.
         -6    2    1    2    0  503  0.99598469806E+02 -0.19572627680E+03 -0.14201926295E+03  0.31442361849E+03  0.17453970953E+03 0.  0.
        -24    2    3    3    0    0  0.12283465855E+03 -0.11815603844E+03 -0.13732709127E+03  0.23317604117E+03  0.80393615524E+02 0.  0.
          6    2    1    2  501    0 -0.99598469806E+02  0.19572627680E+03  0.46809869688E+03  0.54475683649E+03  0.17150798892E+03 0.  0.
         24    2    5    5    0    0 -0.88042835069E+02  0.64062316818E+02  0.31370284888E+03  0.34146124153E+03  0.79566204044E+02 0.  0.
          5    1    5    5  501    0 -0.11555634737E+02  0.13166395998E+03  0.15439584800E+03  0.20329559496E+03  0.47000000000E+01 0. -1.
        -11    1    6    6    0    0 -0.12636855945E+02  0.41641306429E+02  0.18956241249E+03  0.19449317921E+03  0.00000000000E+00 0.  1.
         12    1    6    6    0    0 -0.75405979124E+02  0.22421010389E+02  0.12414043639E+03  0.14696806232E+03  0.00000000000E+00 0. -1.
         -5    1    3    3    0  503 -0.23236188749E+02 -0.77570238353E+02 -0.46921716805E+01  0.81247577323E+02  0.47000000000E+01 0.  1.
         13    1    4    4    0    0  0.65090847578E+02 -0.87213228993E+02 -0.12634275463E+03  0.16674968485E+03  0.00000000000E+00 0. -1.
        -14    1    4    4    0    0  0.57743810977E+02 -0.30942809450E+02 -0.10984336637E+02  0.66426356321E+02  0.00000000000E+00 0.  1.
</event>
<event>
12    1  0.8313893E-002  0.1907638E+03  0.7818608E-02  0.1158179E+00
         21   -1    0    0  501  502  0.00000000000E+00  0.00000000000E+00  0.72624375474E+02  0.72624375474E+02  0.00000000000E+00 0.  1.
         21   -1    0    0  502  503 -0.00000000000E+00 -0.00000000000E+00 -0.77504899148E+03  0.77504899148E+03  0.00000000000E+00 0.  1.
         -6    2    1    2    0  503 -0.40099695094E+02 -0.71794799286E+02 -0.60641658812E+03  0.63571370833E+03  0.17212891056E+03 0.  0.
        -24    2    3    3    0    0  0.41163963374E+02 -0.15890499899E+02 -0.28262719156E+03  0.29720117354E+03  0.80643835965E+02 0.  0.
          6    2    1    2  501    0  0.40099695094E+02  0.71794799286E+02 -0.96008027881E+02  0.21195965863E+03  0.17013781683E+03 0.  0.
         24    2    5    5    0    0  0.49136302712E+02 -0.11670903276E+02 -0.36475714248E+02  0.10893359325E+03  0.89361422213E+02 0.  0.
          5    1    5    5  501    0 -0.90366076175E+01  0.83465702562E+02 -0.59532313632E+02  0.10302606538E+03  0.47000000000E+01 0. -1.
        -13    1    6    6    0    0  0.56694415232E+02  0.18101523635E+02  0.21869356098E+01  0.59554215332E+02  0.00000000000E+00 0.  1.
         14    1    6    6    0    0 -0.75581125207E+01 -0.29772426911E+02 -0.38662649858E+02  0.49379377913E+02  0.00000000000E+00 0. -1.
         -5    1    3    3    0  503 -0.81263658468E+02 -0.55904299387E+02 -0.32378939656E+03  0.33851253478E+03  0.47000000000E+01 0.  1.
         13    1    4    4    0    0 -0.17282606427E+02  0.15781402348E+02 -0.49031838952E+02  0.54331044311E+02  0.00000000000E+00 0. -1.
        -14    1    4    4    0    0  0.58446569801E+02 -0.31671902247E+02 -0.23359535261E+03  0.24287012923E+03  0.00000000000E+00 0.  1.
</event>
<event>
12    1  0.8313893E-002  0.1826121E+03  0.7818608E-02  0.1165893E+00
         21   -1    0    0  503  502  0.00000000000E+00  0.00000000000E+00  0.62094784994E+03  0.62094784994E+03  0.00000000000E+00 0. -1.
         21   -1    0    0  501  503 -0.00000000000E+00 -0.00000000000E+00 -0.24200556305E+03  0.24200556305E+03  0.00000000000E+00 0. -1.
          6    2    1    2  501    0  0.64665910057E+02 -0.91530634450E+01 -0.19158047882E+03  0.26467012572E+03  0.17053368316E+03 0.  0.
         24    2    3    3    0    0 -0.19576745512E+02 -0.29625686854E+01 -0.40108548596E+02  0.91173777378E+02  0.79447694950E+02 0.  0.
         -6    2    1    2    0  502 -0.64665910057E+02  0.91530634450E+01  0.57052276571E+03  0.59828328727E+03  0.16787259197E+03 0.  0.
        -24    2    5    5    0    0 -0.77208241921E+02  0.60535313283E+02  0.40219942648E+03  0.42178319601E+03  0.80691071343E+02 0.  0.
          5    1    3    3  501    0  0.84242655569E+02 -0.61904947597E+01 -0.15147193022E+03  0.17349634834E+03  0.47000000000E+01 0. -1.
        -13    1    4    4    0    0  0.87988710593E+01  0.22643681478E+02  0.11561221725E+02  0.26903871293E+02  0.00000000000E+00 0.  1.
         14    1    4    4    0    0 -0.28375616571E+02 -0.25606250163E+02 -0.51669770321E+02  0.64269906085E+02  0.00000000000E+00 0. -1.
         -5    1    5    5    0  502  0.12542331864E+02 -0.51382249838E+02  0.16832333923E+03  0.17650009126E+03  0.47000000000E+01 0.  1.
         11    1    6    6    0    0 -0.90258543386E+02  0.35811062556E+02  0.33990145603E+03  0.35349969826E+03  0.00000000000E+00 0. -1.
        -12    1    6    6    0    0  0.13050301465E+02  0.24724250727E+02  0.62297970448E+02  0.68283497745E+02  0.00000000000E+00 0.  1.
</event>
<event>
12    1  0.8313893E-002  0.1846265E+03  0.7818608E-02  0.1163931E+00
         21   -1    0    0  503  502  0.00000000000E+00  0.00000000000E+00  0.67374135368E+02  0.67374135368E+02  0.00000000000E+00 0. -1.
         21   -1    0    0  501  503 -0.00000000000E+00 -0.00000000000E+00 -0.76020267077E+03  0.76020267077E+03  0.00000000000E+00 0. -1.
          6    2    1    2  501    0 -0.28174070489E+01 -0.66180859470E+02 -0.59000431625E+03  0.61821682938E+03  0.17233430011E+03 0.  0.
         24    2    3    3    0    0 -0.40453622881E+02  0.13577473086E+02 -0.30637043257E+03  0.32115093379E+03  0.86337922954E+02 0.  0.
         -6    2    1    2    0  502  0.28174070489E+01  0.66180859470E+02 -0.10282421915E+03  0.20935997675E+03  0.16991449579E+03 0.  0.
        -24    2    5    5    0    0 -0.32920148435E+01  0.37498176202E+02 -0.13752346222E+03  0.16368559854E+03  0.80394787949E+02 0.  0.
          5    1    3    3  501    0  0.37636215832E+02 -0.79758332556E+02 -0.28363388367E+03  0.29706589559E+03  0.47000000000E+01 0. -1.
        -13    1    4    4    0    0 -0.14348039146E+02 -0.36576334822E+02 -0.14157097628E+03  0.14692186978E+03  0.00000000000E+00 0.  1.
         14    1    4    4    0    0 -0.26105583735E+02  0.50153807907E+02 -0.16479945630E+03  0.17422906401E+03  0.00000000000E+00 0. -1.
         -5    1    5    5    0  502  0.61094218924E+01  0.28682683268E+02  0.34699243070E+02  0.45674378211E+02  0.47000000000E+01 0.  1.
         13    1    6    6    0    0  0.20355202789E+02 -0.18691466355E+02 -0.38265063705E+02  0.47200850579E+02  0.00000000000E+00 0. -1.
        -14    1    6    6    0    0 -0.23647217633E+02  0.56189642557E+02 -0.99258398516E+02  0.11648474797E+03  0.00000000000E+00 0.  1.
</event>
<event>
12    1  0.8313893E-002  0.2466639E+03  0.7818608E-02  0.1116824E+00
         21   -1    0    0  503  502  0.00000000000E+00  0.00000000000E+00  0.46471110433E+03  0.46471110433E+03  0.00000000000E+00 0. -1.
         21   -1    0    0  501  503 -0.00000000000E+00 -0.00000000000E+00 -0.20833875284E+03  0.20833875284E+03  0.00000000000E+00 0.  1.
          6    2    1    2  501    0 -0.15104433540E+03  0.89679344688E+02  0.33778089333E+03  0.41329915533E+03  0.16082127901E+03 0.  0.
         24    2    3    3    0    0 -0.58948373084E+02  0.62954796282E+02  0.27483462141E+03  0.29849414277E+03  0.78271751454E+02 0.  0.
         -6    2    1    2    0  502  0.15104433540E+03 -0.89679344688E+02 -0.81408541842E+02  0.25975070184E+03  0.17316552862E+03 0.  0.
        -24    2    5    5    0    0  0.47651445963E+02 -0.58904096501E+02  0.19189232774E+02  0.11217289950E+03  0.80462288311E+02 0.  0.
          5    1    3    3  501    0 -0.92095962314E+02  0.26724548406E+02  0.62946271919E+02  0.11480501257E+03  0.47000000000E+01 0. -1.
        -13    1    4    4    0    0 -0.64368120777E+01  0.57154862467E+02  0.94948480641E+02  0.11101047171E+03  0.00000000000E+00 0.  1.
         14    1    4    4    0    0 -0.52511561006E+02  0.57999338149E+01  0.17988614077E+03  0.18748367105E+03  0.00000000000E+00 0. -1.
         -5    1    5    5    0  502  0.10339288944E+03 -0.30775248187E+02 -0.10059777462E+03  0.14757780234E+03  0.47000000000E+01 0.  1.
         13    1    6    6    0    0 -0.13367216239E+02 -0.90652339017E+01  0.28581515282E+02  0.32829315429E+02  0.00000000000E+00 0. -1.
        -14    1    6    6    0    0  0.61018662202E+02 -0.49838862600E+02 -0.93922825084E+01  0.79343584069E+02  0.00000000000E+00 0.  1.
</event>
<event>
12    1  0.8313893E-002  0.2184500E+03  0.7818608E-02  0.1135051E+00
         21   -1    0    0  501  502  0.00000000000E+00  0.00000000000E+00  0.30429089368E+03  0.30429089368E+03  0.00000000000E+00 0.  1.
         21   -1    0    0  502  503 -0.00000000000E+00 -0.00000000000E+00 -0.15732432419E+03  0.15732432419E+03  0.00000000000E+00 0.  1.
         -6    2    1    2    0  503  0.73066733656E+02  0.11262546487E+03  0.86839151160E+02  0.23504135837E+03  0.17227930539E+03 0.  0.
        -24    2    3    3    0    0 -0.14161493359E+02  0.87538980202E+02  0.20122052261E+02  0.12229670623E+03  0.81779987881E+02 0.  0.
          6    2    1    2  501    0 -0.73066733656E+02 -0.11262546487E+03  0.60127418326E+02  0.22657385950E+03  0.17232865249E+03 0.  0.
         24    2    5    5    0    0  0.17373284804E+02 -0.58478948758E+02  0.65958896712E+02  0.12089823181E+03  0.80896155206E+02 0.  0.
          5    1    5    5  501    0 -0.90440018460E+02 -0.54146516113E+02 -0.58314783853E+01  0.10567562768E+03  0.47000000000E+01 0. -1.
        -11    1    6    6    0    0 -0.23724108254E+02  0.58813797086E+01  0.10936112740E+02  0.26777275843E+02  0.00000000000E+00 0.  1.
         12    1    6    6    0    0  0.41097393058E+02 -0.64360328466E+02  0.55022783972E+02  0.94120955969E+02  0.00000000000E+00 0. -1.
         -5    1    3    3    0  503  0.87228227015E+02  0.25086484668E+02  0.66717098899E+02  0.11274465214E+03  0.47000000000E+01 0.  1.
         11    1    4    4    0    0 -0.48561614885E+02  0.52290985442E+02  0.12864041316E+02  0.72512489667E+02  0.00000000000E+00 0. -1.
        -12    1    4    4    0    0  0.34400121526E+02  0.35247994760E+02  0.72580109451E+01  0.49784216560E+02  0.00000000000E+00 0.  1.
</event>
<event>
12    1  0.8313893E-002  0.3076332E+03  0.7818608E-02  0.1081877E+00
         21   -1    0    0  501  502  0.00000000000E+00  0.00000000000E+00  0.11975526650E+03  0.11975526650E+03  0.00000000000E+00 0. -1.
         21   -1    0    0  502  503 -0.00000000000E+00 -0.00000000000E+00 -0.11307323813E+04  0.11307323813E+04  0.00000000000E+00 0.  1.
         -6    2    1    2    0  503  0.94585930007E+02 -0.23213758246E+03 -0.85453430593E+03  0.90822191600E+03  0.17833623678E+03 0.  0.
        -24    2    3    3    0    0  0.28924217910E+02 -0.41904366095E+02 -0.24171755963E+03  0.26318967527E+03  0.90823126204E+02 0.  0.
          6    2    1    2  501    0 -0.94585930007E+02  0.23213758246E+03 -0.15644280888E+03  0.34226573181E+03  0.17273425651E+03 0.  0.
         24    2    5    5    0    0 -0.57381245069E+02  0.77186475241E+02 -0.12939772471E+03  0.18056365765E+03  0.81296396344E+02 0.  0.
          5    1    5    5  501    0 -0.37204684938E+02  0.15495110722E+03 -0.27045084178E+02  0.16170207416E+03  0.47000000000E+01 0. -1.
        -13    1    6    6    0    0 -0.12248437536E+02 -0.87232235568E+01 -0.58444531976E+02  0.60348008825E+02  0.00000000000E+00 0.  1.
         14    1    6    6    0    0 -0.45132807534E+02  0.85909698798E+02 -0.70953192730E+02  0.12021564882E+03  0.00000000000E+00 0. -1.
         -5    1    3    3    0  503  0.65661712097E+02 -0.19023321636E+03 -0.61281674630E+03  0.64503224073E+03  0.47000000000E+01 0.  1.
         11    1    4    4    0    0 -0.28468997291E+02 -0.55151103394E+01 -0.12324334800E+03  0.12660893758E+03  0.00000000000E+00 0. -1.
        -12    1    4    4    0    0  0.57393215201E+02 -0.36389255755E+02 -0.11847421163E+03  0.13658073769E+03  0.00000000000E+00 0.  1.
</event>
<event>
12    1  0.8313893E-002  0.1743380E+03  0.7818608E-02  0.1173902E+00
         21   -1    0    0  501  502  0.00000000000E+00  0.00000000000E+00  0.13195631783E+03  0.13195631783E+03  0.00000000000E+00 0.  1.
         21   -1    0    0  502  503 -0.00000000000E+00 -0.00000000000E+00 -0.40904515084E+03  0.40904515084E+03  0.00000000000E+00 0.  1.
         -6    2    1    2    0  503 -0.83928961557E+01  0.13394519734E+02 -0.31908425981E+03  0.36360488541E+03  0.17361996997E+03 0.  0.
        -24    2    3    3    0    0  0.47089081767E+02 -0.27254140790E+02 -0.12227051010E+03  0.15506638645E+03  0.78328390471E+02 0.  0.
          6    2    1    2  501    0  0.83928961557E+01 -0.13394519734E+02  0.41995426796E+02  0.17739658326E+03  0.17162773090E+03 0.  0.
         24    2    5    5    0    0 -0.43565291462E+02 -0.28763851987E+02  0.68910260261E+02  0.11671406605E+03  0.78410812024E+02 0.  0.
          5    1    5    5  501    0  0.51958187618E+02  0.15369332253E+02 -0.26914833465E+02  0.60682517210E+02  0.47000000000E+01 0. -1.
        -11    1    6    6    0    0 -0.31435864462E+02  0.24321349019E+02  0.29210573485E+02  0.49325441669E+02  0.00000000000E+00 0.  1.
         12    1    6    6    0    0 -0.12129427001E+02 -0.53085201006E+02  0.39699686776E+02  0.67388624376E+02  0.00000000000E+00 0. -1.
         -5    1    3    3    0  503 -0.55481977923E+02  0.40648660524E+02 -0.19681374970E+03  0.20853849896E+03  0.47000000000E+01 0.  1.
         11    1    4    4    0    0 -0.20457593456E+02 -0.17824799106E+02 -0.36715560540E+02  0.45653794793E+02  0.00000000000E+00 0. -1.
        -12    1    4    4    0    0  0.67546675224E+02 -0.94293416846E+01 -0.85554949565E+02  0.10941259166E+03  0.00000000000E+00 0.  1.
</event>
<event>
12    1  0.8313893E-002  0.1835223E+03  0.7818608E-02  0.1164650E+00
         21   -1    0    0  501  502  0.00000000000E+00  0.00000000000E+00  0.63816802140E+03  0.63816802140E+03  0.00000000000E+00 0.  1.
         21   -1    0    0  502  503 -0.00000000000E+00 -0.00000000000E+00 -0.46106448202E+03  0.46106448202E+03  0.00000000000E+00 0. -1.
         -6    2    1    2    0  503 -0.60490873318E+02  0.61113086032E+01 -0.42884048932E+03  0.46610646244E+03  0.17220503825E+03 0.  0.
        -24    2    3    3    0    0 -0.94077484316E+02 -0.88789392003E+01 -0.40146280686E+03  0.42001529773E+03  0.79442157676E+02 0.  0.
          6    2    1    2  501    0  0.60490873318E+02 -0.61113086032E+01  0.60594402870E+03  0.63312604098E+03  0.17315866714E+03 0.  0.
         24    2    5    5    0    0 -0.10102116523E+02  0.49318667763E+02  0.30295159338E+03  0.31708433748E+03  0.78920373749E+02 0.  0.
          5    1    5    5  501    0  0.70592989841E+02 -0.55429976366E+02  0.30299243531E+03  0.31604170350E+03  0.47000000000E+01 0. -1.
        -13    1    6    6    0    0 -0.75230777736E+01  0.42050998484E+02  0.30587013760E+03  0.30883883216E+03  0.00000000000E+00 0.  1.
         14    1    6    6    0    0 -0.25790387498E+01  0.72676692790E+01 -0.29185442186E+01  0.82455053197E+01  0.00000000000E+00 0. -1.
         -5    1    3    3    0  503  0.33586610999E+02  0.14990247803E+02 -0.27377682460E+02  0.46091164711E+02  0.47000000000E+01 0.  1.
         11    1    4    4    0    0 -0.55099512198E+02 -0.83525672242E+01 -0.35508215909E+03  0.35942879869E+03  0.00000000000E+00 0. -1.
        -12    1    4    4    0    0 -0.38977972119E+02 -0.52637197608E+00 -0.46380647768E+02  0.60586499035E+02  0.00000000000E+00 0.  1.
</event>
<event>
12    1  0.8313893E-002  0.2081263E+03  0.7818608E-02  0.1144566E+00
         21   -1    0    0  501  502  0.00000000000E+00  0.00000000000E+00  0.44164542589E+02  0.44164542589E+02  0.00000000000E+00 0.  1.
         21   -1    0    0  502  503 -0.00000000000E+00 -0.00000000000E+00 -0.97443035611E+03  0.97443035611E+03  0.00000000000E+00 0. -1.
         -6    2    1    2    0  503 -0.10007581953E+03  0.32837240605E+02 -0.38678172138E+03  0.43922281009E+03  0.17950800227E+03 0.  0.
        -24    2    3    3    0    0 -0.13412601925E+03 -0.55651111409E+01 -0.30356460136E+03  0.34133851214E+03  0.79622566964E+02 0.  0.
          6    2    1    2  501    0  0.10007581953E+03 -0.32837240605E+02 -0.54348409214E+03  0.57937208861E+03  0.17089062183E+03 0.  0.
         24    2    5    5    0    0  0.61536641911E+02 -0.30640475374E+02 -0.52606673976E+03  0.53676283899E+03  0.81501739919E+02 0.  0.
          5    1    5    5  501    0  0.38539177623E+02 -0.21967652310E+01 -0.17417352376E+02  0.42609249620E+02  0.47000000000E+01 0. -1.
        -11    1    6    6    0    0  0.67866813019E+02 -0.71504876650E+01 -0.47844015203E+03  0.48328253937E+03  0.00000000000E+00 0.  1.
         12    1    6    6    0    0 -0.63301711087E+01 -0.23489987709E+02 -0.47626587729E+02  0.53480299621E+02  0.00000000000E+00 0. -1.
         -5    1    3    3    0  503  0.34050199712E+02  0.38402351746E+02 -0.83217120018E+02  0.97884297945E+02  0.47000000000E+01 0.  1.
         13    1    4    4    0    0 -0.11431923201E+03 -0.83963124730E+00 -0.29949561680E+03  0.32057326194E+03  0.00000000000E+00 0. -1.
        -14    1    4    4    0    0 -0.19806787234E+02 -0.47254798936E+01 -0.40689845692E+01  0.20765250208E+02  0.00000000000E+00 0.  1.
</event>
<event>
12    1  0.8313893E-002  0.1750090E+03  0.7818608E-02  0.1172871E+00
         21   -1    0    0  503  502  0.00000000000E+00  0.00000000000E+00  0.92603043025E+02  0.92603043025E+02  0.00000000000E+00 0. -1.
         21   -1    0    0  501  503 -0.00000000000E+00 -0.00000000000E+00 -0.52400059745E+03  0.52400059745E+03  0.00000000000E+00 0. -1.
          6    2    1    2  501    0  0.22852411774E+01 -0.31458748314E+02 -0.40369574337E+03  0.43999819724E+03  0.17214321125E+03 0.  0.
         24    2    3    3    0    0 -0.59046844615E+02 -0.31402956061E+02 -0.18046980812E+03  0.20845222765E+03  0.80064374488E+02 0.  0.
         -6    2    1    2    0  502 -0.22852411774E+01  0.31458748314E+02 -0.27701811056E+02  0.17660544324E+03  0.17154363024E+03 0.  0.
        -24    2    5    5    0    0  0.63576297320E+02  0.39146685442E+01 -0.80144419802E+01  0.10240233627E+03  0.79779301716E+02 0.  0.
          5    1    3    3  501    0  0.61332085792E+02 -0.55792252948E-01 -0.22322593525E+03  0.23154596958E+03  0.47000000000E+01 0. -1.
        -11    1    4    4    0    0 -0.32664691712E+02 -0.54177318851E+02 -0.14742191350E+03  0.16042251882E+03  0.00000000000E+00 0.  1.
         12    1    4    4    0    0 -0.26382152902E+02  0.22774362790E+02 -0.33047894617E+02  0.48029708836E+02  0.00000000000E+00 0. -1.
         -5    1    5    5    0  502 -0.65861538498E+02  0.27544079770E+02 -0.19687369076E+02  0.74203106975E+02  0.47000000000E+01 0.  1.
         13    1    6    6    0    0 -0.39601582525E+00  0.19733213386E+02  0.22372917585E+02  0.29834610444E+02  0.00000000000E+00 0. -1.
        -14    1    6    6    0    0  0.63972313146E+02 -0.15818544842E+02 -0.30387359565E+02  0.72567725825E+02  0.00000000000E+00 0.  1.
</event>
<event>
12    1  0.8313893E-002  0.1798100E+03  0.7818608E-02  0.1168010E+00
         21   -1    0    0  501  502  0.00000000000E+00  0.00000000000E+00  0.10140243480E+03  0.10140243480E+03  0.00000000000E+00 0. -1.
         21   -1    0    0  502  503 -0.00000000000E+00 -0.00000000000E+00 -0.31960394936E+03  0.31960394936E+03  0.00000000000E+00 0. -1.
         -6    2    1    2    0  503 -0.40243453275E+02  0.28474700763E+02 -0.97733027553E+02  0.20457094933E+03  0.17282125020E+03 0.  0.
        -24    2    3    3    0    0 -0.70534654733E+02  0.70814950024E+02 -0.73819645852E+02  0.14708883544E+03  0.78713980534E+02 0.  0.
          6    2    1    2  501    0  0.40243453275E+02 -0.28474700763E+02 -0.12046848701E+03  0.21643543483E+03  0.17291991491E+03 0.  0.
         24    2    5    5    0    0  0.89205267781E+01  0.38272719128E+02 -0.14504096602E+02  0.87257705241E+02  0.76545159731E+02 0.  0.
          5    1    5    5  501    0  0.31322926497E+02 -0.66747419891E+02 -0.10596439041E+03  0.12917772959E+03  0.47000000000E+01 0. -1.
        -13    1    6    6    0    0  0.21057528699E+02  0.24136819853E+01  0.24842785697E+02  0.32655924069E+02  0.00000000000E+00 0.  1.
         14    1    6    6    0    0 -0.12137001921E+02  0.35859037143E+02 -0.39346882299E+02  0.54601781171E+02  0.00000000000E+00 0. -1.
         -5    1    3    3    0  503  0.30291201458E+02 -0.42340249261E+02 -0.23913381701E+02  0.57482113893E+02  0.47000000000E+01 0.  1.
         11    1    4    4    0    0  0.75170634564E+01  0.29902577819E+02  0.19149545213E+01  0.30892352679E+02  0.00000000000E+00 0. -1.
        -12    1    4    4    0    0 -0.78051718190E+02  0.40912372205E+02 -0.75734600373E+02  0.11619648276E+03  0.00000000000E+00 0.  1.
</event>
<event>
12    1  0.8313893E-002  0.2489457E+03  0.7818608E-02  0.1114085E+00
         21   -1    0    0  503  502  0.00000000000E+00  0.00000000000E+00  0.28940455557E+03  0.28940455557E+03  0.00000000000E+00 0.  1.
         21   -1    0    0  501  503 -0.00000000000E+00 -0.00000000000E+00 -0.32887384263E+03  0.32887384263E+03  0.00000000000E+00 0. -1.
          6    2    1    2  501    0  0.83257861635E+02  0.15920306148E+03 -0.20278705671E+03  0.32054249110E+03  0.17131086342E+03 0.  0.
         24    2    3    3    0    0  0.73312709599E+02  0.17452778575E+03 -0.21353317997E+03  0.29883253054E+03  0.88711673266E+02 0.  0.
         -6    2    1    2    0  502 -0.83257861635E+02 -0.15920306148E+03  0.16331776965E+03  0.29773590709E+03  0.17232669608E+03 0.  0.
        -24    2    5    5    0    0 -0.67405289080E+02 -0.17371939555E+02  0.75678640659E+02  0.13019463417E+03  0.79863188233E+02 0.  0.
          5    1    3    3  501    0  0.99451520366E+01 -0.15324724264E+02  0.10746123260E+02  0.21709960569E+02  0.47000000000E+01 0. -1.
        -13    1    4    4    0    0 -0.16548017793E+02  0.50596911990E+02 -0.35255480686E+02  0.63850084685E+02  0.00000000000E+00 0.  1.
         14    1    4    4    0    0  0.89860727392E+02  0.12393087376E+03 -0.17827769928E+03  0.23498244585E+03  0.00000000000E+00 0. -1.
         -5    1    5    5    0  502 -0.15852572555E+02 -0.14183112193E+03  0.87639128986E+02  0.16754127292E+03  0.47000000000E+01 0.  1.
         11    1    6    6    0    0 -0.62259577630E+02 -0.28495587189E+02  0.17408091348E+02  0.70649098652E+02  0.00000000000E+00 0. -1.
        -12    1    6    6    0    0 -0.51457114501E+01  0.11123647635E+02  0.58270549311E+02  0.59545535518E+02  0.00000000000E+00 0.  1.
</event>
<event>
12    1  0.8313893E-002  0.2253467E+03  0.7818608E-02  0.1131045E+00
         21   -1    0    0  503  502  0.00000000000E+00  0.00000000000E+00  0.31158594294E+02  0.31158594294E+02  0.00000000000E+00 0.  1.
         21   -1    0    0  501  503 -0.00000000000E+00 -0.00000000000E+00 -0.16536304217E+04  0.16536304217E+04  0.00000000000E+00 0.  1.
          6    2    1    2  501    0  0.20929574438E+02 -0.14456937450E+03 -0.96970779219E+03  0.99422255508E+03  0.16372823724E+03 0.  0.
         24    2    3    3    0    0 -0.57564763326E+01 -0.16532101550E+03 -0.86085512431E+03  0.88014464656E+03  0.78859866962E+02 0.  0.
         -6    2    1    2    0  502 -0.20929574438E+02  0.14456937450E+03 -0.65276403518E+03  0.69056646087E+03  0.17158904433E+03 0.  0.
        -24    2    5    5    0    0  0.24476090264E+02  0.59269301231E+02 -0.49603196823E+03  0.50637957835E+03  0.79124173263E+02 0.  0.
          5    1    3    3  501    0  0.26686050770E+02  0.20751641000E+02 -0.10885266788E+03  0.11407790853E+03  0.47000000000E+01 0. -1.
        -11    1    4    4    0    0  0.22515214326E+02 -0.10636912219E+02 -0.88024271871E+02  0.91478692689E+02  0.00000000000E+00 0.  1.
         12    1    4    4    0    0 -0.28271690658E+02 -0.15468410328E+03 -0.77283085244E+03  0.78866595387E+03  0.00000000000E+00 0. -1.
         -5    1    5    5    0  502 -0.45405664701E+02  0.85300073266E+02 -0.15673206694E+03  0.18418688253E+03  0.47000000000E+01 0.  1.
         11    1    6    6    0    0  0.45704734663E+02  0.14643790023E+02 -0.17080496428E+03  0.17741955693E+03  0.00000000000E+00 0. -1.
        -12    1    6    6    0    0 -0.21228644399E+02  0.44625511208E+02 -0.32522700395E+03  0.32896002142E+03  0.00000000000E+00 0.  1.
</event>
<event>
12    1  0.8313893E-002  0.1945975E+03  0.7818608E-02  0.1154741E+00
         21   -1    0    0  503  502  0.00000000000E+00  0.00000000000E+00  0.25239526237E+03  0.25239526237E+03  0.00000000000E+00 0.  1.
         21   -1    0    0  501  503 -0.00000000000E+00 -0.00000000000E+00 -0.22188916820E+03  0.22188916820E+03  0.00000000000E+00 0. -1.
          6    2    1    2  501    0  0.90002194676E+02 -0.15166505597E+02 -0.12083563273E+03  0.22906210511E+03  0.17186558678E+03 0.  0.
         24    2    3    3    0    0  0.13034277632E+03 -0.11900213806E+02 -0.10735172906E+03  0.18614431337E+03  0.77423880304E+02 0.  0.
         -6    2    1    2    0  502 -0.90002194676E+02  0.15166505597E+02  0.15134172691E+03  0.24522232546E+03  0.16999780194E+03 0.  0.
        -24    2    5    5    0    0 -0.99928605683E+02 -0.95949058027E+01  0.42944480252E+02  0.13349178258E+03  0.76798692580E+02 0.  0.
          5    1    3    3  501    0 -0.40340581644E+02 -0.32662917905E+01 -0.13483903677E+02  0.42917791740E+02  0.47000000000E+01 0. -1.
        -11    1    4    4    0    0  0.62308151610E+02  0.31252080233E+02 -0.35655260165E+02  0.78296205869E+02  0.00000000000E+00 0.  1.
         12    1    4    4    0    0  0.68034624710E+02 -0.43152294039E+02 -0.71696468891E+02  0.10784810750E+03  0.00000000000E+00 0. -1.
         -5    1    5    5    0  502  0.99264110074E+01  0.24761411399E+02  0.10839724665E+03  0.11173054288E+03  0.47000000000E+01 0.  1.
         13    1    6    6    0    0 -0.80894766242E+02  0.17909890244E+02  0.51380576679E+01  0.83012812328E+02  0.00000000000E+00 0. -1.
        -14    1    6    6    0    0 -0.19033839441E+02 -0.27504796047E+02  0.37806422584E+02  0.50478970255E+02  0.00000000000E+00 0.  1.
</event>
<event>
12    1  0.8313893E-002  0.1782683E+03  0.7818608E-02  0.1169644E+00
         21   -1    0    0  503  502  0.00000000000E+00  0.00000000000E+00  0.18430765603E+03  0.18430765603E+03  0.00000000000E+00 0.  1.
         21   -1    0    0  501  503 -0.00000000000E+00 -0.00000000000E+00 -0.20459771862E+03  0.20459771862E+03  0.00000000000E+00 0.  1.
          6    2    1    2  501    0 -0.30490608785E+01  0.45356845210E+02  0.67704402659E+02  0.19010240946E+03  0.17172215863E+03 0.  0.
         24    2    3    3    0    0 -0.53594023109E+02  0.72406741468E+02  0.47156035539E+02  0.12902200765E+03  0.79422485773E+02 0.  0.
         -6    2    1    2    0  502  0.30490608785E+01 -0.45356845210E+02 -0.87994465247E+02  0.19880296518E+03  0.17237474546E+03 0.  0.
        -24    2    5    5    0    0  0.40267287472E+02 -0.82892243691E+02 -0.76013085422E+02  0.14439941757E+03  0.81121046197E+02 0.  0.
          5    1    3    3  501    0  0.50544962230E+02 -0.27049896259E+02  0.20548367119E+02  0.61080401814E+02  0.47000000000E+01 0. -1.
        -11    1    4    4    0    0  0.13164884870E+02  0.32074056340E+02  0.36430171804E+02  0.50291318351E+02  0.00000000000E+00 0.  1.
         12    1    4    4    0    0 -0.66758907979E+02  0.40332685128E+02  0.10725863735E+02  0.78730689296E+02  0.00000000000E+00 0. -1.
         -5    1    5    5    0  502 -0.37218226593E+02  0.37535398481E+02 -0.11981379824E+02  0.54403547608E+02  0.47000000000E+01 0.  1.
         13    1    6    6    0    0  0.39516338091E+02 -0.37588107216E+02  0.15626928136E+01  0.54560505763E+02  0.00000000000E+00 0. -1.
        -14    1    6    6    0    0  0.75094938046E+00 -0.45304136474E+02 -0.77575778236E+02  0.89838911812E+02  0.00000000000E+00 0.  1.
</event>
<event>
12    1  0.8313893E-002  0.1970439E+03  0.7818608E-02  0.1152293E+00
         21   -1    0    0  503  502  0.00000000000E+00  0.00000000000E+00  0.75966971001E+02  0.75966971001E+02  0.00000000000E+00 0.  1.
         21   -1    0    0  501  503 -0.00000000000E+00 -0.00000000000E+00 -0.69003382175E+03  0.69003382175E+03  0.00000000000E+00 0.  1.
          6    2    1    2  501    0 -0.45002633450E+01 -0.95801642830E+02 -0.50240207012E+03  0.53966113352E+03  0.17212812620E+03 0.  0.
         24    2    3    3    0    0  0.12690327458E+02 -0.13002424963E+03 -0.44168484746E+03  0.46772105876E+03  0.81302733244E+02 0.  0.
         -6    2    1    2    0  502  0.45002633450E+01  0.95801642830E+02 -0.11166478063E+03  0.22633965923E+03  0.17193722974E+03 0.  0.
        -24    2    5    5    0    0  0.13234117984E+02 -0.11893166991E+02 -0.15245617274E+02  0.81449365074E+02  0.78006287728E+02 0.  0.
          5    1    3    3  501    0 -0.17190590803E+02  0.34222606797E+02 -0.60717222657E+02  0.71940074752E+02  0.47000000000E+01 0. -1.
        -13    1    4    4    0    0 -0.97601770282E+01 -0.12312172792E+03 -0.30543097558E+03  0.32945758723E+03  0.00000000000E+00 0.  1.
         14    1    4    4    0    0  0.22450504487E+02 -0.69025217100E+01 -0.13625387188E+03  0.13826347153E+03  0.00000000000E+00 0. -1.
         -5    1    5    5    0  502 -0.87338546392E+01  0.10769480982E+03 -0.96419163357E+02  0.14489029416E+03  0.47000000000E+01 0.  1.
         11    1    6    6    0    0  0.32309002916E+02 -0.10641344320E+02 -0.38481444260E+02  0.51360796632E+02  0.00000000000E+00 0. -1.
        -12    1    6    6    0    0 -0.19074884931E+02 -0.12518226706E+01  0.23235826987E+02  0.30088568442E+02  0.00000000000E+00 0.  1.
</event>
<event>
12    1  0.8313893E-002  0.1925812E+03  0.7818608E-02  0.1156421E+00
         21   -1    0    0  503  502  0.00000000000E+00  0.00000000000E+00  0.16483117747E+03  0.16483117747E+03  0.00000000000E+00 0.  1.
         21   -1    0    0  501  503 -0.00000000000E+00 -0.00000000000E+00 -0.23664763846E+03  0.23664763846E+03  0.00000000000E+00 0.  1.
          6    2    1    2  501    0  0.28444070817E+02  0.82365539310E+02  0.11119951608E+02  0.19290193993E+03  0.17173921473E+03 0.  0.
         24    2    3    3    0    0  0.21622076865E+02  0.12444730756E+03  0.31216425524E+01  0.14927307600E+03  0.79486225217E+02 0.  0.
         -6    2    1    2    0  502 -0.28444070817E+02 -0.82365539310E+02 -0.82936412597E+02  0.20857687600E+03  0.17038989829E+03 0.  0.
        -24    2    5    5    0    0  0.46659418097E+02 -0.10101284311E+02 -0.37561853881E+02  0.94806945107E+02  0.72789605932E+02 0.  0.
          5    1    3    3  501    0  0.68219939521E+01 -0.42081768247E+02  0.79983090559E+01  0.43628863933E+02  0.47000000000E+01 0. -1.
        -11    1    4    4    0    0 -0.20862601454E+02  0.27495298844E+02  0.23128232265E+02  0.41547018252E+02  0.00000000000E+00 0.  1.
         12    1    4    4    0    0  0.42484678319E+02  0.96952008714E+02 -0.20006589713E+02  0.10772605775E+03  0.00000000000E+00 0. -1.
         -5    1    5    5    0  502 -0.75103488914E+02 -0.72264254999E+02 -0.45374558716E+02  0.11376993090E+03  0.47000000000E+01 0.  1.
         11    1    6    6    0    0 -0.12274352325E+02 -0.23586202863E+02 -0.11829529975E+02  0.29101657511E+02  0.00000000000E+00 0. -1.
        -12    1    6    6    0    0  0.58933770422E+02  0.13484918551E+02 -0.25732323907E+02  0.65705287596E+02  0.00000000000E+00 0.  1.
</event>
<event>
12    1  0.8313893E-002  0.2012957E+03  0.7818608E-02  0.1149123E+00
         21   -1    0    0  503  502  0.00000000000E+00  0.00000000000E+00  0.57917410980E+02  0.57917410980E+02  0.00000000000E+00 0.  1.
         21   -1    0    0  501  503 -0.00000000000E+00 -0.00000000000E+00 -0.78400019927E+03  0.78400019927E+03  0.00000000000E+00 0.  1.
          6    2    1    2  501    0 -0.43903107047E+02 -0.91659473918E+02 -0.50916948748E+03  0.54751576050E+03  0.17375557272E+03 0.  0.
         24    2    3    3    0    0 -0.83616829000E+02 -0.20168806638E+02 -0.31888660975E+03  0.34034974308E+03  0.82162782826E+02 0.  0.
         -6    2    1    2    0  502  0.43903107047E+02  0.91659473918E+02 -0.21691330082E+03  0.29440184975E+03  0.17114942915E+03 0.  0.
        -24    2    5    5    0    0  0.49995004210E+02 -0.60574548461E+01 -0.81533382562E+02  0.12726262143E+03  0.83737023684E+02 0.  0.
          5    1    3    3  501    0  0.39713721953E+02 -0.71490667280E+02 -0.19028287772E+03  0.20716601742E+03  0.47000000000E+01 0. -1.
        -13    1    4    4    0    0 -0.11337944533E+02  0.78045432203E+01 -0.18603650210E+03  0.18654500796E+03  0.00000000000E+00 0.  1.
         14    1    4    4    0    0 -0.72278884467E+02 -0.27973349858E+02 -0.13285010765E+03  0.15380473512E+03  0.00000000000E+00 0. -1.
         -5    1    5    5    0  502 -0.60918971632E+01  0.97716928764E+02 -0.13537991826E+03  0.16713922832E+03  0.47000000000E+01 0.  1.
         13    1    6    6    0    0  0.58105218907E+02 -0.29550314285E+02 -0.78785988288E+02  0.10225785783E+03  0.00000000000E+00 0. -1.
        -14    1    6    6    0    0 -0.81102146963E+01  0.23492859439E+02 -0.27473942740E+01  0.25004763593E+02  0.00000000000E+00 0.  1.
</event>
<event>
12    1  0.8313893E-002  0.1806423E+03  0.7818608E-02  0.1167707E+00
         21   -1    0    0  501  502  0.00000000000E+00  0.00000000000E+00  0.48911450353E+03  0.48911450353E+03  0.00000000000E+00 0.  1.
         21   -1    0    0  502  503 -0.00000000000E+00 -0.00000000000E+00 -0.66898023502E+02  0.66898023502E+02  0.00000000000E+00 0.  1.
         -6    2    1    2    0  503  0.34217443292E+02 -0.29703243959E+02  0.24597989938E+03  0.30518478251E+03  0.17486716231E+03 0.  0.
        -24    2    3    3    0    0  0.32171140424E+02 -0.24911629272E+02  0.26703598281E+03  0.28299028823E+03  0.84378406997E+02 0.  0.
          6    2    1    2  501    0 -0.34217443292E+02  0.29703243959E+02  0.17623658066E+03  0.25082774452E+03  0.17263287327E+03 0.  0.
         24    2    5    5    0    0 -0.47758735895E+01  0.59417594101E+02  0.18248293334E+03  0.20827359605E+03  0.80775060469E+02 0.  0.
          5    1    5    5  501    0 -0.29441569702E+02 -0.29714350141E+02 -0.62463526795E+01  0.42554148478E+02  0.47000000000E+01 0. -1.
        -11    1    6    6    0    0 -0.77334076610E+01  0.11822388307E+02 -0.48731383551E+01  0.14943959876E+02  0.00000000000E+00 0.  1.
         12    1    6    6    0    0  0.29575340714E+01  0.47595205794E+02  0.18735607169E+03  0.19332963617E+03  0.00000000000E+00 0. -1.
         -5    1    3    3    0  503  0.20463028682E+01 -0.47916146871E+01 -0.21056083436E+02  0.22194494282E+02  0.47000000000E+01 0.  1.
         11    1    4    4    0    0  0.15958157473E+02  0.14861778252E+02  0.21228710739E+03  0.21340419679E+03  0.00000000000E+00 0. -1.
        -12    1    4    4    0    0  0.16212982951E+02 -0.39773407524E+02  0.54748875421E+02  0.69586091442E+02  0.00000000000E+00 0.  1.
</event>
<event>
12    1  0.8313893E-002  0.1838780E+03  0.7818608E-02  0.1164106E+00
         21   -1    0    0  503  502  0.00000000000E+00  0.00000000000E+00  0.52470232667E+03  0.52470232667E+03  0.00000000000E+00 0.  1.
         21   -1    0    0  501  503 -0.00000000000E+00 -0.00000000000E+00 -0.82255014427E+02  0.82255014427E+02  0.00000000000E+00 0.  1.
          6    2    1    2  501    0  0.23947430871E+02  0.64326241382E+02  0.79954721731E+02  0.20049456054E+03  0.17056953568E+03 0.  0.
         24    2    3    3    0    0  0.44471876663E+01  0.42516501168E+02 -0.23011003043E+02  0.93350009897E+02  0.79732601469E+02 0.  0.
         -6    2    1    2    0  502 -0.23947430871E+02 -0.64326241382E+02  0.36249259051E+03  0.40646278056E+03  0.17058654411E+03 0.  0.
        -24    2    5    5    0    0  0.34419907956E+02 -0.65129858855E+00  0.24432089087E+03  0.26001181547E+03  0.82026167852E+02 0.  0.
          5    1    3    3  501    0  0.19500243204E+02  0.21809740214E+02  0.10296572477E+03  0.10714455064E+03  0.47000000000E+01 0. -1.
        -13    1    4    4    0    0  0.35366126487E+02  0.34332763672E+02  0.66416124881E+01  0.49735425810E+02  0.00000000000E+00 0.  1.
         14    1    4    4    0    0 -0.30918938821E+02  0.81837374956E+01 -0.29652615531E+02  0.43614584087E+02  0.00000000000E+00 0. -1.
         -5    1    5    5    0  502 -0.58367338826E+02 -0.63674942793E+02  0.11817169964E+03  0.14645096509E+03  0.47000000000E+01 0.  1.
         13    1    6    6    0    0  0.96534702658E+01 -0.40711290193E+02  0.11220111353E+03  0.11974843847E+03  0.00000000000E+00 0. -1.
        -14    1    6    6    0    0  0.24766437690E+02  0.40059991604E+02  0.13211977734E+03  0.14026337700E+03  0.00000000000E+00 0.  1.
</event>
<event>
12    1  0.8313893E-002  0.1765903E+03  0.7818608E-02  0.1171193E+00
         21   -1    0    0  501  502  0.00000000000E+00  0.00000000000E+00  0.11597874047E+04  0.11597874047E+04  0.00000000000E+00 0.  1.
         21   -1    0    0  502  503 -0.00000000000E+00 -0.00000000000E+00 -0.45608812116E+02  0.45608812116E+02  0.00000000000E+00 0.  1.
         -6    2    1    2    0  503  0.37213086622E+02 -0.13343398176E+02  0.17046110746E+03  0.24529890960E+03  0.17190609589E+03 0.  0.
        -24    2    3    3    0    0  0.18224478248E+02  0.97722700010E+01  0.85497958167E+01  0.80580166885E+02  0.77410822359E+02 0.  0.
          6    2    1    2  501    0 -0.37213086622E+02  0.13343398176E+02  0.94371748517E+03  0.96009730726E+03  0.17210835978E+03 0.  0.
         24    2    5    5    0    0  0.44483963684E+02 -0.77854247821E+01  0.52847659336E+03  0.53634275163E+03  0.79602774030E+02 0.  0.
          5    1    5    5  501    0 -0.81697050306E+02  0.21128822958E+02  0.41524089181E+03  0.42375455563E+03  0.47000000000E+01 0. -1.
        -11    1    6    6    0    0 -0.22417513327E+02 -0.66132672225E+01  0.17887077213E+03  0.18039133385E+03  0.00000000000E+00 0.  1.
         12    1    6    6    0    0  0.66901477011E+02 -0.11721575596E+01  0.34960582123E+03  0.35595141778E+03  0.00000000000E+00 0. -1.
         -5    1    3    3    0  503  0.18988608374E+02 -0.23115668177E+02  0.16191131164E+03  0.16471874272E+03  0.47000000000E+01 0.  1.
         13    1    4    4    0    0 -0.29291520905E+02  0.56748694037E+01  0.13271419603E+02  0.32654676816E+02  0.00000000000E+00 0. -1.
        -14    1    4    4    0    0  0.47515999153E+02  0.40974005973E+01 -0.47216237859E+01  0.47925490069E+02  0.00000000000E+00 0.  1.
</event>
<event>
12    1  0.8313893E-002  0.2279483E+03  0.7818608E-02  0.1128177E+00
         21   -1    0    0  501  502  0.00000000000E+00  0.00000000000E+00  0.49366460052E+03  0.49366460052E+03  0.00000000000E+00 0.  1.
         21   -1    0    0  502  503 -0.00000000000E+00 -0.00000000000E+00 -0.10541016713E+03  0.10541016713E+03  0.00000000000E+00 0.  1.
         -6    2    1    2    0  503 -0.55658668755E+01  0.14974974190E+03  0.17647999513E+03  0.28828044176E+03  0.17176862445E+03 0.  0.
        -24    2    3    3    0    0  0.33984480260E+00  0.70265131882E+02  0.16979186683E+03  0.20815864872E+03  0.97792846076E+02 0.  0.
          6    2    1    2  501    0  0.55658668755E+01 -0.14974974190E+03  0.21177443826E+03  0.31079432590E+03  0.17113952272E+03 0.  0.
         24    2    5    5    0    0  0.38561214589E+01 -0.92070042958E+02  0.22120161315E+03  0.25213571591E+03  0.78425143242E+02 0.  0.
          5    1    5    5  501    0  0.17097454166E+01 -0.57679698937E+02 -0.94271748930E+01  0.58658609985E+02  0.47000000000E+01 0. -1.
        -11    1    6    6    0    0 -0.15524136550E+02 -0.93851092100E+02  0.14447967854E+03  0.17298382530E+03  0.00000000000E+00 0.  1.
         12    1    6    6    0    0  0.19380258008E+02  0.17810491415E+01  0.76721934611E+02  0.79151890609E+02  0.00000000000E+00 0. -1.
         -5    1    3    3    0  503 -0.59057116781E+01  0.79484610013E+02  0.66881283052E+01  0.80121793038E+02  0.47000000000E+01 0.  1.
         11    1    4    4    0    0 -0.44300542637E+02  0.60016297473E+02  0.10711160727E+03  0.13052735519E+03  0.00000000000E+00 0. -1.
        -12    1    4    4    0    0  0.44640387439E+02  0.10248834409E+02  0.62680259558E+02  0.77631293533E+02  0.00000000000E+00 0.  1.
</event>
<event>
12    1  0.8313893E-002  0.2133140E+03  0.7818608E-02  0.1139540E+00
         21   -1    0    0  503  502  0.00000000000E+00  0.00000000000E+00  0.20284136036E+03  0.20284136036E+03  0.00000000000E+00 0. -1.
         21   -1    0    0  501  503 -0.00000000000E+00 -0.00000000000E+00 -0.50161484457E+03  0.50161484457E+03  0.00000000000E+00 0. -1.
          6    2    1    2  501    0  0.48367882622E+02 -0.10966495802E+03 -0.41225361781E+03  0.46283543835E+03  0.17290963682E+03 0.  0.
         24    2    3    3    0    0  0.12052183029E+02  0.89059944744E+01 -0.21696913849E+03  0.23145692017E+03  0.79196761189E+02 0.  0.
         -6    2    1    2    0  502 -0.48367882622E+02  0.10966495802E+03  0.11348013360E+03  0.24162076658E+03  0.17645679084E+03 0.  0.
        -24    2    5    5    0    0 -0.38911592764E+01  0.55393202158E+02  0.13684232257E+03  0.16751621694E+03  0.79071573426E+02 0.  0.
          5    1    3    3  501    0  0.36315699593E+02 -0.11857095249E+03 -0.19528447932E+03  0.23137851818E+03  0.47000000000E+01 0. -1.
        -11    1    4    4    0    0 -0.87717148724E+01 -0.81686108135E+01  0.81529711726E+00  0.12013904187E+02  0.00000000000E+00 0.  1.
         12    1    4    4    0    0  0.20823897901E+02  0.17074605288E+02 -0.21778443561E+03  0.21944301598E+03  0.00000000000E+00 0. -1.
         -5    1    5    5    0  502 -0.44476723345E+02  0.54271755860E+02 -0.23362188974E+02  0.74104549640E+02  0.47000000000E+01 0.  1.
         13    1    6    6    0    0  0.43881334760E+01  0.74932212705E+02  0.11224975637E+03  0.13503369958E+03  0.00000000000E+00 0. -1.
        -14    1    6    6    0    0 -0.82792927523E+01 -0.19539010547E+02  0.24592566204E+02  0.32482517362E+02  0.00000000000E+00 0.  1.
</event>
<event>
12    1  0.8313893E-002  0.1872614E+03  0.7818608E-02  0.1161057E+00
         21   -1    0    0  503  502  0.00000000000E+00  0.00000000000E+00  0.33520621593E+03  0.33520621593E+03  0.00000000000E+00 0.  1.
         21   -1    0    0  501  503 -0.00000000000E+00 -0.00000000000E+00 -0.10442657273E+03  0.10442657273E+03  0.00000000000E+00 0.  1.
          6    2    1    2  501    0 -0.63247900163E+02 -0.37332210494E+02  0.12087449154E+03  0.22288447062E+03  0.17225810205E+03 0.  0.
         24    2    3    3    0    0 -0.10616255589E+02 -0.61787940285E+02  0.15963532620E+02  0.10289875467E+03  0.80017903569E+02 0.  0.
         -6    2    1    2    0  502  0.63247900163E+02  0.37332210494E+02  0.10990515166E+03  0.21674831804E+03  0.17177514430E+03 0.  0.
        -24    2    5    5    0    0  0.46917202627E+01 -0.31878074825E+02  0.86981018287E+02  0.12311875172E+03  0.80958665935E+02 0.  0.
          5    1    3    3  501    0 -0.52631644574E+02  0.24455729791E+02  0.10491095892E+03  0.11998571595E+03  0.47000000000E+01 0. -1.
        -13    1    4    4    0    0 -0.37788288114E+02 -0.61808744565E+02  0.22921911611E+01  0.72481237321E+02  0.00000000000E+00 0.  1.
         14    1    4    4    0    0  0.27172032525E+02  0.20804280064E-01  0.13671341458E+02  0.30417517349E+02  0.00000000000E+00 0. -1.
         -5    1    5    5    0  502  0.58556179900E+02  0.69210285319E+02  0.22924133372E+02  0.93629566320E+02  0.47000000000E+01 0.  1.
         11    1    6    6    0    0 -0.32107978765E+02  0.62980848075E+01  0.44169396624E+02  0.54968388832E+02  0.00000000000E+00 0. -1.
        -12    1    6    6    0    0  0.36799699028E+02 -0.38176159633E+02  0.42811621663E+02  0.68150362892E+02  0.00000000000E+00 0.  1.
</event>
<event>
12    1  0.8313893E-002  0.1807461E+03  0.7818608E-02  0.1167256E+00
         21   -1    0    0  503  502  0.00000000000E+00  0.00000000000E+00  0.19817383416E+03  0.19817383416E+03  0.00000000000E+00 0. -1.
         21   -1    0    0  501  503 -0.00000000000E+00 -0.00000000000E+00 -0.17002515749E+03  0.17002515749E+03  0.00000000000E+00 0. -1.
          6    2    1    2  501    0 -0.42265585607E+01 -0.56105049219E+02 -0.20040335535E+02  0.18113933212E+03  0.17100936304E+03 0.  0.
         24    2    3    3    0    0 -0.52218954555E+02 -0.77761025575E+02  0.33776341185E+01  0.12332287523E+03  0.80146907796E+02 0.  0.
         -6    2    1    2    0  502  0.42265585607E+01  0.56105049219E+02  0.48189012198E+02  0.18705965952E+03  0.17176581435E+03 0.  0.
        -24    2    5    5    0    0 -0.13119575088E+02 -0.15705556256E+02 -0.22937057053E+02  0.84401687898E+02  0.78605016290E+02 0.  0.
          5    1    3    3  501    0  0.47992395995E+02  0.21655976356E+02 -0.23417969654E+02  0.57816456895E+02  0.47000000000E+01 0. -1.
        -11    1    4    4    0    0  0.39992454039E+01 -0.39872401112E+02  0.30444131009E+02  0.50325415519E+02  0.00000000000E+00 0.  1.
         12    1    4    4    0    0 -0.56218199959E+02 -0.37888624462E+02 -0.27066496890E+02  0.72997459710E+02  0.00000000000E+00 0. -1.
         -5    1    5    5    0  502  0.17346133649E+02  0.71810605475E+02  0.71126069251E+02  0.10265797163E+03  0.47000000000E+01 0.  1.
         11    1    6    6    0    0 -0.17383161530E+02 -0.28358312699E+02  0.20423583920E+02  0.39031922629E+02  0.00000000000E+00 0. -1.
        -12    1    6    6    0    0  0.42635864417E+01  0.12652756443E+02 -0.43360640973E+02  0.45369765269E+02  0.00000000000E+00 0.  1.
</event>
<event>
12    1  0.8313893E-002  0.1989928E+03  0.7818608E-02  0.1152187E+00
         21   -1    0    0  503  502  0.00000000000E+00  0.00000000000E+00  0.70475093301E+02  0.70475093301E+02  0.00000000000E+00 0.  1.
         21   -1    0    0  501  503 -0.00000000000E+00 -0.00000000000E+00 -0.54148470844E+03  0.54148470844E+03  0.00000000000E+00 0. -1.
          6    2    1    2  501    0  0.27999288226E+02  0.78136481294E+02 -0.24597853003E+03  0.31639147151E+03  0.18085589887E+03 0.  0.
         24    2    3    3    0    0 -0.42975417855E+02 -0.30757769902E+01 -0.95811879753E+02  0.13144566146E+03  0.79004421845E+02 0.  0.
         -6    2    1    2    0  502 -0.27999288226E+02 -0.78136481294E+02 -0.22503108512E+03  0.29556833024E+03  0.17272052200E+03 0.  0.
        -24    2    5    5    0    0  0.80117740964E+01 -0.10230219255E+03 -0.21456510086E+03  0.25070849256E+03  0.79288325816E+02 0.  0.
          5    1    3    3  501    0  0.70974706081E+02  0.81212258284E+02 -0.15016665027E+03  0.18494581005E+03  0.47000000000E+01 0. -1.
        -13    1    4    4    0    0 -0.33470669578E+02  0.30507189664E+02 -0.82458223654E+02  0.94076208423E+02  0.00000000000E+00 0.  1.
         14    1    4    4    0    0 -0.95047482774E+01 -0.33582966654E+02 -0.13353656099E+02  0.37369453037E+02  0.00000000000E+00 0. -1.
         -5    1    5    5    0  502 -0.36011062322E+02  0.24165711254E+02 -0.10465984256E+02  0.44859837677E+02  0.47000000000E+01 0.  1.
         13    1    6    6    0    0 -0.37010115555E+01 -0.48501631838E+02 -0.17820766233E+03  0.18472703291E+03  0.00000000000E+00 0. -1.
        -14    1    6    6    0    0  0.11712785652E+02 -0.53800560710E+02 -0.36357438535E+02  0.65981459648E+02  0.00000000000E+00 0.  1.
</event>
<event>
12    1  0.8313893E-002  0.2026437E+03  0.7818608E-02  0.1147865E+00
         21   -1    0    0  501  502  0.00000000000E+00  0.00000000000E+00  0.75864963398E+02  0.75864963398E+02  0.00000000000E+00 0.  1.
         21   -1    0    0  502  503 -0.00000000000E+00 -0.00000000000E+00 -0.57316879928E+03  0.57316879928E+03  0.00000000000E+00 0. -1.
         -6    2    1    2    0  503  0.10082693930E+03 -0.25112526669E+02 -0.32927386082E+03  0.38578756692E+03  0.17208736352E+03 0.  0.
        -24    2    3    3    0    0  0.74793335110E+02  0.20804929495E+01 -0.83566330849E+02  0.13716840203E+03  0.78952311150E+02 0.  0.
          6    2    1    2  501    0 -0.10082693930E+03  0.25112526669E+02 -0.16802997506E+03  0.26324619576E+03  0.17397636731E+03 0.  0.
         24    2    5    5    0    0 -0.10268710575E+03  0.59841812472E+02 -0.17617070975E+03  0.22721919099E+03  0.80416152428E+02 0.  0.
          5    1    5    5  501    0  0.18601664525E+01 -0.34729285803E+02  0.81407346955E+01  0.36027004774E+02  0.47000000000E+01 0. -1.
        -13    1    6    6    0    0 -0.74428571162E+02  0.66761964916E+01 -0.58003062859E+02  0.94596718262E+02  0.00000000000E+00 0.  1.
         14    1    6    6    0    0 -0.28258534587E+02  0.53165615980E+02 -0.11816764690E+03  0.13262247273E+03  0.00000000000E+00 0. -1.
         -5    1    3    3    0  503  0.26033604187E+02 -0.27193019618E+02 -0.24570752997E+03  0.24861916489E+03  0.47000000000E+01 0.  1.
         11    1    4    4    0    0 -0.38721283154E+01  0.19472725342E+02 -0.42125933523E+02  0.46570105059E+02  0.00000000000E+00 0. -1.
        -12    1    4    4    0    0  0.78665463425E+02 -0.17392232393E+02 -0.41440397325E+02  0.90598296970E+02  0.00000000000E+00 0.  1.
</event>
<event>
12    1  0.8313893E-002  0.1912543E+03  0.7818608E-02  0.1157385E+00
         21   -1    0    0  503  502  0.00000000000E+00  0.00000000000E+00  0.14163095554E+03  0.14163095554E+03  0.00000000000E+00 0. -1.
         21   -1    0    0  501  503 -0.00000000000E+00 -0.00000000000E+00 -0.37314549260E+03  0.37314549260E+03  0.00000000000E+00 0. -1.
          6    2    1    2  501    0 -0.20430221209E+02  0.81104525080E+02 -0.25880786032E+03  0.32180697087E+03  0.17199674417E+03 0.  0.
         24    2    3    3    0    0 -0.24204703253E+02 -0.41234050429E+01 -0.20330969854E+03  0.21992378899E+03  0.80179606605E+02 0.  0.
         -6    2    1    2    0  502  0.20430221209E+02 -0.81104525080E+02  0.27293323260E+02  0.19296947727E+03  0.17174677795E+03 0.  0.
        -24    2    5    5    0    0 -0.53107990274E+02 -0.24029743555E+02  0.32537189553E+02  0.99615380582E+02  0.73936919995E+02 0.  0.
          5    1    3    3  501    0  0.37744820439E+01  0.85227930122E+02 -0.55498161781E+02  0.10188318187E+03  0.47000000000E+01 0. -1.
        -13    1    4    4    0    0 -0.52111303386E+02  0.61920339176E+01 -0.10793479305E+03  0.12001603549E+03  0.00000000000E+00 0.  1.
         14    1    4    4    0    0  0.27906600133E+02 -0.10315438960E+02 -0.95374905495E+02  0.99907753504E+02  0.00000000000E+00 0. -1.
         -5    1    5    5    0  502  0.73538211484E+02 -0.57074781525E+02 -0.52438662924E+01  0.93354096686E+02  0.47000000000E+01 0.  1.
         13    1    6    6    0    0 -0.44649753903E+02 -0.46041870605E+02  0.39129029624E+02  0.75130122665E+02  0.00000000000E+00 0. -1.
        -14    1    6    6    0    0 -0.84582363715E+01  0.22012127050E+02 -0.65918400709E+01  0.24485257918E+02  0.00000000000E+00 0.  1.
</event>
<event>
12    1  0.8313893E-002  0.1896076E+03  0.7818608E-02  0.1159018E+00
         21   -1    0    0  501  502  0.00000000000E+00  0.00000000000E+00  0.95932849284E+02  0.95932849284E+02  0.00000000000E+00 0. -1.
         21   -1    0    0  502  503 -0.00000000000E+00 -0.00000000000E+00 -0.37942261988E+03  0.37942261988E+03  0.00000000000E+00 0. -1.
         -6    2    1    2    0  503 -0.43393969283E+01  0.78861261071E+02 -0.11046824575E+03  0.21866987620E+03  0.17139239357E+03 0.  0.
        -24    2    3    3    0    0 -0.39718562320E+02  0.10940508499E+02 -0.13348966691E+02  0.94899288662E+02  0.84441821143E+02 0.  0.
          6    2    1    2  501    0  0.43393969283E+01 -0.78861261071E+02 -0.17302152485E+03  0.25668559297E+03  0.17237493064E+03 0.  0.
         24    2    5    5    0    0 -0.37545925927E+01 -0.28750755260E+02 -0.18550860286E+03  0.20420138033E+03  0.80274897080E+02 0.  0.
          5    1    5    5  501    0  0.80939895210E+01 -0.50110505811E+02  0.12487078010E+02  0.52484212638E+02  0.47000000000E+01 0. -1.
        -11    1    6    6    0    0 -0.41974379881E+02 -0.15389407440E+02 -0.91163891934E+02  0.10153589326E+03  0.00000000000E+00 0.  1.
         12    1    6    6    0    0  0.38219787289E+02 -0.13361347820E+02 -0.94344710924E+02  0.10266548707E+03  0.00000000000E+00 0. -1.
         -5    1    3    3    0  503  0.35379165391E+02  0.67920752572E+02 -0.97119279062E+02  0.12377058754E+03  0.47000000000E+01 0.  1.
         13    1    4    4    0    0  0.13876951680E+02  0.33095533275E+02 -0.69409187861E+01  0.36552160870E+02  0.00000000000E+00 0. -1.
        -14    1    4    4    0    0 -0.53595514000E+02 -0.22155024775E+02 -0.64080479048E+01  0.58347127792E+02  0.00000000000E+00 0.  1.
</event>
<event>
12    1  0.8313893E-002  0.2243087E+03  0.7818608E-02  0.1130906E+00
         21   -1    0    0  501  502  0.00000000000E+00  0.00000000000E+00  0.57982040538E+03  0.57982040538E+03  0.00000000000E+00 0. -1.
         21   -1    0    0  502  503 -0.00000000000E+00 -0.00000000000E+00 -0.14219140985E+03  0.14219140985E+03  0.00000000000E+00 0.  1.
         -6    2    1    2    0  503 -0.12981057500E+03 -0.64068335311E+02 -0.70765571122E+01  0.22442028211E+03  0.17134423945E+03 0.  0.
        -24    2    3    3    0    0 -0.76952371632E+01 -0.34347424987E+02 -0.39571991055E+02  0.94522124034E+02  0.78291296947E+02 0.  0.
          6    2    1    2  501    0  0.12981057500E+03  0.64068335311E+02  0.44470555263E+03  0.49759153312E+03  0.16993754239E+03 0.  0.
         24    2    5    5    0    0  0.13998583962E+03  0.35939623458E+02  0.24364421384E+03  0.29426295077E+03  0.79627190274E+02 0.  0.
          5    1    5    5  501    0 -0.10175264620E+02  0.28128711852E+02  0.20106133879E+03  0.20332858234E+03  0.47000000000E+01 0. -1.
        -11    1    6    6    0    0  0.80099352930E+02 -0.20253784553E+02  0.13055374052E+03  0.15450048962E+03  0.00000000000E+00 0.  1.
         12    1    6    6    0    0  0.59886486687E+02  0.56193408011E+02  0.11309047332E+03  0.13976246116E+03  0.00000000000E+00 0. -1.
         -5    1    3    3    0  503 -0.12211533783E+03 -0.29720910324E+02  0.32495433943E+02  0.12989815808E+03  0.47000000000E+01 0.  1.
         13    1    4    4    0    0  0.24093673611E+01  0.11350554475E+02  0.17323505806E+02  0.20850515374E+02  0.00000000000E+00 0. -1.
        -14    1    4    4    0    0 -0.10104604524E+02 -0.45697979462E+02 -0.56895496861E+02  0.73671608659E+02  0.00000000000E+00 0.  1.
</event>
<event>
12    1  0.8313893E-002  0.2898867E+03  0.7818608E-02  0.1090592E+00
         21   -1    0    0  503  502  0.00000000000E+00  0.00000000000E+00  0.15607527484E+03  0.15607527484E+03  0.00000000000E+00 0. -1.
         21   -1    0    0  501  503 -0.00000000000E+00 -0.00000000000E+00 -0.56447051214E+03  0.56447051214E+03  0.00000000000E+00 0.  1.
          6    2    1    2  501    0  0.23352828820E+03 -0.49736851695E+01 -0.28489134248E+03  0.40544655006E+03  0.16930336382E+03 0.  0.
         24    2    3    3    0    0  0.14134095646E+03 -0.66168437335E+02 -0.15165147948E+03  0.23218878568E+03  0.80981065033E+02 0.  0.
         -6    2    1    2    0  502 -0.23352828820E+03  0.49736851695E+01 -0.12350389482E+03  0.31509923692E+03  0.17168027882E+03 0.  0.
        -24    2    5    5    0    0 -0.13817351750E+03 -0.55216403536E+02 -0.10685827605E+03  0.20101792514E+03  0.82757132065E+02 0.  0.
          5    1    3    3  501    0  0.92187331745E+02  0.61194752165E+02 -0.13323986300E+03  0.17325776438E+03  0.47000000000E+01 0. -1.
        -11    1    4    4    0    0  0.96950457376E+02 -0.19912690769E+02 -0.13229417167E+03  0.16522001785E+03  0.00000000000E+00 0.  1.
         12    1    4    4    0    0  0.44390499081E+02 -0.46255746566E+02 -0.19357307809E+02  0.66968767830E+02  0.00000000000E+00 0. -1.
         -5    1    5    5    0  502 -0.95354770700E+02  0.60190088705E+02 -0.16645618769E+02  0.11408131178E+03  0.47000000000E+01 0.  1.
         13    1    6    6    0    0 -0.50711405025E+02  0.19343625256E+02 -0.24060434129E+02  0.59369410711E+02  0.00000000000E+00 0. -1.
        -14    1    6    6    0    0 -0.87462112477E+02 -0.74560028791E+02 -0.82797841926E+02  0.14164851443E+03  0.00000000000E+00 0.  1.
</event>
<event>
12    1  0.8313893E-002  0.1908635E+03  0.7818608E-02  0.1157779E+00
         21   -1    0    0  503  502  0.00000000000E+00  0.00000000000E+00  0.20450108090E+03  0.20450108090E+03  0.00000000000E+00 0.  1.
         21   -1    0    0  501  503 -0.00000000000E+00 -0.00000000000E+00 -0.23799590488E+03  0.23799590488E+03  0.00000000000E+00 0. -1.
          6    2    1    2  501    0 -0.49715905930E+02  0.69235450551E+02  0.94559956475E+02  0.21300341465E+03  0.17077368173E+03 0.  0.
         24    2    3    3    0    0 -0.53081783618E+02  0.54041524937E+02  0.13260199036E+03  0.17163348777E+03  0.78336480051E+02 0.  0.
         -6    2    1    2    0  502  0.49715905930E+02 -0.69235450551E+02 -0.12805478046E+03  0.22949357113E+03  0.17030576466E+03 0.  0.
        -24    2    5    5    0    0  0.11771109542E+02 -0.64159448621E+02 -0.15187971393E+03  0.18415825572E+03  0.81190034977E+02 0.  0.
          5    1    3    3  501    0  0.33658776879E+01  0.15193925614E+02 -0.38042033886E+02  0.41369926883E+02  0.47000000000E+01 0. -1.
        -13    1    4    4    0    0 -0.27173137187E+02  0.51369009599E+02  0.29267901120E+02  0.65067384823E+02  0.00000000000E+00 0.  1.
         14    1    4    4    0    0 -0.25908646431E+02  0.26725153385E+01  0.10333408924E+03  0.10656610295E+03  0.00000000000E+00 0. -1.
         -5    1    5    5    0  502  0.37944796389E+02 -0.50760019306E+01  0.23824933468E+02  0.45335315410E+02  0.47000000000E+01 0.  1.
         11    1    6    6    0    0 -0.29476370419E+02 -0.23422447088E+01 -0.49309709896E+02  0.57495999977E+02  0.00000000000E+00 0. -1.
        -12    1    6    6    0    0  0.41247479960E+02 -0.61817203912E+02 -0.10257000403E+03  0.12666225574E+03  0.00000000000E+00 0.  1.
</event>
<event>
12    1  0.8313893E-002  0.2243874E+03  0.7818608E-02  0.1131167E+00
         21   -1    0    0  501  502  0.00000000000E+00  0.00000000000E+00  0.10624120306E+04  0.10624120306E+04  0.00000000000E+00 0. -1.
         21   -1    0    0  502  503 -0.00000000000E+00 -0.00000000000E+00 -0.46901243684E+02  0.46901243684E+02  0.00000000000E+00 0.  1.
         -6    2    1    2    0  503  0.12737334263E+03 -0.67952223011E+02  0.48530637045E+03  0.53466999076E+03  0.17177966350E+03 0.  0.
        -24    2    3    3    0    0  0.92671734405E+02 -0.95280165364E+02  0.45660098058E+03  0.48178230358E+03  0.77222874273E+02 0.  0.
          6    2    1    2  501    0 -0.12737334263E+03  0.67952223011E+02  0.53020441643E+03  0.57464328349E+03  0.16809731417E+03 0.  0.
         24    2    5    5    0    0 -0.13490707796E+03  0.20843709765E+02  0.47898442813E+03  0.50448954952E+03  0.80307180653E+02 0.  0.
          5    1    5    5  501    0  0.75337353271E+01  0.47108513246E+02  0.51219988296E+02  0.70153733965E+02  0.47000000000E+01 0. -1.
        -11    1    6    6    0    0 -0.90423951085E+01 -0.64138336894E+01  0.31341941470E+01  0.11520648630E+02  0.00000000000E+00 0.  1.
         12    1    6    6    0    0 -0.12586468285E+03  0.27257543455E+02  0.47585023399E+03  0.49296890089E+03  0.00000000000E+00 0. -1.
         -5    1    3    3    0  503  0.34701608230E+02  0.27327942353E+02  0.28705389871E+02  0.52887687174E+02  0.47000000000E+01 0.  1.
         11    1    4    4    0    0  0.41666485612E+02 -0.14160263973E+02  0.25250824256E+03  0.25631430248E+03  0.00000000000E+00 0. -1.
        -12    1    4    4    0    0  0.51005248794E+02 -0.81119901391E+02  0.20409273802E+03  0.22546800110E+03  0.00000000000E+00 0.  1.
</event>
<event>
12    1  0.8313893E-002  0.1787827E+03  0.7818608E-02  0.1169603E+00
         21   -1    0    0  501  502  0.00000000000E+00  0.00000000000E+00  0.63660261021E+03  0.63660261021E+03  0.00000000000E+00 0.  1.
         21   -1    0    0  502  503 -0.00000000000E+00 -0.00000000000E+00 -0.55901546908E+02  0.55901546908E+02  0.00000000000E+00 0.  1.
         -6    2    1    2    0  503 -0.36917872601E+02  0.11642437966E+02  0.40926966539E+03  0.44661496078E+03  0.17454165262E+03 0.  0.
        -24    2    3    3    0    0 -0.13457144998E+02  0.18138451281E+02  0.80551618125E+02  0.11696325287E+03  0.81741918087E+02 0.  0.
          6    2    1    2  501    0  0.36917872601E+02 -0.11642437966E+02  0.17143139791E+03  0.24588919634E+03  0.17197179132E+03 0.  0.
         24    2    5    5    0    0  0.36829826159E+02 -0.72537863730E+02  0.10286456534E+03  0.15406457459E+03  0.80849221215E+02 0.  0.
          5    1    5    5  501    0  0.88046442016E-01  0.60895425765E+02  0.68566832575E+02  0.91824621755E+02  0.47000000000E+01 0. -1.
        -13    1    6    6    0    0  0.47646324116E+02 -0.14165246911E+02  0.23579047648E+02  0.55016342207E+02  0.00000000000E+00 0.  1.
         14    1    6    6    0    0 -0.10816497957E+02 -0.58372616819E+02  0.79285517688E+02  0.99048232379E+02  0.00000000000E+00 0. -1.
         -5    1    3    3    0  503 -0.23460727603E+02 -0.64960133150E+01  0.32871804726E+03  0.32965170791E+03  0.47000000000E+01 0.  1.
         13    1    4    4    0    0  0.24032446169E+02  0.35337349709E+02  0.49103179371E+02  0.65095383689E+02  0.00000000000E+00 0. -1.
        -14    1    4    4    0    0 -0.37489591168E+02 -0.17198898428E+02  0.31448438754E+02  0.51867869179E+02  0.00000000000E+00 0.  1.
</event>
<event>
12    1  0.8313893E-002  0.2950217E+03  0.7818608E-02  0.1087793E+00
         21   -1    0    0  501  502  0.00000000000E+00  0.00000000000E+00  0.44211903536E+03  0.44211903536E+03  0.00000000000E+00 0.  1.
         21   -1    0    0  502  503 -0.00000000000E+00 -0.00000000000E+00 -0.41231179533E+03  0.41231179533E+03  0.00000000000E+00 0. -1.
         -6    2    1    2    0  503  0.20616012664E+03  0.12094042861E+03 -0.29404951096E+03  0.41653683485E+03  0.17294286571E+03 0.  0.
        -24    2    3    3    0    0  0.31666032452E+02  0.26753335734E+02 -0.13654751534E+03  0.16326155774E+03  0.79313515268E+02 0.  0.
          6    2    1    2  501    0 -0.20616012664E+03 -0.12094042861E+03  0.32385675099E+03  0.43789399585E+03  0.17245106945E+03 0.  0.
         24    2    5    5    0    0 -0.99716654636E+02  0.29053202203E+01  0.11625625338E+03  0.17371973737E+03  0.81921783459E+02 0.  0.
          5    1    5    5  501    0 -0.10644347200E+03 -0.12384574883E+03  0.20760049761E+03  0.26417425848E+03  0.47000000000E+01 0. -1.
        -11    1    6    6    0    0 -0.24208460810E+01 -0.23099608100E+02  0.44051179492E+02  0.49799184780E+02  0.00000000000E+00 0.  1.
         12    1    6    6    0    0 -0.97295808555E+02  0.26004928320E+02  0.72205073883E+02  0.12392055259E+03  0.00000000000E+00 0. -1.
         -5    1    3    3    0  503  0.17449409419E+03  0.94187092879E+02 -0.15750199562E+03  0.25327527711E+03  0.47000000000E+01 0.  1.
         13    1    4    4    0    0 -0.23229225930E+02  0.15205685321E+02 -0.20980770719E+02  0.34799461826E+02  0.00000000000E+00 0. -1.
        -14    1    4    4    0    0  0.54895258382E+02  0.11547650413E+02 -0.11556674462E+03  0.12846209591E+03  0.00000000000E+00 0.  1.
</event>
<event>
12    1  0.8313893E-002  0.2549967E+03  0.7818608E-02  0.1110276E+00
         21   -1    0    0  501  502  0.00000000000E+00  0.00000000000E+00  0.25840933809E+03  0.25840933809E+03  0.00000000000E+00 0. -1.
         21   -1    0    0  502  503 -0.00000000000E+00 -0.00000000000E+00 -0.48385367746E+03  0.48385367746E+03  0.00000000000E+00 0.  1.
         -6    2    1    2    0  503 -0.12711505720E+03 -0.13850475420E+03 -0.37021644198E+03  0.44953699444E+03  0.17228317025E+03 0.  0.
        -24    2    3    3    0    0 -0.64696495711E+01 -0.85488595833E+02 -0.21994376826E+03  0.24961202377E+03  0.81121790107E+02 0.  0.
          6    2    1    2  501    0  0.12711505720E+03  0.13850475420E+03  0.14477210261E+03  0.29272602112E+03  0.17142857710E+03 0.  0.
         24    2    5    5    0    0  0.11393624747E+03  0.12860011954E+03  0.49283775020E+02  0.19571110722E+03  0.79715041086E+02 0.  0.
          5    1    5    5  501    0  0.13178809730E+02  0.99046346590E+01  0.95488327593E+02  0.97014913906E+02  0.47000000000E+01 0. -1.
        -11    1    6    6    0    0  0.96115479650E+02  0.84367527195E+02  0.67562912053E+02  0.14464028539E+03  0.00000000000E+00 0.  1.
         12    1    6    6    0    0  0.17820767817E+02  0.44232592343E+02 -0.18279137034E+02  0.51070821823E+02  0.00000000000E+00 0. -1.
         -5    1    3    3    0  503 -0.12064540763E+03 -0.53016158364E+02 -0.15027267372E+03  0.19992497067E+03  0.47000000000E+01 0.  1.
         13    1    4    4    0    0 -0.24451644565E+02 -0.72721293486E+01 -0.15187978872E+02  0.29689080306E+02  0.00000000000E+00 0. -1.
        -14    1    4    4    0    0  0.17981994994E+02 -0.78216466484E+02 -0.20475578939E+03  0.21992294347E+03  0.00000000000E+00 0.  1.
</event>
<event>
12    1  0.8313893E-002  0.1947315E+03  0.7818608E-02  0.1154705E+00
         21   -1    0    0  503  502  0.00000000000E+00  0.00000000000E+00  0.30973173686E+03  0.30973173686E+03  0.00000000000E+00 0.  1.
         21   -1    0    0  501  503 -0.00000000000E+00 -0.00000000000E+00 -0.14299758569E+03  0.14299758569E+03  0.00000000000E+00 0.  1.
          6    2    1    2  501    0  0.84281337325E+02  0.19512116102E+02 -0.54485521924E+01  0.19279234789E+03  0.17220666709E+03 0.  0.
         24    2    3    3    0    0  0.54586384123E+02 -0.51298967155E+02 -0.26982870988E+02  0.11290607471E+03  0.80052788934E+02 0.  0.
         -6    2    1    2    0  502 -0.84281337325E+02 -0.19512116102E+02  0.17218270336E+03  0.25993697466E+03  0.17445996951E+03 0.  0.
        -24    2    5    5    0    0 -0.47491352335E+02 -0.80440852548E+02  0.99282752053E+02  0.15794527489E+03  0.79771459180E+02 0.  0.
          5    1    3    3  501    0  0.29694953201E+02  0.70811083257E+02  0.21534318796E+02  0.79886273186E+02  0.47000000000E+01 0. -1.
        -13    1    4    4    0    0 -0.19770107125E+02 -0.14803508265E+02  0.28617245571E+01  0.24863436209E+02  0.00000000000E+00 0.  1.
         14    1    4    4    0    0  0.74356491248E+02 -0.36495458890E+02 -0.29844595545E+02  0.88042638498E+02  0.00000000000E+00 0. -1.
         -5    1    5    5    0  502 -0.36789984989E+02  0.60928736446E+02  0.72899951309E+02  0.10199169977E+03  0.47000000000E+01 0.  1.
         13    1    6    6    0    0 -0.55042723609E+02 -0.15464634683E+02  0.51367547837E+02  0.76860141289E+02  0.00000000000E+00 0. -1.
        -14    1    6    6    0    0  0.75513712737E+01 -0.64976217865E+02  0.47915204216E+02  0.81085133601E+02  0.00000000000E+00 0.  1.
</event>
<event>
12    1  0.8313893E-002  0.1961777E+03  0.7818608E-02  0.1153432E+00
         21   -1    0    0  503  502  0.00000000000E+00  0.00000000000E+00  0.11035630000E+03  0.11035630000E+03  0.00000000000E+00 0.  1.
         21   -1    0    0  501  503 -0.00000000000E+00 -0.00000000000E+00 -0.50654503917E+03  0.50654503917E+03  0.00000000000E+00 0.  1.
          6    2    1    2  501    0  0.76025671423E+02  0.57811863251E+02 -0.37282613323E+03  0.42128969396E+03  0.17135800644E+03 0.  0.
         24    2    3    3    0    0  0.11145299213E+03  0.21634925421E+02 -0.31409697882E+03  0.34360398446E+03  0.80727607304E+02 0.  0.
         -6    2    1    2    0  502 -0.76025671423E+02 -0.57811863251E+02 -0.23362605943E+02  0.19561164520E+03  0.16910348942E+03 0.  0.
        -24    2    5    5    0    0 -0.19117089557E+02 -0.19337273851E+02 -0.73535032847E+02  0.11041632173E+03  0.77749403703E+02 0.  0.
          5    1    3    3  501    0 -0.35427320705E+02  0.36176937830E+02 -0.58729154407E+02  0.77685709499E+02  0.47000000000E+01 0. -1.
        -11    1    4    4    0    0  0.64699987541E+02 -0.18026693376E+02 -0.22950282036E+03  0.23912882430E+03  0.00000000000E+00 0.  1.
         12    1    4    4    0    0  0.46753004587E+02  0.39661618797E+02 -0.84594158467E+02  0.10447516016E+03  0.00000000000E+00 0. -1.
         -5    1    5    5    0  502 -0.56908581866E+02 -0.38474589400E+02  0.50172426904E+02  0.85195323468E+02  0.47000000000E+01 0.  1.
         11    1    6    6    0    0 -0.48875285131E+02 -0.16641731480E+02 -0.38717142508E+02  0.64534935091E+02  0.00000000000E+00 0. -1.
        -12    1    6    6    0    0  0.29758195574E+02 -0.26955423710E+01 -0.34817890339E+02  0.45881386642E+02  0.00000000000E+00 0.  1.
</event>
<event>
12    1  0.8313893E-002  0.1816434E+03  0.7818608E-02  0.1166530E+00
         21   -1    0    0  503  502  0.00000000000E+00  0.00000000000E+00  0.15584312153E+03  0.15584312153E+03  0.00000000000E+00 0. -1.
         21   -1    0    0  501  503 -0.00000000000E+00 -0.00000000000E+00 -0.28140000873E+03  0.28140000873E+03  0.00000000000E+00 0. -1.
          6    2    1    2  501    0 -0.46423311787E+02 -0.34227583524E+02  0.47338720204E+02  0.18646986046E+03  0.17089003212E+03 0.  0.
         24    2    3    3    0    0 -0.12423609158E+02  0.34388712137E+02 -0.13199453202E+02  0.88739945652E+02  0.79772318523E+02 0.  0.
         -6    2    1    2    0  502  0.46423311787E+02  0.34227583524E+02 -0.17289560740E+03  0.25077326980E+03  0.17224311433E+03 0.  0.
        -24    2    5    5    0    0 -0.34651070470E+01 -0.37949218412E+02 -0.11882245800E+03  0.14760185632E+03  0.78837689727E+02 0.  0.
          5    1    3    3  501    0 -0.33999702629E+02 -0.68616295660E+02  0.60538173406E+02  0.97729914808E+02  0.47000000000E+01 0. -1.
        -13    1    4    4    0    0 -0.34578310061E+02  0.56074542456E+01 -0.32347603648E+02  0.47680924190E+02  0.00000000000E+00 0.  1.
         14    1    4    4    0    0  0.22154700903E+02  0.28781257891E+02  0.19148150447E+02  0.41059021462E+02  0.00000000000E+00 0. -1.
         -5    1    5    5    0  502  0.49888418834E+02  0.72176801935E+02 -0.54073149404E+02  0.10317141347E+03  0.47000000000E+01 0.  1.
         13    1    6    6    0    0  0.22779531475E+02  0.32389302957E+01 -0.85340950420E+02  0.88388209294E+02  0.00000000000E+00 0. -1.
        -14    1    6    6    0    0 -0.26244638522E+02 -0.41188148708E+02 -0.33481507575E+02  0.59213647030E+02  0.00000000000E+00 0.  1.
</event>
<event>
12    1  0.8313893E-002  0.2042235E+03  0.7818608E-02  0.1146788E+00
         21   -1    0    0  501  502  0.00000000000E+00  0.00000000000E+00  0.19527986920E+03  0.19527986920E+03  0.00000000000E+00 0.  1.
         21   -1    0    0  502  503 -0.00000000000E+00 -0.00000000000E+00 -0.34860923636E+03  0.34860923636E+03  0.00000000000E+00 0. -1.
         -6    2    1    2    0  503 -0.63225718829E+02 -0.82693626813E+02  0.94044667339E+02  0.22483693088E+03  0.17570292712E+03 0.  0.
        -24    2    3    3    0    0  0.19327243997E+02 -0.69297130756E+01  0.27548319104E+01  0.80230270079E+02  0.77509637171E+02 0.  0.
          6    2    1    2  501    0  0.63225718829E+02  0.82693626813E+02 -0.24737403450E+03  0.31905217467E+03  0.17252434547E+03 0.  0.
         24    2    5    5    0    0  0.42507859715E+02  0.22160348359E+02 -0.37314717758E+02  0.99414941858E+02  0.78695256061E+02 0.  0.
          5    1    5    5  501    0  0.20717859115E+02  0.60533278454E+02 -0.21005931675E+03  0.21963723282E+03  0.47000000000E+01 0. -1.
        -13    1    6    6    0    0  0.46993191894E+02 -0.18362696479E+02 -0.13621635676E+02  0.52259904946E+02  0.00000000000E+00 0.  1.
         14    1    6    6    0    0 -0.44853321798E+01  0.40523044838E+02 -0.23693082081E+02  0.47155036913E+02  0.00000000000E+00 0. -1.
         -5    1    3    3    0  503 -0.82552962827E+02 -0.75763913738E+02  0.91289835429E+02  0.14460666080E+03  0.47000000000E+01 0.  1.
         11    1    4    4    0    0  0.39570246571E+02  0.50668217599E+01  0.25626797781E+02  0.47415291425E+02  0.00000000000E+00 0. -1.
        -12    1    4    4    0    0 -0.20243002574E+02 -0.11996534835E+02 -0.22871965871E+02  0.32814978654E+02  0.00000000000E+00 0.  1.
</event>
<event>
12    1  0.8313893E-002  0.1997472E+03  0.7818608E-02  0.1150183E+00
         21   -1    0    0  503  502  0.00000000000E+00  0.00000000000E+00  0.65666517090E+03  0.65666517090E+03  0.00000000000E+00 0. -1.
         21   -1    0    0  501  503 -0.00000000000E+00 -0.00000000000E+00 -0.92933126985E+02  0.92933126985E+02  0.00000000000E+00 0. -1.
          6    2    1    2  501    0  0.30822159746E+02 -0.94436079707E+02  0.60710386128E+02  0.20876947200E+03  0.17329386248E+03 0.  0.
         24    2    3    3    0    0  0.58339531814E+02 -0.10129438237E+03 -0.81693065125E+00  0.14085818581E+03  0.78589492065E+02 0.  0.
         -6    2    1    2    0  502 -0.30822159746E+02  0.94436079707E+02  0.50302165778E+03  0.54082882589E+03  0.17203735649E+03 0.  0.
        -24    2    5    5    0    0  0.14586844238E+02  0.64757742300E+02  0.12479790769E+03  0.15870570896E+03  0.72157072281E+02 0.  0.
          5    1    3    3  501    0 -0.27517372068E+02  0.68583026610E+01  0.61527316780E+02  0.67911286183E+02  0.47000000000E+01 0. -1.
        -11    1    4    4    0    0  0.62247228943E+02 -0.30742511103E+02  0.69531694055E+01  0.69772244230E+02  0.00000000000E+00 0.  1.
         12    1    4    4    0    0 -0.39076971288E+01 -0.70551871265E+02 -0.77701000567E+01  0.71085941583E+02  0.00000000000E+00 0. -1.
         -5    1    5    5    0  502 -0.45409003984E+02  0.29678337407E+02  0.37822375010E+03  0.38212311693E+03  0.47000000000E+01 0.  1.
         11    1    6    6    0    0 -0.10472398552E+02  0.39339018579E+02  0.15220747630E+02  0.43461484934E+02  0.00000000000E+00 0. -1.
        -12    1    6    6    0    0  0.25059242790E+02  0.25418723721E+02  0.10957716006E+03  0.11524422402E+03  0.00000000000E+00 0.  1.
</event>
<event>
12    1  0.8313893E-002  0.1937825E+03  0.7818608E-02  0.1155260E+00
         21   -1    0    0  501  502  0.00000000000E+00  0.00000000000E+00  0.88518226735E+02  0.88518226735E+02  0.00000000000E+00 0.  1.
         21   -1    0    0  502  503 -0.00000000000E+00 -0.00000000000E+00 -0.57071168523E+03  0.57071168523E+03  0.00000000000E+00 0.  1.
         -6    2    1    2    0  503 -0.16890283752E+02 -0.87323654857E+02 -0.72815109672E+02  0.20630355680E+03  0.17131379094E+03 0.  0.
        -24    2    3    3    0    0 -0.51207670989E+01 -0.11564888778E+03 -0.15364925758E+02  0.14100842701E+03  0.79034220717E+02 0.  0.
          6    2    1    2  501    0  0.16890283752E+02  0.87323654857E+02 -0.40937834882E+03  0.45292635516E+03  0.17216546790E+03 0.  0.
         24    2    5    5    0    0 -0.23076389488E+02  0.40189624138E+02 -0.36593546884E+03  0.37724065214E+03  0.79082340825E+02 0.  0.
          5    1    5    5  501    0  0.39966673240E+02  0.47134030718E+02 -0.43442879982E+02  0.75685703028E+02  0.47000000000E+01 0. -1.
        -13    1    6    6    0    0  0.13741693221E+02  0.46071669124E+02 -0.13479460616E+03  0.14311190963E+03  0.00000000000E+00 0.  1.
         14    1    6    6    0    0 -0.36818082709E+02 -0.58820449854E+01 -0.23114086268E+03  0.23412874251E+03  0.00000000000E+00 0. -1.
         -5    1    3    3    0  503 -0.11769516653E+02  0.28325232921E+02 -0.57450183914E+02  0.65295129788E+02  0.47000000000E+01 0.  1.
         11    1    4    4    0    0 -0.30963362328E+01 -0.11218407798E+03 -0.37643124873E+02  0.11837170059E+03  0.00000000000E+00 0. -1.
        -12    1    4    4    0    0 -0.20244308661E+01 -0.34648097982E+01  0.22278199114E+02  0.22636726421E+02  0.00000000000E+00 0.  1.
</event>
<event>
12    1  0.8313893E-002  0.1996200E+03  0.7818608E-02  0.1150201E+00
         21   -1    0    0  501  502  0.00000000000E+00  0.00000000000E+00  0.10095437807E+04  0.10095437807E+04  0.00000000000E+00 0. -1.
         21   -1    0    0  502  503 -0.00000000000E+00 -0.00000000000E+00 -0.60302592804E+02  0.60302592804E+02  0.00000000000E+00 0. -1.
         -6    2    1    2    0  503 -0.44972539749E+02 -0.87242831945E+02  0.15974781998E+03  0.25567069015E+03  0.17382259565E+03 0.  0.
        -24    2    3    3    0    0  0.12679012045E+02 -0.10311325275E+03  0.58188438770E+02  0.13772167747E+03  0.69197296179E+02 0.  0.
          6    2    1    2  501    0  0.44972539749E+02  0.87242831945E+02  0.78949336793E+03  0.81417568337E+03  0.17305613056E+03 0.  0.
         24    2    5    5    0    0 -0.12316623583E+02 -0.44012628755E+01  0.47404935855E+03  0.48069749606E+03  0.78588918132E+02 0.  0.
          5    1    5    5  501    0  0.57289163332E+02  0.91644094820E+02  0.31544400938E+03  0.33347818730E+03  0.47000000000E+01 0. -1.
        -11    1    6    6    0    0  0.21269477594E+02 -0.92379758205E+01  0.48092356465E+02  0.53391063154E+02  0.00000000000E+00 0.  1.
         12    1    6    6    0    0 -0.33586101177E+02  0.48367129450E+01  0.42595700208E+03  0.42730643291E+03  0.00000000000E+00 0. -1.
         -5    1    3    3    0  503 -0.57651551794E+02  0.15870420809E+02  0.10155938121E+03  0.11794901268E+03  0.47000000000E+01 0.  1.
         11    1    4    4    0    0 -0.17122324048E+02 -0.48458272279E+02 -0.15853249563E+01  0.51418784391E+02  0.00000000000E+00 0. -1.
        -12    1    4    4    0    0  0.29801336092E+02 -0.54654980474E+02  0.59773763726E+02  0.86302893078E+02  0.00000000000E+00 0.  1.
</event>
<event>
12    1  0.8313893E-002  0.2161748E+03  0.7818608E-02  0.1136786E+00
         21   -1    0    0  503  502  0.00000000000E+00  0.00000000000E+00  0.33240595665E+03  0.33240595665E+03  0.00000000000E+00 0. -1.
         21   -1    0    0  501  503 -0.00000000000E+00 -0.00000000000E+00 -0.14131604126E+03  0.14131604126E+03  0.00000000000E+00 0. -1.
          6    2    1    2  501    0 -0.11286724971E+03 -0.69092503284E+02  0.77806001945E+02  0.22975052425E+03  0.17093489810E+03 0.  0.
         24    2    3    3    0    0 -0.14563277128E+02 -0.51488848293E+02  0.85716169814E+02  0.12945984447E+03  0.80928357357E+02 0.  0.
         -6    2    1    2    0  502  0.11286724971E+03  0.69092503284E+02  0.11328391344E+03  0.24397147365E+03  0.17080996704E+03 0.  0.
        -24    2    5    5    0    0  0.58428054281E+02  0.10431638256E+03  0.10667909988E+03  0.17862576811E+03  0.78936616881E+02 0.  0.
          5    1    3    3  501    0 -0.98303972583E+02 -0.17603654990E+02 -0.79101678691E+01  0.10029067978E+03  0.47000000000E+01 0. -1.
        -11    1    4    4    0    0  0.16838511749E+02  0.15183428447E+02  0.26822404896E+02  0.35121409165E+02  0.00000000000E+00 0.  1.
         12    1    4    4    0    0 -0.31401788877E+02 -0.66672276740E+02  0.58893764919E+02  0.94338435310E+02  0.00000000000E+00 0. -1.
         -5    1    5    5    0  502  0.54439195430E+02 -0.35223879275E+02  0.66048135693E+01  0.65345705540E+02  0.47000000000E+01 0.  1.
         11    1    6    6    0    0  0.70077196510E+02  0.51486040356E+02  0.50158009274E+02  0.10038651163E+03  0.00000000000E+00 0. -1.
        -12    1    6    6    0    0 -0.11649142229E+02  0.52830342203E+02  0.56521090601E+02  0.78239256481E+02  0.00000000000E+00 0.  1.
</event>
<event>
12    1  0.8313893E-002  0.1749981E+03  0.7818608E-02  0.1172785E+00
         21   -1    0    0  501  502  0.00000000000E+00  0.00000000000E+00  0.96634469893E+02  0.96634469893E+02  0.00000000000E+00 0. -1.
         21   -1    0    0  502  503 -0.00000000000E+00 -0.00000000000E+00 -0.34317362016E+03  0.34317362016E+03  0.00000000000E+00 0. -1.
         -6    2    1    2    0  503 -0.31892396258E+02 -0.35143780728E+01 -0.18459955929E+03  0.25436457127E+03  0.17203157279E+03 0.  0.
        -24    2    3    3    0    0 -0.60794697757E+02  0.42886698851E+02 -0.77144602257E+02  0.13371192620E+03  0.79952018969E+02 0.  0.
          6    2    1    2  501    0  0.31892396258E+02  0.35143780728E+01 -0.61939590979E+02  0.18544351878E+03  0.17182348482E+03 0.  0.
         24    2    5    5    0    0 -0.45468414189E+02 -0.14507232731E+02 -0.45266342483E+02  0.10414431421E+03  0.80741314888E+02 0.  0.
          5    1    5    5  501    0  0.77360810447E+02  0.18021610803E+02 -0.16673248497E+02  0.81299204574E+02  0.47000000000E+01 0. -1.
        -13    1    6    6    0    0 -0.26747745867E+02  0.29815922383E+02 -0.38497211659E+02  0.55555975754E+02  0.00000000000E+00 0.  1.
         14    1    6    6    0    0 -0.18720668322E+02 -0.44323155114E+02 -0.67691308239E+01  0.48588338454E+02  0.00000000000E+00 0. -1.
         -5    1    3    3    0  503  0.28902301499E+02 -0.46401076924E+02 -0.10745495703E+03  0.12065264507E+03  0.47000000000E+01 0.  1.
         11    1    4    4    0    0 -0.34298428490E+02  0.34729327482E+02 -0.90587627591E+02  0.10290105275E+03  0.00000000000E+00 0. -1.
        -12    1    4    4    0    0 -0.26496269267E+02  0.81573713695E+01  0.13443025334E+02  0.30810873452E+02  0.00000000000E+00 0.  1.
</event>
<event>
12    1  0.8313893E-002  0.2080915E+03  0.7818608E-02  0.1143790E+00
         21   -1    0    0  501  502  0.00000000000E+00  0.00000000000E+00  0.64364357967E+03  0.64364357967E+03  0.00000000000E+00 0. -1.
         21   -1    0    0  502  503 -0.00000000000E+00 -0.00000000000E+00 -0.66844693049E+02  0.66844693049E+02  0.00000000000E+00 0. -1.
         -6    2    1    2    0  503  0.75211890908E+02 -0.91018559120E+02  0.32204161194E+03  0.38154548066E+03  0.16710759216E+03 0.  0.
        -24    2    3    3    0    0  0.83612653876E+02  0.20879190972E+01  0.17540484891E+03  0.20758048598E+03  0.72988778893E+02 0.  0.
          6    2    1    2  501    0 -0.75211890908E+02  0.91018559120E+02  0.25475727468E+03  0.32894279205E+03  0.17135018180E+03 0.  0.
         24    2    5    5    0    0 -0.65804171022E+02  0.12602445286E+03  0.23909352425E+03  0.28917646374E+03  0.79025073256E+02 0.  0.
          5    1    5    5  501    0 -0.94077198860E+01 -0.35005893736E+02  0.15663750434E+02  0.39766328312E+02  0.47000000000E+01 0. -1.
        -11    1    6    6    0    0  0.10384858537E+02  0.44196077351E+02  0.38492769332E+02  0.59521692104E+02  0.00000000000E+00 0.  1.
         12    1    6    6    0    0 -0.76189029559E+02  0.81828375505E+02  0.20060075492E+03  0.22965477164E+03  0.00000000000E+00 0. -1.
         -5    1    3    3    0  503 -0.84007629679E+01 -0.93106478217E+02  0.14663676302E+03  0.17396499468E+03  0.47000000000E+01 0.  1.
         13    1    4    4    0    0  0.35011513757E+02 -0.23329321262E+02  0.28620578002E+02  0.50884190190E+02  0.00000000000E+00 0. -1.
        -14    1    4    4    0    0  0.48601140119E+02  0.25417240359E+02  0.14678427091E+03  0.15669629579E+03  0.00000000000E+00 0.  1.
</event>
<event>
12    1  0.8313893E-002  0.2077677E+03  0.7818608E-02  0.1143462E+00
         21   -1    0    0  501  502  0.00000000000E+00  0.00000000000E+00  0.81284026515E+03  0.81284026515E+03  0.00000000000E+00 0. -1.
         21   -1    0    0  502  503 -0.00000000000E+00 -0.00000000000E+00 -0.62818222161E+02  0.62818222161E+02  0.00000000000E+00 0.  1.
         -6    2    1    2    0  503  0.88099144550E+02 -0.75480358633E+02  0.20112377780E+03  0.28875413877E+03  0.17166663872E+03 0.  0.
        -24    2    3    3    0    0  0.93493010451E+02 -0.79395687244E+02  0.22269009639E+03  0.26569725943E+03  0.77198034179E+02 0.  0.
          6    2    1    2  501    0 -0.88099144550E+02  0.75480358633E+02  0.54889826518E+03  0.58690434854E+03  0.17236201727E+03 0.  0.
         24    2    5    5    0    0 -0.73397234328E+02  0.55117242793E+02  0.17500138604E+03  0.21213539453E+03  0.77141921402E+02 0.  0.
          5    1    5    5  501    0 -0.14701910223E+02  0.20363115840E+02  0.37389687915E+03  0.37476895401E+03  0.47000000000E+01 0. -1.
        -11    1    6    6    0    0 -0.64973150656E+02  0.13080119318E+01  0.86017729739E+02  0.10780663723E+03  0.00000000000E+00 0.  1.
         12    1    6    6    0    0 -0.84240836712E+01  0.53809230862E+02  0.88983656297E+02  0.10432875730E+03  0.00000000000E+00 0. -1.
         -5    1    3    3    0  503 -0.53938659009E+01  0.39153286107E+01 -0.21566318590E+02  0.23056879342E+02  0.47000000000E+01 0.  1.
         11    1    4    4    0    0  0.38361744336E+02 -0.54068565738E+02  0.51118863811E+02  0.83714822265E+02  0.00000000000E+00 0. -1.
        -12    1    4    4    0    0  0.55131266115E+02 -0.25327121506E+02  0.17157123258E+03  0.18198243716E+03  0.00000000000E+00 0.  1.
</event>
<event>
12    1  0.8313893E-002  0.2187645E+03  0.7818608E-02  0.1135628E+00
         21   -1    0    0  503  502  0.00000000000E+00  0.00000000000E+00  0.14035204862E+03  0.14035204862E+03  0.00000000000E+00 0.  1.
         21   -1    0    0  501  503 -0.00000000000E+00 -0.00000000000E+00 -0.11665249220E+04  0.11665249220E+04  0.00000000000E+00 0.  1.
          6    2    1    2  501    0  0.41850230216E+01 -0.12538361605E+03 -0.10635408823E+04  0.10849439211E+04  0.17391244386E+03 0.  0.
         24    2    3    3    0    0  0.70317321413E+01 -0.15881253125E+03 -0.94700260766E+03  0.96358142456E+03  0.80027229681E+02 0.  0.
         -6    2    1    2    0  502 -0.41850230216E+01  0.12538361605E+03  0.37368008896E+02  0.22193304948E+03  0.17921870654E+03 0.  0.
        -24    2    5    5    0    0  0.46742910037E+02  0.46638496590E+02  0.52170660689E+02  0.12687697811E+03  0.94952307690E+02 0.  0.
          5    1    3    3  501    0 -0.28467091197E+01  0.33428915202E+02 -0.11653827462E+03  0.12136249658E+03  0.47000000000E+01 0. -1.
        -13    1    4    4    0    0 -0.75558233278E+01 -0.32701896642E+02 -0.42657901308E+03  0.42789736960E+03  0.00000000000E+00 0.  1.
         14    1    4    4    0    0  0.14587555469E+02 -0.12611063461E+03 -0.52042359458E+03  0.53568405495E+03  0.00000000000E+00 0. -1.
         -5    1    5    5    0  502 -0.50927933059E+02  0.78745119459E+02 -0.14802651793E+02  0.95056071370E+02  0.47000000000E+01 0.  1.
         11    1    6    6    0    0  0.66577171994E+02  0.23177709573E+02  0.51164156530E+01  0.70681707399E+02  0.00000000000E+00 0. -1.
        -12    1    6    6    0    0 -0.19834261957E+02  0.23460787016E+02  0.47054245036E+02  0.56195270714E+02  0.00000000000E+00 0.  1.
</event>
<event>
12    1  0.8313893E-002  0.3018070E+03  0.7818608E-02  0.1084718E+00
         21   -1    0    0  501  502  0.00000000000E+00  0.00000000000E+00  0.14847922813E+04  0.14847922813E+04  0.00000000000E+00 0. -1.
         21   -1    0    0  502  503 -0.00000000000E+00 -0.00000000000E+00 -0.15406635701E+03  0.15406635701E+03  0.00000000000E+00 0. -1.
         -6    2    1    2    0  503 -0.26284723229E+01  0.24728483892E+03  0.28901415739E+02  0.30318767740E+03  0.17300513134E+03 0.  0.
        -24    2    3    3    0    0  0.91372442904E+01  0.21976946528E+03  0.77206524877E+02  0.24617012359E+03  0.79099779763E+02 0.  0.
          6    2    1    2  501    0  0.26284723229E+01 -0.24728483892E+03  0.13018245085E+04  0.13356709609E+04  0.16766980743E+03 0.  0.
         24    2    5    5    0    0 -0.26678105257E+02 -0.20615192214E+03  0.76935141790E+03  0.80078735245E+03  0.78412010019E+02 0.  0.
          5    1    5    5  501    0  0.29306577580E+02 -0.41132916782E+02  0.53247309061E+03  0.53488360842E+03  0.47000000000E+01 0. -1.
        -13    1    6    6    0    0  0.13514874703E+02 -0.10401425925E+03  0.27326911390E+03  0.29270740779E+03  0.00000000000E+00 0.  1.
         14    1    6    6    0    0 -0.40192979960E+02 -0.10213766289E+03  0.49608230400E+03  0.50807994465E+03  0.00000000000E+00 0. -1.
         -5    1    3    3    0  503 -0.11765716613E+02  0.27515373633E+02 -0.48305109138E+02  0.57017553810E+02  0.47000000000E+01 0.  1.
         11    1    4    4    0    0  0.38642022771E+02  0.17435661230E+03  0.49405868466E+02  0.18529536966E+03  0.00000000000E+00 0. -1.
        -12    1    4    4    0    0 -0.29504778481E+02  0.45412852982E+02  0.27800656411E+02  0.60874753931E+02  0.00000000000E+00 0.  1.
</event>
<event>
12    1  0.8313893E-002  0.1821352E+03  0.7818608E-02  0.1166274E+00
         21   -1    0    0  501  502  0.00000000000E+00  0.00000000000E+00  0.37887944496E+02  0.37887944496E+02  0.00000000000E+00 0. -1.
         21   -1    0    0  502  503 -0.00000000000E+00 -0.00000000000E+00 -0.11112969537E+04  0.11112969537E+04  0.00000000000E+00 0. -1.
         -6    2    1    2    0  503 -0.53932851492E+02  0.17932447404E+02 -0.80462118626E+03  0.82450026608E+03  0.17074867566E+03 0.  0.
        -24    2    3    3    0    0  0.12260198220E+02 -0.30963740829E+02 -0.29241769141E+03  0.30570660074E+03  0.82700385611E+02 0.  0.
          6    2    1    2  501    0  0.53932851492E+02 -0.17932447404E+02 -0.26878782296E+03  0.32468463214E+03  0.17304014400E+03 0.  0.
         24    2    5    5    0    0 -0.70928509868E+00 -0.70022116696E+02 -0.16562445273E+03  0.19676329812E+03  0.79879510739E+02 0.  0.
          5    1    5    5  501    0  0.54642136591E+02  0.52089669292E+02 -0.10316337023E+03  0.12792133402E+03  0.47000000000E+01 0. -1.
        -13    1    6    6    0    0 -0.80832322113E+01  0.16050480471E+02 -0.44469610775E+02  0.47963557508E+02  0.00000000000E+00 0.  1.
         14    1    6    6    0    0  0.73739471126E+01 -0.86072597167E+02 -0.12115484195E+03  0.14879974062E+03  0.00000000000E+00 0. -1.
         -5    1    3    3    0  503 -0.66193049712E+02  0.48896188233E+02 -0.51220349485E+03  0.51879366533E+03  0.47000000000E+01 0.  1.
         11    1    4    4    0    0 -0.11987550925E+02  0.24461743282E+02 -0.11770608300E+03  0.12081721829E+03  0.00000000000E+00 0. -1.
        -12    1    4    4    0    0  0.24247749145E+02 -0.55425484111E+02 -0.17471160842E+03  0.18488938245E+03  0.00000000000E+00 0.  1.
</event>
<event>
12    1  0.8313893E-002  0.2100069E+03  0.7818608E-02  0.1141901E+00
         21   -1    0    0  501  502  0.00000000000E+00  0.00000000000E+00  0.22314543322E+03  0.22314543322E+03  0.00000000000E+00 0. -1.
         21   -1    0    0  502  503 -0.00000000000E+00 -0.00000000000E+00 -0.32849091069E+03  0.32849091069E+03  0.00000000000E+00 0.  1.
         -6    2    1    2    0  503 -0.29405988159E+01  0.11969443148E+03 -0.22794482850E+03  0.30993827085E+03  0.17253255590E+03 0.  0.
        -24    2    3    3    0    0  0.19129364574E+02  0.13039672512E+03 -0.23737160867E+03  0.28324414121E+03  0.80701452366E+02 0.  0.
          6    2    1    2  501    0  0.29405988159E+01 -0.11969443148E+03  0.12259935104E+03  0.24169807306E+03  0.17044633642E+03 0.  0.
         24    2    5    5    0    0 -0.52180747881E+02 -0.91594423370E+02  0.12109668792E+03  0.17963100197E+03  0.80563764820E+02 0.  0.
          5    1    5    5  501    0  0.55121346697E+02 -0.28100008111E+02  0.15026631211E+01  0.62067071093E+02  0.47000000000E+01 0. -1.
        -11    1    6    6    0    0 -0.12286161749E+02 -0.20032943679E+02 -0.95931138044E+01  0.25382995005E+02  0.00000000000E+00 0.  1.
         12    1    6    6    0    0 -0.39894586132E+02 -0.71561479691E+02  0.13068980172E+03  0.15424800696E+03  0.00000000000E+00 0. -1.
         -5    1    3    3    0  503 -0.22069963390E+02 -0.10702293638E+02  0.94267801662E+01  0.26694129644E+02  0.47000000000E+01 0.  1.
         13    1    4    4    0    0  0.56016053909E+01 -0.50181633821E+01  0.20968818301E+01  0.78074874380E+01  0.00000000000E+00 0. -1.
        -14    1    4    4    0    0  0.13527759183E+02  0.13541488850E+03 -0.23946849050E+03  0.27543665377E+03  0.00000000000E+00 0.  1.
</event>
<event>
12    1  0.8313893E-002  0.2818066E+03  0.7818608E-02  0.1094755E+00
         21   -1    0    0  503  502  0.00000000000E+00  0.00000000000E+00  0.48592500891E+03  0.48592500891E+03  0.00000000000E+00 0. -1.
         21   -1    0    0  501  503 -0.00000000000E+00 -0.00000000000E+00 -0.18206930816E+03  0.18206930816E+03  0.00000000000E+00 0.  1.
          6    2    1    2  501    0 -0.94584618668E+02  0.20197356038E+03  0.25930531359E+03  0.38268797221E+03  0.17167198151E+03 0.  0.
         24    2    3    3    0    0  0.11775547643E+02  0.10605699216E+03  0.16143344724E+03  0.20915565459E+03  0.79363599018E+02 0.  0.
         -6    2    1    2    0  502  0.94584618668E+02 -0.20197356038E+03  0.44550387154E+02  0.28530634486E+03  0.17226550508E+03 0.  0.
        -24    2    5    5    0    0  0.63749980552E+02 -0.21264544203E+03  0.60354847463E+02  0.24874769429E+03  0.94607419199E+02 0.  0.
          5    1    3    3  501    0 -0.10636016631E+03  0.95916568218E+02  0.97871866346E+02  0.17353231762E+03  0.47000000000E+01 0. -1.
        -11    1    4    4    0    0  0.28094403422E+02  0.90056929933E+02  0.77266886127E+02  0.12194145244E+03  0.00000000000E+00 0.  1.
         12    1    4    4    0    0 -0.16318855779E+02  0.16000062225E+02  0.84166561118E+02  0.87214202144E+02  0.00000000000E+00 0. -1.
         -5    1    5    5    0  502  0.30834638117E+02  0.10671881649E+02 -0.15804460308E+02  0.36558650568E+02  0.47000000000E+01 0.  1.
         13    1    6    6    0    0 -0.10414682604E+02  0.28793469673E+01 -0.46012471149E+01  0.11744263609E+02  0.00000000000E+00 0. -1.
        -14    1    6    6    0    0  0.74164663156E+02 -0.21552478899E+03  0.64956094577E+02  0.23700343068E+03  0.00000000000E+00 0.  1.
</event>
<event>
12    1  0.8313893E-002  0.2071321E+03  0.7818608E-02  0.1143955E+00
         21   -1    0    0  503  502  0.00000000000E+00  0.00000000000E+00  0.15710238861E+04  0.15710238861E+04  0.00000000000E+00 0. -1.
         21   -1    0    0  501  503 -0.00000000000E+00 -0.00000000000E+00 -0.60516547502E+02  0.60516547502E+02  0.00000000000E+00 0.  1.
          6    2    1    2  501    0  0.11355496178E+03 -0.14392502039E+02  0.14998087559E+03  0.25533696951E+03  0.17204892181E+03 0.  0.
         24    2    3    3    0    0  0.82707093199E+02 -0.75524359309E+02  0.11172131916E+03  0.17675848245E+03  0.78851226057E+02 0.  0.
         -6    2    1    2    0  502 -0.11355496178E+03  0.14392502039E+02  0.13605264630E+04  0.13762034641E+04  0.17263210761E+03 0.  0.
        -24    2    5    5    0    0 -0.73977791086E+02  0.24778949454E+02  0.12875082340E+04  0.12923704008E+04  0.80356022709E+02 0.  0.
          5    1    3    3  501    0  0.30847868585E+02  0.61131857270E+02  0.38259556436E+02  0.78578487057E+02  0.47000000000E+01 0. -1.
        -11    1    4    4    0    0  0.51057601640E+02 -0.46391568892E+02  0.14567128332E+02  0.70507145576E+02  0.00000000000E+00 0.  1.
         12    1    4    4    0    0  0.31649491559E+02 -0.29132790418E+02  0.97154190825E+02  0.10625133688E+03  0.00000000000E+00 0. -1.
         -5    1    5    5    0  502 -0.39577170698E+02 -0.10386447415E+02  0.73018229000E+02  0.83833063267E+02  0.47000000000E+01 0.  1.
         13    1    6    6    0    0 -0.14792328020E+02  0.41157877998E+02  0.32859198461E+03  0.33148978301E+03  0.00000000000E+00 0. -1.
        -14    1    6    6    0    0 -0.59185463066E+02 -0.16378928545E+02  0.95891624937E+03  0.96088061779E+03  0.00000000000E+00 0.  1.
</event>
<event>
12    1  0.8313893E-002  0.1953366E+03  0.7818608E-02  0.1154813E+00
         21   -1    0    0  501  502  0.00000000000E+00  0.00000000000E+00  0.10643847374E+03  0.10643847374E+03  0.00000000000E+00 0. -1.
         21   -1    0    0  502  503 -0.00000000000E+00 -0.00000000000E+00 -0.42641404160E+03  0.42641404160E+03  0.00000000000E+00 0. -1.
         -6    2    1    2    0  503 -0.74823556314E+02  0.33367559752E+02 -0.27475275483E+03  0.33711340365E+03  0.17732572293E+03 0.  0.
        -24    2    3    3    0    0 -0.20393105588E+02  0.84274630094E+02 -0.19889681171E+03  0.23066896799E+03  0.78295204532E+02 0.  0.
          6    2    1    2  501    0  0.74823556314E+02 -0.33367559752E+02 -0.45222813029E+02  0.19573911169E+03  0.17192073291E+03 0.  0.
         24    2    5    5    0    0  0.15783966093E+02  0.49973304227E+01  0.35157354850E+02  0.88778374037E+02  0.79821383098E+02 0.  0.
          5    1    5    5  501    0  0.59039590222E+02 -0.38364890174E+02 -0.80380167879E+02  0.10696073766E+03  0.47000000000E+01 0. -1.
        -11    1    6    6    0    0 -0.27131397092E+02  0.12598222614E+01 -0.74758750673E+01  0.28170704079E+02  0.00000000000E+00 0.  1.
         12    1    6    6    0    0  0.42915363185E+02  0.37375081613E+01  0.42633229917E+02  0.60607669958E+02  0.00000000000E+00 0. -1.
         -5    1    3    3    0  503 -0.54430450726E+02 -0.50907070342E+02 -0.75855943120E+02  0.10644443566E+03  0.47000000000E+01 0.  1.
         13    1    4    4    0    0 -0.33248684056E+02  0.72628834085E+01 -0.93512297624E+02  0.99512683984E+02  0.00000000000E+00 0. -1.
        -14    1    4    4    0    0  0.12855578468E+02  0.77011746686E+02 -0.10538451409E+03  0.13115628401E+03  0.00000000000E+00 0.  1.
</event>
<event>
12    1  0.8313893E-002  0.1799712E+03  0.7818608E-02  0.1167927E+00
         21   -1    0    0  501  502  0.00000000000E+00  0.00000000000E+00  0.20193688400E+02  0.20193688400E+02  0.00000000000E+00 0. -1.
         21   -1    0    0  502  503 -0.00000000000E+00 -0.00000000000E+00 -0.23018976714E+04  0.23018976714E+04  0.00000000000E+00 0. -1.
         -6    2    1    2    0  503 -0.94296189367E-01 -0.50871187219E+02 -0.17809094525E+04  0.17899402624E+04  0.17222014445E+03 0.  0.
        -24    2    3    3    0    0 -0.51773192902E+02 -0.70605827988E+02 -0.14214838624E+04  0.14262521965E+04  0.76898052766E+02 0.  0.
          6    2    1    2  501    0  0.94296189367E-01  0.50871187219E+02 -0.50079453049E+03  0.53215109746E+03  0.17263181100E+03 0.  0.
         24    2    5    5    0    0  0.28021151121E+02  0.62647870478E+02 -0.48741201249E+03  0.49868796426E+03  0.80057948987E+02 0.  0.
          5    1    5    5  501    0 -0.27926854932E+02 -0.11776683259E+02 -0.13382518004E+02  0.33463133193E+02  0.47000000000E+01 0. -1.
        -11    1    6    6    0    0  0.51119429384E+02  0.17823402731E+02 -0.22000691405E+03  0.22656988321E+03  0.00000000000E+00 0.  1.
         12    1    6    6    0    0 -0.23098278263E+02  0.44824467747E+02 -0.26740509844E+03  0.27211808106E+03  0.00000000000E+00 0. -1.
         -5    1    3    3    0  503  0.51678896713E+02  0.19734640769E+02 -0.35942559012E+03  0.36368806585E+03  0.47000000000E+01 0.  1.
         11    1    4    4    0    0 -0.51585719124E+02 -0.34351798379E+02 -0.12171554509E+04  0.12187323431E+04  0.00000000000E+00 0. -1.
        -12    1    4    4    0    0 -0.18747377849E+00 -0.36254029609E+02 -0.20432841148E+03  0.20751985338E+03  0.00000000000E+00 0.  1.
</event>
<event>
12    1  0.8313893E-002  0.8042144E+03  0.7818608E-02  0.9554803E-01
         21   -1    0    0  503  502  0.00000000000E+00  0.00000000000E+00  0.35560946412E+04  0.35560946412E+04  0.00000000000E+00 0. -1.
         21   -1    0    0  501  503 -0.00000000000E+00 -0.00000000000E+00 -0.23486055232E+03  0.23486055232E+03  0.00000000000E+00 0.  1.
          6    2    1    2  501    0 -0.71730139073E+03  0.31385651438E+03  0.75761117127E+03  0.11048689932E+04  0.18366711311E+03 0.  0.
         24    2    3    3    0    0 -0.34593358157E+03  0.94481839042E+02  0.41303930242E+03  0.55279004893E+03  0.79865587576E+02 0.  0.
         -6    2    1    2    0  502  0.71730139073E+03 -0.31385651438E+03  0.25636229176E+04  0.26860862004E+04  0.17282770411E+03 0.  0.
        -24    2    5    5    0    0  0.23493302725E+03 -0.11794371347E+03  0.68114021635E+03  0.73292868644E+03  0.64251211938E+02 0.  0.
          5    1    3    3  501    0 -0.37136780916E+03  0.21937467534E+03  0.34457186885E+03  0.55207894423E+03  0.47000000000E+01 0. -1.
        -13    1    4    4    0    0 -0.27575260239E+03  0.84426705392E+02  0.27954757835E+03  0.40163940902E+03  0.00000000000E+00 0.  1.
         14    1    4    4    0    0 -0.70180979180E+02  0.10055133650E+02  0.13349172407E+03  0.15115063991E+03  0.00000000000E+00 0. -1.
         -5    1    5    5    0  502  0.48236836348E+03 -0.19591280092E+03  0.18824827013E+04  0.19531575139E+04  0.47000000000E+01 0.  1.
         11    1    6    6    0    0  0.17951165240E+03 -0.71656896004E+02  0.55352430318E+03  0.58630051877E+03  0.00000000000E+00 0. -1.
        -12    1    6    6    0    0  0.55421374851E+02 -0.46286817465E+02  0.12761591317E+03  0.14662816767E+03  0.00000000000E+00 0.  1.
</event>
<event>
12    1  0.8313893E-002  0.2017434E+03  0.7818608E-02  0.1148435E+00
         21   -1    0    0  503  502  0.00000000000E+00  0.00000000000E+00  0.18804640400E+03  0.18804640400E+03  0.00000000000E+00 0. -1.
         21   -1    0    0  501  503 -0.00000000000E+00 -0.00000000000E+00 -0.36870774082E+03  0.36870774082E+03  0.00000000000E+00 0. -1.
          6    2    1    2  501    0 -0.79429276429E+02  0.66613111904E+02 -0.26980323672E+03  0.33688896466E+03  0.17307244532E+03 0.  0.
         24    2    3    3    0    0 -0.10187778491E+03  0.51910057954E+02 -0.11823739745E+03  0.18289413045E+03  0.79977769543E+02 0.  0.
         -6    2    1    2    0  502  0.79429276429E+02 -0.66613111904E+02  0.89141899899E+02  0.21986518016E+03  0.17218624364E+03 0.  0.
        -24    2    5    5    0    0  0.36975689345E+02 -0.80769946839E+02  0.11647361240E+03  0.16721695569E+03  0.80649996724E+02 0.  0.
          5    1    3    3  501    0  0.22448508482E+02  0.14703053950E+02 -0.15156583927E+03  0.15399483421E+03  0.47000000000E+01 0. -1.
        -13    1    4    4    0    0 -0.47269425885E+02 -0.11012573637E+02 -0.16208801643E+02  0.51170310262E+02  0.00000000000E+00 0.  1.
         14    1    4    4    0    0 -0.54608359025E+02  0.62922631590E+02 -0.10202859581E+03  0.13172382019E+03  0.00000000000E+00 0. -1.
         -5    1    5    5    0  502  0.42453587084E+02  0.14156834935E+02 -0.27331712500E+02  0.52648224470E+02  0.47000000000E+01 0.  1.
         13    1    6    6    0    0 -0.33605361895E+01  0.94123291768E+01  0.42872711299E+02  0.44022204831E+02  0.00000000000E+00 0. -1.
        -14    1    6    6    0    0  0.40336225534E+02 -0.90182276016E+02  0.73600901100E+02  0.12319475086E+03  0.00000000000E+00 0.  1.
</event>
<event>
12    1  0.8313893E-002  0.2359642E+03  0.7818608E-02  0.1122572E+00
         21   -1    0    0  503  502  0.00000000000E+00  0.00000000000E+00  0.11475540924E+03  0.11475540924E+03  0.00000000000E+00 0.  1.
         21   -1    0    0  501  503 -0.00000000000E+00 -0.00000000000E+00 -0.53825876439E+03  0.53825876439E+03  0.00000000000E+00 0. -1.
          6    2    1    2  501    0  0.63490609244E+02  0.14813928694E+03 -0.31512300569E+03  0.39367704661E+03  0.17234501011E+03 0.  0.
         24    2    3    3    0    0 -0.10466385244E+02  0.14004937856E+03 -0.22463107053E+03  0.27643386352E+03  0.78950550326E+02 0.  0.
         -6    2    1    2    0  502 -0.63490609244E+02 -0.14813928694E+03 -0.10838034945E+03  0.25933712702E+03  0.17185208612E+03 0.  0.
        -24    2    5    5    0    0 -0.89295426405E+00 -0.86635171801E+01 -0.53643685495E+02  0.96886675679E+02  0.80209282713E+02 0.  0.
          5    1    3    3  501    0  0.73956994487E+02  0.80899083861E+01 -0.90491935165E+02  0.11724318309E+03  0.47000000000E+01 0. -1.
        -11    1    4    4    0    0 -0.19780620525E+02  0.16589545603E+02 -0.89546976179E+02  0.93194135622E+02  0.00000000000E+00 0.  1.
         12    1    4    4    0    0  0.93142352810E+01  0.12345983295E+03 -0.13508409435E+03  0.18323972789E+03  0.00000000000E+00 0. -1.
         -5    1    5    5    0  502 -0.62597654980E+02 -0.13947576976E+03 -0.54736663957E+02  0.16245045134E+03  0.47000000000E+01 0.  1.
         13    1    6    6    0    0 -0.32668921501E+02  0.18783600340E+02 -0.33031444069E+02  0.50111459478E+02  0.00000000000E+00 0. -1.
        -14    1    6    6    0    0  0.31775967237E+02 -0.27447117520E+02 -0.20612241426E+02  0.46775216200E+02  0.00000000000E+00 0.  1.
</event>
<event>
12    1  0.8313893E-002  0.2419002E+03  0.7818608E-02  0.1118620E+00
         21   -1    0    0  501  502  0.00000000000E+00  0.00000000000E+00  0.38936171875E+03  0.38936171875E+03  0.00000000000E+00 0. -1.
         21   -1    0    0  502  503 -0.00000000000E+00 -0.00000000000E+00 -0.17282923242E+03  0.17282923242E+03  0.00000000000E+00 0. -1.
         -6    2    1    2    0  503 -0.85973804221E+02 -0.14796050379E+03  0.61203756502E+01  0.24197765899E+03  0.17097345629E+03 0.  0.
        -24    2    3    3    0    0 -0.58281865277E+01 -0.11054552886E+02  0.10582995356E+02  0.83205607278E+02  0.81578198031E+02 0.  0.
          6    2    1    2  501    0  0.85973804221E+02  0.14796050379E+03  0.21041211068E+03  0.32021329219E+03  0.17023363499E+03 0.  0.
         24    2    5    5    0    0  0.41710361310E+02  0.33741707219E+01  0.78977002771E+02  0.11980935590E+03  0.79785810310E+02 0.  0.
          5    1    5    5  501    0  0.44263442912E+02  0.14458633307E+03  0.13143510791E+03  0.20040393629E+03  0.47000000000E+01 0. -1.
        -11    1    6    6    0    0 -0.32353717326E+01 -0.65731323559E+01 -0.14145571262E+02  0.15930187869E+02  0.00000000000E+00 0.  1.
         12    1    6    6    0    0  0.44945733042E+02  0.99473030778E+01  0.93122574032E+02  0.10387916803E+03  0.00000000000E+00 0. -1.
         -5    1    3    3    0  503 -0.80145617694E+02 -0.13690595091E+03 -0.44626197060E+01  0.15877205171E+03  0.47000000000E+01 0.  1.
         11    1    4    4    0    0 -0.22993310473E+02  0.22440472067E+02 -0.17182637301E+02  0.36435012525E+02  0.00000000000E+00 0. -1.
        -12    1    4    4    0    0  0.17165123945E+02 -0.33495024953E+02  0.27765632657E+02  0.46770594752E+02  0.00000000000E+00 0.  1.
</event>
<event>
12    1  0.8313893E-002  0.2066596E+03  0.7818608E-02  0.1144271E+00
         21   -1    0    0  503  502  0.00000000000E+00  0.00000000000E+00  0.51856231204E+02  0.51856231204E+02  0.00000000000E+00 0. -1.
         21   -1    0    0  501  503 -0.00000000000E+00 -0.00000000000E+00 -0.87827076910E+03  0.87827076910E+03  0.00000000000E+00 0. -1.
          6    2    1    2  501    0 -0.42037756670E+02  0.10643534706E+03 -0.53005812454E+03  0.56891986263E+03  0.17208294109E+03 0.  0.
         24    2    3    3    0    0  0.20939705422E+02  0.11502617845E+03 -0.39371238637E+03  0.41841333974E+03  0.79942396130E+02 0.  0.
         -6    2    1    2    0  502  0.42037756670E+02 -0.10643534706E+03 -0.29635641336E+03  0.36120713768E+03  0.17189478317E+03 0.  0.
        -24    2    5    5    0    0  0.17893556314E+02  0.14051856683E+02 -0.12369070984E+03  0.14922684651E+03  0.80322014306E+02 0.  0.
          5    1    3    3  501    0 -0.62977462091E+02 -0.85908313924E+01 -0.13634573817E+03  0.15050652289E+03  0.47000000000E+01 0. -1.
        -13    1    4    4    0    0 -0.25698051865E+02  0.46680032781E+02 -0.21453767853E+03  0.22105617123E+03  0.00000000000E+00 0.  1.
         14    1    4    4    0    0  0.46637757286E+02  0.68346145667E+02 -0.17917470784E+03  0.19735716851E+03  0.00000000000E+00 0. -1.
         -5    1    5    5    0  502  0.24144200356E+02 -0.12048720374E+03 -0.17266570351E+03  0.21198029117E+03  0.47000000000E+01 0.  1.
         13    1    6    6    0    0 -0.20818555855E+02 -0.17382908667E+02 -0.18546784310E+02  0.32856673445E+02  0.00000000000E+00 0. -1.
        -14    1    6    6    0    0  0.38712112169E+02  0.31434765350E+02 -0.10514392553E+03  0.11637017306E+03  0.00000000000E+00 0.  1.
</event>
<event>
12    1  0.8313893E-002  0.1770170E+03  0.7818608E-02  0.1171094E+00
         21   -1    0    0  501  502  0.00000000000E+00  0.00000000000E+00  0.10803710636E+04  0.10803710636E+04  0.00000000000E+00 0.  1.
         21   -1    0    0  502  503 -0.00000000000E+00 -0.00000000000E+00 -0.59013018674E+02  0.59013018674E+02  0.00000000000E+00 0.  1.
         -6    2    1    2    0  503  0.29633567812E+02 -0.72382498154E+01  0.10383428101E+03  0.20522325894E+03  0.17436882604E+03 0.  0.
        -24    2    3    3    0    0  0.20524462892E+02  0.14339357864E+02  0.13840390069E+03  0.16320281689E+03  0.82780728149E+02 0.  0.
          6    2    1    2  501    0 -0.29633567812E+02  0.72382498154E+01  0.91752376397E+03  0.93416082338E+03  0.17284688572E+03 0.  0.
         24    2    5    5    0    0  0.50613443225E+02  0.11505728788E+02  0.49458145105E+03  0.50362617413E+03  0.79589001204E+02 0.  0.
          5    1    5    5  501    0 -0.80247011037E+02 -0.42674789723E+01  0.42294231291E+03  0.43053464926E+03  0.47000000000E+01 0. -1.
        -11    1    6    6    0    0  0.18091343581E+02 -0.38974132014E+01  0.42397186702E+03  0.42437557725E+03  0.00000000000E+00 0.  1.
         12    1    6    6    0    0  0.32522099644E+02  0.15403141989E+02  0.70609584033E+02  0.79250596879E+02  0.00000000000E+00 0. -1.
         -5    1    3    3    0  503  0.91091049197E+01 -0.21577607680E+02 -0.34569619678E+02  0.42020442053E+02  0.47000000000E+01 0.  1.
         13    1    4    4    0    0  0.47002193204E+02  0.29963127345E+02  0.89066018841E+02  0.10507021880E+03  0.00000000000E+00 0. -1.
        -14    1    4    4    0    0 -0.26477730311E+02 -0.15623769480E+02  0.49337881846E+02  0.58132598086E+02  0.00000000000E+00 0.  1.
</event>
<event>
12    1  0.8313893E-002  0.1783931E+03  0.7818608E-02  0.1169785E+00
         21   -1    0    0  501  502  0.00000000000E+00  0.00000000000E+00  0.63113455568E+02  0.63113455568E+02  0.00000000000E+00 0. -1.
         21   -1    0    0  502  503 -0.00000000000E+00 -0.00000000000E+00 -0.50376459703E+03  0.50376459703E+03  0.00000000000E+00 0. -1.
         -6    2    1    2    0  503 -0.40516206143E+02  0.90508638180E+01 -0.24549717407E+03  0.30247464889E+03  0.17175147641E+03 0.  0.
        -24    2    3    3    0    0 -0.62112730663E+02  0.61873687820E+02 -0.10841215433E+03  0.15391135179E+03  0.65185615355E+02 0.  0.
          6    2    1    2  501    0  0.40516206143E+02 -0.90508638180E+01 -0.19515396739E+03  0.26440340371E+03  0.17349526739E+03 0.  0.
         24    2    5    5    0    0 -0.27734529278E+02  0.33216508377E+02 -0.68957990700E+02  0.11476314118E+03  0.80887783678E+02 0.  0.
          5    1    5    5  501    0  0.68250735421E+02 -0.42267372195E+02 -0.12619597669E+03  0.14964026253E+03  0.47000000000E+01 0. -1.
        -13    1    6    6    0    0 -0.51191778561E+02  0.20593383612E+02 -0.68710575369E+02  0.88123940042E+02  0.00000000000E+00 0.  1.
         14    1    6    6    0    0  0.23457249283E+02  0.12623124764E+02 -0.24741533040E+00  0.26639201135E+02  0.00000000000E+00 0. -1.
         -5    1    3    3    0  503  0.21596524520E+02 -0.52822824002E+02 -0.13708501974E+03  0.14856329709E+03  0.47000000000E+01 0.  1.
         11    1    4    4    0    0 -0.57269610353E+02  0.41196700247E+02 -0.37515502762E+02  0.79902373737E+02  0.00000000000E+00 0. -1.
        -12    1    4    4    0    0 -0.48431203100E+01  0.20676987573E+02 -0.70896651566E+02  0.74008978055E+02  0.00000000000E+00 0.  1.
</event>
<event>
12    1  0.8313893E-002  0.2230977E+03  0.7818608E-02  0.1131856E+00
         21   -1    0    0  503  502  0.00000000000E+00  0.00000000000E+00  0.27758568638E+03  0.27758568638E+03  0.00000000000E+00 0. -1.
         21   -1    0    0  501  503 -0.00000000000E+00 -0.00000000000E+00 -0.31860668474E+03  0.31860668474E+03  0.00000000000E+00 0. -1.
          6    2    1    2  501    0 -0.84832246625E+02 -0.11340398162E+03 -0.21846302831E+03  0.31224780300E+03  0.17238219928E+03 0.  0.
         24    2    3    3    0    0 -0.33836913275E+02 -0.13065851288E+03 -0.20701081788E+03  0.25700754598E+03  0.70589066315E+02 0.  0.
         -6    2    1    2    0  502  0.84832246625E+02  0.11340398162E+03  0.17744202995E+03  0.28394456811E+03  0.17053407475E+03 0.  0.
        -24    2    5    5    0    0  0.10098307531E+03  0.13188411881E+03  0.12195479805E+03  0.22308992455E+03  0.85470108106E+02 0.  0.
          5    1    3    3  501    0 -0.50995333350E+02  0.17254531264E+02 -0.11452210434E+02  0.55240257027E+02  0.47000000000E+01 0. -1.
        -13    1    4    4    0    0  0.27881187705E+01 -0.11884874546E+02  0.33609839339E+01  0.12661755892E+02  0.00000000000E+00 0.  1.
         14    1    4    4    0    0 -0.36625032046E+02 -0.11877363834E+03 -0.21037180181E+03  0.24434579009E+03  0.00000000000E+00 0. -1.
         -5    1    5    5    0  502 -0.16150828680E+02 -0.18480137188E+02  0.55487231905E+02  0.60854643554E+02  0.47000000000E+01 0.  1.
         13    1    6    6    0    0  0.77838324734E+02  0.63574466986E+02  0.11167115764E+03  0.15023636410E+03  0.00000000000E+00 0. -1.
        -14    1    6    6    0    0  0.23144750571E+02  0.68309651820E+02  0.10283640410E+02  0.72853560454E+02  0.00000000000E+00 0.  1.
</event>
<event>
12    1  0.8313893E-002  0.2054576E+03  0.7818608E-02  0.1148529E+00
         21   -1    0    0  501  502  0.00000000000E+00  0.00000000000E+00  0.34712006441E+03  0.34712006441E+03  0.00000000000E+00 0.  1.
         21   -1    0    0  502  503 -0.00000000000E+00 -0.00000000000E+00 -0.22512194328E+03  0.22512194328E+03  0.00000000000E+00 0.  1.
         -6    2    1    2    0  503  0.72774614886E+01  0.78914942075E+02 -0.14245339457E+03  0.23735783238E+03  0.17252606018E+03 0.  0.
        -24    2    3    3    0    0  0.48067347665E+02  0.46279525174E+02 -0.20220357999E+02  0.10434696636E+03  0.77634799861E+02 0.  0.
          6    2    1    2  501    0 -0.72774614886E+01 -0.78914942075E+02  0.26445151570E+03  0.33488417530E+03  0.18955811031E+03 0.  0.
         24    2    5    5    0    0  0.71511641360E+02 -0.46251530691E+02  0.12412504080E+03  0.17060322470E+03  0.80282722828E+02 0.  0.
          5    1    5    5  501    0 -0.78789102848E+02 -0.32663411384E+02  0.14032647490E+03  0.16428095060E+03  0.47000000000E+01 0. -1.
        -11    1    6    6    0    0 -0.14693779718E+02 -0.84007590188E+01  0.29977166699E+01  0.17189130860E+02  0.00000000000E+00 0.  1.
         12    1    6    6    0    0  0.86205421077E+02 -0.37850771672E+02  0.12112732413E+03  0.15341409384E+03  0.00000000000E+00 0. -1.
         -5    1    3    3    0  503 -0.40789886176E+02  0.32635416901E+02 -0.12223303657E+03  0.13301086602E+03  0.47000000000E+01 0.  1.
         11    1    4    4    0    0  0.18276095880E+02 -0.20465538684E+02 -0.14494015911E+02  0.31031120693E+02  0.00000000000E+00 0. -1.
        -12    1    4    4    0    0  0.29791251785E+02  0.66745063859E+02 -0.57263420874E+01  0.73315845669E+02  0.00000000000E+00 0.  1.
</event>
<event>
12    1  0.8313893E-002  0.1878963E+03  0.7818608E-02  0.1162656E+00
         21   -1    0    0  501  502  0.00000000000E+00  0.00000000000E+00  0.10412190284E+04  0.10412190284E+04  0.00000000000E+00 0. -1.
         21   -1    0    0  502  503 -0.00000000000E+00 -0.00000000000E+00 -0.45786808897E+02  0.45786808897E+02  0.00000000000E+00 0. -1.
         -6    2    1    2    0  503  0.12891949429E+02 -0.43284922285E+02  0.21076452104E+03  0.28235916290E+03  0.18238757274E+03 0.  0.
        -24    2    3    3    0    0  0.50844437729E+02 -0.83564581364E+02  0.11449882715E+03  0.17121953845E+03  0.81473632681E+02 0.  0.
          6    2    1    2  501    0 -0.12891949429E+02  0.43284922285E+02  0.78466769845E+03  0.80464667437E+03  0.17237484370E+03 0.  0.
         24    2    5    5    0    0  0.38354474962E+02  0.75933101400E+02  0.50788545473E+03  0.52123425396E+03  0.80626364983E+02 0.  0.
          5    1    5    5  501    0 -0.51246424391E+02 -0.32648179115E+02  0.27678224371E+03  0.28341242042E+03  0.47000000000E+01 0. -1.
        -11    1    6    6    0    0  0.43435564536E+01  0.46726460090E+02  0.41962538367E+03  0.42224127128E+03  0.00000000000E+00 0.  1.
         12    1    6    6    0    0  0.34010918509E+02  0.29206641310E+02  0.88260071065E+02  0.98992982675E+02  0.00000000000E+00 0. -1.
         -5    1    3    3    0  503 -0.37952488300E+02  0.40279659080E+02  0.96265693884E+02  0.11113962445E+03  0.47000000000E+01 0.  1.
         13    1    4    4    0    0  0.59868028997E+02 -0.29328132715E+02  0.87397542168E+02  0.10992111099E+03  0.00000000000E+00 0. -1.
        -14    1    4    4    0    0 -0.90235912679E+01 -0.54236448649E+02  0.27101284984E+02  0.61298427462E+02  0.00000000000E+00 0.  1.
</event>
<event>
12    1  0.8313893E-002  0.1720745E+03  0.7818608E-02  0.1176014E+00
         21   -1    0    0  503  502  0.00000000000E+00  0.00000000000E+00  0.91107317172E+02  0.91107317172E+02  0.00000000000E+00 0. -1.
         21   -1    0    0  501  503 -0.00000000000E+00 -0.00000000000E+00 -0.32293318649E+03  0.32293318649E+03  0.00000000000E+00 0. -1.
          6    2    1    2  501    0  0.33838094710E+02  0.33038197642E+02 -0.11090924700E+03  0.20472052264E+03  0.16544815552E+03 0.  0.
         24    2    3    3    0    0  0.65882033643E+02  0.56991559239E+02 -0.11418566003E+03  0.16430514888E+03  0.79808124967E+02 0.  0.
         -6    2    1    2    0  502 -0.33838094710E+02 -0.33038197642E+02 -0.12091662232E+03  0.20931998102E+03  0.16418734952E+03 0.  0.
        -24    2    5    5    0    0  0.18444069050E+02  0.30372217371E+02 -0.61271373035E+02  0.10766393771E+03  0.81084443993E+02 0.  0.
          5    1    3    3  501    0 -0.32043938933E+02 -0.23953361597E+02  0.32764130320E+01  0.40415373764E+02  0.47000000000E+01 0. -1.
        -13    1    4    4    0    0 -0.97509129644E+01 -0.97797439200E+01 -0.29318263573E+01  0.14118048752E+02  0.00000000000E+00 0.  1.
         14    1    4    4    0    0  0.75632946608E+02  0.66771303159E+02 -0.11125383367E+03  0.15018710013E+03  0.00000000000E+00 0. -1.
         -5    1    5    5    0  502 -0.52282163760E+02 -0.63410415013E+02 -0.59645249289E+02  0.10165604331E+03  0.47000000000E+01 0.  1.
         13    1    6    6    0    0  0.12090874683E+02 -0.19673887467E+02  0.57314624665E+01  0.23792872056E+02  0.00000000000E+00 0. -1.
        -14    1    6    6    0    0  0.63531943671E+01  0.50046104838E+02 -0.67002835501E+02  0.83871065650E+02  0.00000000000E+00 0.  1.
</event>
<event>
12    1  0.8313893E-002  0.2614876E+03  0.7818608E-02  0.1106481E+00
         21   -1    0    0  501  502  0.00000000000E+00  0.00000000000E+00  0.65784484459E+03  0.65784484459E+03  0.00000000000E+00 0.  1.
         21   -1    0    0  502  503 -0.00000000000E+00 -0.00000000000E+00 -0.17986416683E+03  0.17986416683E+03  0.00000000000E+00 0.  1.
         -6    2    1    2    0  503  0.14816470506E+03 -0.12882523375E+03 -0.34625918564E+02  0.26226024695E+03  0.17039002969E+03 0.  0.
        -24    2    3    3    0    0  0.29628751874E+02  0.21081742058E+01 -0.17913933136E+02  0.84789939650E+02  0.77370004067E+02 0.  0.
          6    2    1    2  501    0 -0.14816470506E+03  0.12882523375E+03  0.51260659632E+03  0.57544876447E+03  0.17270505859E+03 0.  0.
         24    2    5    5    0    0 -0.25829969887E+02  0.10745911997E+03  0.29315555282E+03  0.32325211750E+03  0.79605926350E+02 0.  0.
          5    1    5    5  501    0 -0.12233473518E+03  0.21366113774E+02  0.21945104350E+03  0.25219664697E+03  0.47000000000E+01 0. -1.
        -11    1    6    6    0    0 -0.66086417252E+01 -0.12771520090E+02  0.27953089773E+02  0.31435029803E+02  0.00000000000E+00 0.  1.
         12    1    6    6    0    0 -0.19221328161E+02  0.12023064006E+03  0.26520246305E+03  0.29181708770E+03  0.00000000000E+00 0. -1.
         -5    1    3    3    0  503  0.11853595319E+03 -0.13093340795E+03 -0.16711985428E+02  0.17747030730E+03  0.47000000000E+01 0.  1.
         11    1    4    4    0    0 -0.45239090599E+01 -0.30632003088E+02  0.63669545907E+01  0.31612078026E+02  0.00000000000E+00 0. -1.
        -12    1    4    4    0    0  0.34152660933E+02  0.32740177294E+02 -0.24280887726E+02  0.53177861624E+02  0.00000000000E+00 0.  1.
</event>
<event>
12    1  0.8313893E-002  0.1757678E+03  0.7818608E-02  0.1172016E+00
         21   -1    0    0  501  502  0.00000000000E+00  0.00000000000E+00  0.15503282478E+03  0.15503282478E+03  0.00000000000E+00 0. -1.
         21   -1    0    0  502  503 -0.00000000000E+00 -0.00000000000E+00 -0.24741517856E+03  0.24741517856E+03  0.00000000000E+00 0. -1.
         -6    2    1    2    0  503 -0.79245893372E+01 -0.35089147417E+02 -0.13519630980E+03  0.22174838254E+03  0.17204724814E+03 0.  0.
        -24    2    3    3    0    0  0.74371996876E+01 -0.83006284326E+02 -0.12782049732E+03  0.17067462037E+03  0.76461698438E+02 0.  0.
          6    2    1    2  501    0  0.79245893372E+01  0.35089147417E+02  0.42813956012E+02  0.18069962081E+03  0.17182919062E+03 0.  0.
         24    2    5    5    0    0  0.16295314716E+02 -0.26058879129E+02 -0.24378727581E+02  0.89342645584E+02  0.80269443118E+02 0.  0.
          5    1    5    5  501    0 -0.83707253784E+01  0.61148026546E+02  0.67192683593E+02  0.91356975224E+02  0.47000000000E+01 0. -1.
        -13    1    6    6    0    0  0.36870445670E+02  0.14255750916E+02 -0.18686440137E+02  0.43724583967E+02  0.00000000000E+00 0.  1.
         14    1    6    6    0    0 -0.20575130954E+02 -0.40314630045E+02 -0.56922874436E+01  0.45618061618E+02  0.00000000000E+00 0. -1.
         -5    1    3    3    0  503 -0.15361789025E+02  0.47917136909E+02 -0.73758124770E+01  0.51073762161E+02  0.47000000000E+01 0.  1.
         13    1    4    4    0    0 -0.58924998800E+01  0.80341275912E+01 -0.47512593782E+02  0.48546012492E+02  0.00000000000E+00 0. -1.
        -14    1    4    4    0    0  0.13329699568E+02 -0.91040411917E+02 -0.80307903538E+02  0.12212860788E+03  0.00000000000E+00 0.  1.
</event>
<event>
12    1  0.8313893E-002  0.1877362E+03  0.7818608E-02  0.1161233E+00
         21   -1    0    0  503  502  0.00000000000E+00  0.00000000000E+00  0.96790788667E+03  0.96790788667E+03  0.00000000000E+00 0.  1.
         21   -1    0    0  501  503 -0.00000000000E+00 -0.00000000000E+00 -0.11553108383E+03  0.11553108383E+03  0.00000000000E+00 0.  1.
          6    2    1    2  501    0 -0.71069687579E+01 -0.65705820006E+02 -0.22690735244E+02  0.18910250140E+03  0.17571887429E+03 0.  0.
         24    2    3    3    0    0 -0.13457052988E+02 -0.11054904923E+03 -0.35506785395E+02  0.14179943682E+03  0.80275549911E+02 0.  0.
         -6    2    1    2    0  502  0.71069687579E+01  0.65705820006E+02  0.87506753809E+03  0.89433646910E+03  0.17241450042E+03 0.  0.
        -24    2    5    5    0    0  0.47079301489E+02  0.94023794547E+01  0.27875149618E+03  0.29401757331E+03  0.80243824837E+02 0.  0.
          5    1    3    3  501    0  0.63500842298E+01  0.44843229222E+02  0.12816050150E+02  0.47303064576E+02  0.47000000000E+01 0. -1.
        -13    1    4    4    0    0 -0.21065306622E+02 -0.16669396227E+02 -0.39221407432E+02  0.47538770646E+02  0.00000000000E+00 0.  1.
         14    1    4    4    0    0  0.76082536343E+01 -0.93879653001E+02  0.37146220370E+01  0.94260666175E+02  0.00000000000E+00 0. -1.
         -5    1    5    5    0  502 -0.39972332732E+02  0.56303440551E+02  0.59631604191E+03  0.60031889579E+03  0.47000000000E+01 0.  1.
         11    1    6    6    0    0  0.59240289470E+00 -0.12827849461E+02  0.26030692650E+01  0.13102695623E+02  0.00000000000E+00 0. -1.
        -12    1    6    6    0    0  0.46486898595E+02  0.22230228916E+02  0.27614842692E+03  0.28091487769E+03  0.00000000000E+00 0.  1.
</event>
<event>
12    1  0.8313893E-002  0.2229634E+03  0.7818608E-02  0.1132327E+00
         21   -1    0    0  501  502  0.00000000000E+00  0.00000000000E+00  0.45710877856E+03  0.45710877856E+03  0.00000000000E+00 0. -1.
         21   -1    0    0  502  503 -0.00000000000E+00 -0.00000000000E+00 -0.10791907560E+03  0.10791907560E+03  0.00000000000E+00 0.  1.
         -6    2    1    2    0  503  0.12231277950E+03 -0.59789901560E+02  0.20074596807E+03  0.30001933826E+03  0.17657126402E+03 0.  0.
        -24    2    3    3    0    0  0.14366276933E+03 -0.22647927446E+02  0.19734633575E+03  0.25678745412E+03  0.76434942598E+02 0.  0.
          6    2    1    2  501    0 -0.12231277950E+03  0.59789901560E+02  0.14844373489E+03  0.26500851590E+03  0.17221708021E+03 0.  0.
         24    2    5    5    0    0 -0.68827329080E+02  0.10163529261E+03  0.12508765464E+03  0.19304097708E+03  0.80938022936E+02 0.  0.
          5    1    5    5  501    0 -0.53485450419E+02 -0.41845391054E+02  0.23356080251E+02  0.71967538819E+02  0.47000000000E+01 0. -1.
        -11    1    6    6    0    0 -0.20857033337E+02 -0.21677005347E+00 -0.45419911778E+01  0.21346955585E+02  0.00000000000E+00 0.  1.
         12    1    6    6    0    0 -0.47970295742E+02  0.10185206267E+03  0.12962964582E+03  0.17169402150E+03  0.00000000000E+00 0. -1.
         -5    1    3    3    0  503 -0.21349989828E+02 -0.37141974114E+02  0.33996323206E+01  0.43231884144E+02  0.47000000000E+01 0.  1.
         11    1    4    4    0    0  0.72230419608E+02 -0.48855217376E+02  0.11948671416E+03  0.14792275228E+03  0.00000000000E+00 0. -1.
        -12    1    4    4    0    0  0.71432349719E+02  0.26207289930E+02  0.77859621592E+02  0.10886470184E+03  0.00000000000E+00 0.  1.
</event>
<event>
12    1  0.8313893E-002  0.2035725E+03  0.7818608E-02  0.1146978E+00
         21   -1    0    0  503  502  0.00000000000E+00  0.00000000000E+00  0.62661906513E+03  0.62661906513E+03  0.00000000000E+00 0. -1.
         21   -1    0    0  501  503 -0.00000000000E+00 -0.00000000000E+00 -0.16608651967E+03  0.16608651967E+03  0.00000000000E+00 0. -1.
          6    2    1    2  501    0  0.64624055983E+02 -0.86962699498E+02 -0.77972819147E+02  0.21700617846E+03  0.17109395445E+03 0.  0.
         24    2    3    3    0    0  0.34800883655E+02  0.29647503236E+01 -0.14973359417E+02  0.10313173109E+03  0.95875237767E+02 0.  0.
         -6    2    1    2    0  502 -0.64624055983E+02  0.86962699498E+02  0.53850536460E+03  0.57569940634E+03  0.17234558027E+03 0.  0.
        -24    2    5    5    0    0  0.20269368097E+02  0.83832179364E+02  0.31572265290E+03  0.33722315963E+03  0.81240287177E+02 0.  0.
          5    1    3    3  501    0  0.29823172327E+02 -0.89927449822E+02 -0.62999459729E+02  0.11387444738E+03  0.47000000000E+01 0. -1.
        -13    1    4    4    0    0 -0.30388884713E+02 -0.30051799230E+01  0.11345462617E+02  0.32576601150E+02  0.00000000000E+00 0.  1.
         14    1    4    4    0    0  0.65189768368E+02  0.59699302465E+01 -0.26318822034E+02  0.70555129936E+02  0.00000000000E+00 0. -1.
         -5    1    5    5    0  502 -0.84893424080E+02  0.31305201339E+01  0.22278271171E+03  0.23847624671E+03  0.47000000000E+01 0.  1.
         11    1    6    6    0    0 -0.15810884540E+02  0.74653650438E+02  0.25326521040E+03  0.26451166022E+03  0.00000000000E+00 0. -1.
        -12    1    6    6    0    0  0.36080252637E+02  0.91785289267E+01  0.62457442500E+02  0.72711499415E+02  0.00000000000E+00 0.  1.
</event>
<event>
12    1  0.8313893E-002  0.2467313E+03  0.7818608E-02  0.1115757E+00
         21   -1    0    0  501  502  0.00000000000E+00  0.00000000000E+00  0.25393644817E+03  0.25393644817E+03  0.00000000000E+00 0. -1.
         21   -1    0    0  502  503 -0.00000000000E+00 -0.00000000000E+00 -0.57708437749E+03  0.57708437749E+03  0.00000000000E+00 0. -1.
         -6    2    1    2    0  503  0.13637242802E+02 -0.17438460555E+03 -0.47999517542E+03  0.53865561761E+03  0.17075872135E+03 0.  0.
        -24    2    3    3    0    0 -0.57194400656E+01 -0.26028003654E+02 -0.25167405354E+03  0.26564098945E+03  0.80716399072E+02 0.  0.
          6    2    1    2  501    0 -0.13637242802E+02  0.17438460555E+03  0.15684724609E+03  0.29236520804E+03  0.17401261800E+03 0.  0.
         24    2    5    5    0    0  0.39628654200E+01  0.34070458051E+02  0.11633299623E+03  0.14518736243E+03  0.79809171045E+02 0.  0.
          5    1    5    5  501    0 -0.17600108222E+02  0.14031414750E+03  0.40514249865E+02  0.14717784562E+03  0.47000000000E+01 0. -1.
        -13    1    6    6    0    0 -0.26064340890E+02  0.18058435641E+02  0.95540438385E+01  0.33117015528E+02  0.00000000000E+00 0.  1.
         14    1    6    6    0    0  0.30027206310E+02  0.16012022410E+02  0.10677895239E+03  0.11207034690E+03  0.00000000000E+00 0. -1.
         -5    1    3    3    0  503  0.19356682867E+02 -0.14835660190E+03 -0.22832112187E+03  0.27301462817E+03  0.47000000000E+01 0.  1.
         13    1    4    4    0    0  0.13509482708E+02 -0.51273274897E+02 -0.16700237250E+03  0.17521771389E+03  0.00000000000E+00 0. -1.
        -14    1    4    4    0    0 -0.19228922774E+02  0.25245271243E+02 -0.84671681044E+02  0.90423275555E+02  0.00000000000E+00 0.  1.
</event>
<event>
12    1  0.8313893E-002  0.2274339E+03  0.7818608E-02  0.1128912E+00
         21   -1    0    0  503  502  0.00000000000E+00  0.00000000000E+00  0.20190772106E+03  0.20190772106E+03  0.00000000000E+00 0. -1.
         21   -1    0    0  501  503 -0.00000000000E+00 -0.00000000000E+00 -0.26500103425E+04  0.26500103425E+04  0.00000000000E+00 0. -1.
          6    2    1    2  501    0 -0.13308871009E+03  0.65286697642E+02 -0.25807836420E+04  0.25907856733E+04  0.17248547897E+03 0.  0.
         24    2    3    3    0    0 -0.14848805953E+03  0.28630892791E+02 -0.23771466787E+04  0.23832503972E+04  0.78661883594E+02 0.  0.
         -6    2    1    2    0  502  0.13308871009E+03 -0.65286697642E+02  0.13268102058E+03  0.26113239025E+03  0.16914761120E+03 0.  0.
        -24    2    5    5    0    0  0.11561250546E+03 -0.13885290286E+02  0.14759891987E+03  0.20463322101E+03  0.80810032086E+02 0.  0.
          5    1    3    3  501    0  0.15399349438E+02  0.36655804851E+02 -0.20363696333E+03  0.20753527611E+03  0.47000000000E+01 0. -1.
        -11    1    4    4    0    0  0.14661042127E+01  0.19993688905E+02 -0.32018291863E+03  0.32080991014E+03  0.00000000000E+00 0.  1.
         12    1    4    4    0    0 -0.14995416374E+03  0.86372038865E+01 -0.20569637601E+04  0.20624404871E+04  0.00000000000E+00 0. -1.
         -5    1    5    5    0  502  0.17476204626E+02 -0.51401407357E+02 -0.14917899296E+02  0.56499169249E+02  0.47000000000E+01 0.  1.
         13    1    6    6    0    0  0.23475385564E+02 -0.37444425349E+02  0.65393814232E+02  0.78927369505E+02  0.00000000000E+00 0. -1.
        -14    1    6    6    0    0  0.92137119899E+02  0.23559135063E+02  0.82205105640E+02  0.12570585150E+03  0.00000000000E+00 0.  1.
</event>
<event>
12    1  0.8313893E-002  0.2555784E+03  0.7818608E-02  0.1109919E+00
         21   -1    0    0  503  502  0.00000000000E+00  0.00000000000E+00  0.61891336486E+02  0.61891336486E+02  0.00000000000E+00 0.  1.
         21   -1    0    0  501  503 -0.00000000000E+00 -0.00000000000E+00 -0.10574300288E+04  0.10574300288E+04  0.00000000000E+00 0. -1.
          6    2    1    2  501    0  0.11192869545E+03 -0.15221755681E+03 -0.46205169731E+03  0.52802660689E+03  0.17211074669E+03 0.  0.
         24    2    3    3    0    0  0.47940985943E+02 -0.44477146372E+01 -0.21193093960E+03  0.23051553707E+03  0.76841195813E+02 0.  0.
         -6    2    1    2    0  502 -0.11192869545E+03  0.15221755681E+03 -0.53348699496E+03  0.59129475835E+03  0.17123930624E+03 0.  0.
        -24    2    5    5    0    0 -0.47602076328E+02  0.13588034855E+03 -0.47345095725E+03  0.50167760528E+03  0.82432905600E+02 0.  0.
          5    1    3    3  501    0  0.63987709504E+02 -0.14776984218E+03 -0.25012075772E+03  0.29751106982E+03  0.47000000000E+01 0. -1.
        -11    1    4    4    0    0 -0.85353501892E+01  0.11317852932E+02 -0.12412227857E+03  0.12492912405E+03  0.00000000000E+00 0.  1.
         12    1    4    4    0    0  0.56476336132E+02 -0.15765567569E+02 -0.87808661023E+02  0.10558641302E+03  0.00000000000E+00 0. -1.
         -5    1    5    5    0  502 -0.64326619119E+02  0.16337208258E+02 -0.60036037706E+02  0.89617153070E+02  0.47000000000E+01 0.  1.
         13    1    6    6    0    0  0.10266887262E+02 -0.32584395860E+01 -0.73394493508E+02  0.74180712317E+02  0.00000000000E+00 0. -1.
        -14    1    6    6    0    0 -0.57868963590E+02  0.13913878814E+03 -0.40005646374E+03  0.42749689297E+03  0.00000000000E+00 0.  1.
</event>
<event>
12    1  0.8313893E-002  0.2306570E+03  0.7818608E-02  0.1126413E+00
         21   -1    0    0  501  502  0.00000000000E+00  0.00000000000E+00  0.49535518924E+03  0.49535518924E+03  0.00000000000E+00 0.  1.
         21   -1    0    0  502  503 -0.00000000000E+00 -0.00000000000E+00 -0.11804376277E+03  0.11804376277E+03  0.00000000000E+00 0.  1.
         -6    2    1    2    0  503  0.37596662056E+02 -0.14726292899E+03  0.28388784882E+03  0.36577995448E+03  0.17350154218E+03 0.  0.
        -24    2    3    3    0    0 -0.31650676397E+02 -0.13419624144E+03  0.18690718041E+03  0.24580799004E+03  0.80479049115E+02 0.  0.
          6    2    1    2  501    0 -0.37596662056E+02  0.14726292899E+03  0.93423577647E+02  0.24761899752E+03  0.17171873462E+03 0.  0.
         24    2    5    5    0    0  0.22822320699E+02  0.14659854366E+03  0.69883708923E+02  0.18260276644E+03  0.80299727349E+02 0.  0.
          5    1    5    5  501    0 -0.60418982755E+02  0.66438533444E+00  0.23539868724E+02  0.65016231085E+02  0.47000000000E+01 0. -1.
        -11    1    6    6    0    0  0.25299740442E+02  0.11061214907E+03  0.86703242305E+02  0.14280257916E+03  0.00000000000E+00 0.  1.
         12    1    6    6    0    0 -0.24774197434E+01  0.35986394593E+02 -0.16819533382E+02  0.39800187280E+02  0.00000000000E+00 0. -1.
         -5    1    3    3    0  503  0.69247338453E+02 -0.13066687556E+02  0.96980668415E+02  0.11997196444E+03  0.47000000000E+01 0.  1.
         13    1    4    4    0    0  0.20538629796E+02 -0.88232769608E+01  0.15870065783E+02  0.27414312287E+02  0.00000000000E+00 0. -1.
        -14    1    4    4    0    0 -0.52189306193E+02 -0.12537296448E+03  0.17103711462E+03  0.21839367775E+03  0.00000000000E+00 0.  1.
</event>
<event>
12    1  0.8313893E-002  0.2028094E+03  0.7818608E-02  0.1147878E+00
         21   -1    0    0  501  502  0.00000000000E+00  0.00000000000E+00  0.51634356471E+02  0.51634356471E+02  0.00000000000E+00 0.  1.
         21   -1    0    0  502  503 -0.00000000000E+00 -0.00000000000E+00 -0.78936521708E+03  0.78936521708E+03  0.00000000000E+00 0.  1.
         -6    2    1    2    0  503 -0.87896031658E+02 -0.53484375420E+02 -0.34587961182E+03  0.39977508867E+03  0.17204977435E+03 0.  0.
        -24    2    3    3    0    0 -0.82017207726E+02 -0.58509099206E+02 -0.36050807840E+03  0.38257362203E+03  0.79033946054E+02 0.  0.
          6    2    1    2  501    0  0.87896031658E+02  0.53484375420E+02 -0.39185124879E+03  0.44122448488E+03  0.17477229209E+03 0.  0.
         24    2    5    5    0    0  0.86362884163E+02  0.10069013671E+03 -0.30317496429E+03  0.34064462669E+03  0.80787692942E+02 0.  0.
          5    1    5    5  501    0  0.15331474948E+01 -0.47205761289E+02 -0.88676284504E+02  0.10057985819E+03  0.47000000000E+01 0. -1.
        -13    1    6    6    0    0  0.24590714235E+02  0.71992099597E+02 -0.22203054592E+03  0.23470221335E+03  0.00000000000E+00 0.  1.
         14    1    6    6    0    0  0.61772169928E+02  0.28698037112E+02 -0.81144418368E+02  0.10594241334E+03  0.00000000000E+00 0. -1.
         -5    1    3    3    0  503 -0.58788239317E+01  0.50247237864E+01  0.14628466584E+02  0.17201466639E+02  0.47000000000E+01 0.  1.
         13    1    4    4    0    0 -0.40941297459E+02 -0.14667985440E+02 -0.27291104765E+03  0.27635444552E+03  0.00000000000E+00 0. -1.
        -14    1    4    4    0    0 -0.41075910267E+02 -0.43841113766E+02 -0.87597030756E+02  0.10621917651E+03  0.00000000000E+00 0.  1.
</event>
<event>
12    1  0.8313893E-002  0.2109824E+03  0.7818608E-02  0.1141270E+00
         21   -1    0    0  501  502  0.00000000000E+00  0.00000000000E+00  0.46896459462E+03  0.46896459462E+03  0.00000000000E+00 0. -1.
         21   -1    0    0  502  503 -0.00000000000E+00 -0.00000000000E+00 -0.23918961244E+03  0.23918961244E+03  0.00000000000E+00 0. -1.
         -6    2    1    2    0  503  0.10837049359E+03  0.24423271586E+02 -0.16139449511E+03  0.26371398113E+03  0.17651124813E+03 0.  0.
        -24    2    3    3    0    0  0.76956472254E+02 -0.52007146649E+02 -0.11935239928E+03  0.17088038059E+03  0.79549150417E+02 0.  0.
          6    2    1    2  501    0 -0.10837049359E+03 -0.24423271586E+02  0.39116947729E+03  0.44444022593E+03  0.17936804170E+03 0.  0.
         24    2    5    5    0    0 -0.12016001820E+01 -0.37547030757E+02  0.25282658304E+03  0.26888894807E+03  0.83479110799E+02 0.  0.
          5    1    5    5  501    0 -0.10716889341E+03  0.13123759171E+02  0.13834289425E+03  0.17555127786E+03  0.47000000000E+01 0. -1.
        -13    1    6    6    0    0 -0.26627073823E+02 -0.25502225466E+02  0.22921023331E+03  0.23215661872E+03  0.00000000000E+00 0.  1.
         14    1    6    6    0    0  0.25425473641E+02 -0.12044805291E+02  0.23616349731E+02  0.36732329343E+02  0.00000000000E+00 0. -1.
         -5    1    3    3    0  503  0.31414021334E+02  0.76430418234E+02 -0.42042095823E+02  0.92833600539E+02  0.47000000000E+01 0.  1.
         13    1    4    4    0    0  0.57329971151E+02 -0.66506283922E+01 -0.22118344961E+02  0.61807585570E+02  0.00000000000E+00 0. -1.
        -14    1    4    4    0    0  0.19626501103E+02 -0.45356518256E+02 -0.97234054323E+02  0.10907279502E+03  0.00000000000E+00 0.  1.
</event>
<event>
12    1  0.8313893E-002  0.2113175E+03  0.7818608E-02  0.1140905E+00
         21   -1    0    0  501  502  0.00000000000E+00  0.00000000000E+00  0.45008003311E+03  0.45008003311E+03  0.00000000000E+00 0.  1.
         21   -1    0    0  502  503 -0.00000000000E+00 -0.00000000000E+00 -0.99160303268E+02  0.99160303268E+02  0.00000000000E+00 0. -1.
         -6    2    1    2    0  503  0.22397338394E+01 -0.12229825462E+03  0.19997670295E+03  0.28955039494E+03  0.16996137795E+03 0.  0.
        -24    2    3    3    0    0  0.55552490009E+02 -0.79590721185E+02  0.17748936121E+03  0.21748130364E+03  0.79842858432E+02 0.  0.
          6    2    1    2  501    0 -0.22397338394E+01  0.12229825462E+03  0.15094302689E+03  0.25968994144E+03  0.17231711705E+03 0.  0.
         24    2    5    5    0    0 -0.34611079137E+02  0.13366655860E+02  0.28093076120E+02  0.92273700868E+02  0.79678232021E+02 0.  0.
          5    1    5    5  501    0  0.32371345297E+02  0.10893159876E+03  0.12284995077E+03  0.16741624057E+03  0.47000000000E+01 0. -1.
        -11    1    6    6    0    0 -0.45551723678E+02  0.16251178041E+02  0.48781924646E+02  0.68693059983E+02  0.00000000000E+00 0.  1.
         12    1    6    6    0    0  0.10940644541E+02 -0.28845221814E+01 -0.20688848526E+02  0.23580640884E+02  0.00000000000E+00 0. -1.
         -5    1    3    3    0  503 -0.53312756170E+02 -0.42707533431E+02  0.22487341739E+02  0.72069091299E+02  0.47000000000E+01 0.  1.
         11    1    4    4    0    0  0.27070013501E+02 -0.50512246985E+02  0.30417354191E+02  0.64880568450E+02  0.00000000000E+00 0. -1.
        -12    1    4    4    0    0  0.28482476508E+02 -0.29078474200E+02  0.14707200702E+03  0.15260073519E+03  0.00000000000E+00 0.  1.
</event>
<event>
12    1  0.8313893E-002  0.1726572E+03  0.7818608E-02  0.1175158E+00
         21   -1    0    0  503  502  0.00000000000E+00  0.00000000000E+00  0.17271365246E+04  0.17271365246E+04  0.00000000000E+00 0.  1.
         21   -1    0    0  501  503 -0.00000000000E+00 -0.00000000000E+00 -0.21954360430E+02  0.21954360430E+02  0.00000000000E+00 0.  1.
          6    2    1    2  501    0 -0.18170752333E+02 -0.17867767919E+01  0.44689963183E+03  0.47901787586E+03  0.17148024856E+03 0.  0.
         24    2    3    3    0    0  0.54933446730E+02  0.13544512581E+02  0.25013591920E+03  0.26850108089E+03  0.79521789305E+02 0.  0.
         -6    2    1    2    0  502  0.18170752333E+02  0.17867767919E+01  0.12582825324E+04  0.12700730092E+04  0.17168910457E+03 0.  0.
        -24    2    5    5    0    0 -0.28013875489E+02 -0.26508546580E+02  0.10802088473E+04  0.10838850061E+04  0.80424327660E+02 0.  0.
          5    1    3    3  501    0 -0.73104199063E+02 -0.15331289373E+02  0.19676371263E+03  0.21051679496E+03  0.47000000000E+01 0. -1.
        -13    1    4    4    0    0  0.13162478971E+02 -0.42759632245E+01 -0.43657928740E+00  0.13846491095E+02  0.00000000000E+00 0.  1.
         14    1    4    4    0    0  0.41770967759E+02  0.17820475806E+02  0.25057249849E+03  0.25465458980E+03  0.00000000000E+00 0. -1.
         -5    1    5    5    0  502  0.46184627822E+02  0.28295323372E+02  0.17807368505E+03  0.18618800305E+03  0.47000000000E+01 0.  1.
         13    1    6    6    0    0 -0.41581101621E+02 -0.47244497168E+02  0.67855102903E+03  0.68146352032E+03  0.00000000000E+00 0. -1.
        -14    1    6    6    0    0  0.13567226132E+02  0.20735950587E+02  0.40165781828E+03  0.40242148583E+03  0.00000000000E+00 0.  1.
</event>
<event>
12    1  0.8313893E-002  0.2133988E+03  0.7818608E-02  0.1139200E+00
         21   -1    0    0  501  502  0.00000000000E+00  0.00000000000E+00  0.26028871700E+03  0.26028871700E+03  0.00000000000E+00 0. -1.
         21   -1    0    0  502  503 -0.00000000000E+00 -0.00000000000E+00 -0.21456152054E+03  0.21456152054E+03  0.00000000000E+00 0. -1.
         -6    2    1    2    0  503  0.33322371942E+02 -0.11832894519E+03  0.12640093134E+03  0.24671148600E+03  0.17256083605E+03 0.  0.
        -24    2    3    3    0    0 -0.58666323113E+01 -0.25741089138E+02 -0.62524101197E+00  0.84643513822E+02  0.80418358981E+02 0.  0.
          6    2    1    2  501    0 -0.33322371942E+02  0.11832894519E+03 -0.80673734880E+02  0.22813875154E+03  0.17443313537E+03 0.  0.
         24    2    5    5    0    0  0.22588208906E+02  0.11166295021E+02 -0.54230896201E+02  0.10431976931E+03  0.85479300658E+02 0.  0.
          5    1    5    5  501    0 -0.55910580848E+02  0.10716265017E+03 -0.26442838679E+02  0.12381898223E+03  0.47000000000E+01 0. -1.
        -11    1    6    6    0    0  0.36568204924E+02  0.26071188220E+02  0.15257520891E+01  0.44936270273E+02  0.00000000000E+00 0.  1.
         12    1    6    6    0    0 -0.13979996018E+02 -0.14904893199E+02 -0.55756648290E+02  0.59383499042E+02  0.00000000000E+00 0. -1.
         -5    1    3    3    0  503  0.39189004253E+02 -0.92587856057E+02  0.12702617235E+03  0.16206797218E+03  0.47000000000E+01 0.  1.
         13    1    4    4    0    0 -0.65513727993E+01 -0.34997470119E+02  0.33736713164E+02  0.49050068454E+02  0.00000000000E+00 0. -1.
        -14    1    4    4    0    0  0.68474048798E+00  0.92563809812E+01 -0.34361954176E+02  0.35593445368E+02  0.00000000000E+00 0.  1.
</event>
<event>
12    1  0.8313893E-002  0.2044991E+03  0.7818608E-02  0.1146377E+00
         21   -1    0    0  503  502  0.00000000000E+00  0.00000000000E+00  0.34107236915E+02  0.34107236915E+02  0.00000000000E+00 0.  1.
         21   -1    0    0  501  503 -0.00000000000E+00 -0.00000000000E+00 -0.14756476947E+04  0.14756476947E+04  0.00000000000E+00 0.  1.
          6    2    1    2  501    0  0.86640142494E+02 -0.67086898519E+02 -0.10352731595E+04  0.10549219963E+04  0.17047796700E+03 0.  0.
         24    2    3    3    0    0  0.46856178769E+02  0.27022350734E+02 -0.38909730030E+03  0.40070135646E+03  0.78988347508E+02 0.  0.
         -6    2    1    2    0  502 -0.86640142494E+02  0.67086898519E+02 -0.40626729832E+03  0.45483293536E+03  0.17266358956E+03 0.  0.
        -24    2    5    5    0    0 -0.35325835069E+02 -0.92171500382E+01 -0.89745204590E+02  0.12519102086E+03  0.79282529474E+02 0.  0.
          5    1    3    3  501    0  0.39783963724E+02 -0.94109249252E+02 -0.64617585919E+03  0.65422063982E+03  0.47000000000E+01 0. -1.
        -11    1    4    4    0    0  0.69131712234E+02  0.16575559548E+02 -0.29396012040E+03  0.30243428244E+03  0.00000000000E+00 0.  1.
         12    1    4    4    0    0 -0.22275533464E+02  0.10446791186E+02 -0.95137179898E+02  0.98267074018E+02  0.00000000000E+00 0. -1.
         -5    1    5    5    0  502 -0.51314307424E+02  0.76304048557E+02 -0.31652209373E+03  0.32964191450E+03  0.47000000000E+01 0.  1.
         13    1    6    6    0    0  0.10339720049E+02 -0.37739467067E+00  0.10462489248E+02  0.14714479899E+02  0.00000000000E+00 0. -1.
        -14    1    6    6    0    0 -0.45665555119E+02 -0.88397553676E+01 -0.10020769384E+03  0.11047654096E+03  0.00000000000E+00 0.  1.
</event>
<event>
12    1  0.8313893E-002  0.2112563E+03  0.7818608E-02  0.1141000E+00
         21   -1    0    0  501  502  0.00000000000E+00  0.00000000000E+00  0.21647089179E+03  0.21647089179E+03  0.00000000000E+00 0. -1.
         21   -1    0    0  502  503 -0.00000000000E+00 -0.00000000000E+00 -0.26976921541E+03  0.26976921541E+03  0.00000000000E+00 0. -1.
         -6    2    1    2    0  503 -0.11798123218E+03  0.58099536329E+01 -0.14672892302E+03  0.25721313231E+03  0.17514534499E+03 0.  0.
        -24    2    3    3    0    0 -0.23969768696E+02  0.60896193482E+02 -0.59723986319E+02  0.11769754860E+03  0.77478140219E+02 0.  0.
          6    2    1    2  501    0  0.11798123218E+03 -0.58099536329E+01  0.93430599401E+02  0.22902697488E+03  0.17254202854E+03 0.  0.
         24    2    5    5    0    0  0.75503607552E+02 -0.39080451016E+02  0.12127894609E+03  0.16812627699E+03  0.79559951276E+02 0.  0.
          5    1    5    5  501    0  0.42477624632E+02  0.33270497384E+02 -0.27848346685E+02  0.60900697891E+02  0.47000000000E+01 0. -1.
        -11    1    6    6    0    0  0.74785887997E+01 -0.15044938521E+02 -0.91071324234E+01  0.19110712350E+02  0.00000000000E+00 0.  1.
         12    1    6    6    0    0  0.68025018752E+02 -0.24035512495E+02  0.13038607851E+03  0.14901556464E+03  0.00000000000E+00 0. -1.
         -5    1    3    3    0  503 -0.94011463487E+02 -0.55086239849E+02 -0.87004936703E+02  0.13951558371E+03  0.47000000000E+01 0.  1.
         13    1    4    4    0    0 -0.49056304094E+02  0.50831640550E+02 -0.56535366533E+02  0.90479966409E+02  0.00000000000E+00 0. -1.
        -14    1    4    4    0    0  0.25086535397E+02  0.10064552932E+02 -0.31886197857E+01  0.27217582187E+02  0.00000000000E+00 0.  1.
</event>
<event>
12    1  0.8313893E-002  0.1800539E+03  0.7818608E-02  0.1167935E+00
         21   -1    0    0  503  502  0.00000000000E+00  0.00000000000E+00  0.29232255680E+02  0.29232255680E+02  0.00000000000E+00 0.  1.
         21   -1    0    0  501  503 -0.00000000000E+00 -0.00000000000E+00 -0.11292406661E+04  0.11292406661E+04  0.00000000000E+00 0.  1.
          6    2    1    2  501    0  0.47218821564E+02  0.20944405587E+02 -0.46286784467E+03  0.49637963228E+03  0.17169103785E+03 0.  0.
         24    2    3    3    0    0  0.22284232280E+02  0.71865134104E+02 -0.38208551222E+03  0.39757411841E+03  0.80091550567E+02 0.  0.
         -6    2    1    2    0  502 -0.47218821564E+02 -0.20944405587E+02 -0.63714056579E+03  0.66209328954E+03  0.17248518267E+03 0.  0.
        -24    2    5    5    0    0  0.13720670699E+01  0.42810336353E+02 -0.18526216558E+03  0.20313586215E+03  0.71466782701E+02 0.  0.
          5    1    3    3  501    0  0.24934589284E+02 -0.50920728517E+02 -0.80782332448E+02  0.98805513870E+02  0.47000000000E+01 0. -1.
        -11    1    4    4    0    0 -0.22523690550E+02  0.56681730232E+02 -0.24788275468E+03  0.25527631156E+03  0.00000000000E+00 0.  1.
         12    1    4    4    0    0  0.44807922830E+02  0.15183403872E+02 -0.13420275754E+03  0.14229780685E+03  0.00000000000E+00 0. -1.
         -5    1    5    5    0  502 -0.48590888634E+02 -0.63754741940E+02 -0.45187840021E+03  0.45895742739E+03  0.47000000000E+01 0.  1.
         13    1    6    6    0    0  0.53586664847E+01  0.48316662518E+02 -0.18915518807E+03  0.19530207464E+03  0.00000000000E+00 0. -1.
        -14    1    6    6    0    0 -0.39865994148E+01 -0.55063261657E+01  0.38930224888E+01  0.78337875153E+01  0.00000000000E+00 0.  1.
</event>
<event>
12    1  0.8313893E-002  0.4208375E+03  0.7818608E-02  0.1036880E+00
         21   -1    0    0  501  502  0.00000000000E+00  0.00000000000E+00  0.10200911431E+04  0.10200911431E+04  0.00000000000E+00 0. -1.
         21   -1    0    0  502  503 -0.00000000000E+00 -0.00000000000E+00 -0.29212194161E+03  0.29212194161E+03  0.00000000000E+00 0. -1.
         -6    2    1    2    0  503 -0.22445931389E+03  0.30985592001E+03 -0.54947795228E+02  0.42335809052E+03  0.17268508290E+03 0.  0.
        -24    2    3    3    0    0 -0.21883363444E+03  0.22188075050E+03 -0.80072770601E+02  0.33157229039E+03  0.80058154832E+02 0.  0.
          6    2    1    2  501    0  0.22445931389E+03 -0.30985592001E+03  0.78291699668E+03  0.88885499414E+03  0.17524697477E+03 0.  0.
         24    2    5    5    0    0  0.22911382756E+03 -0.21153542212E+03  0.61264326635E+03  0.69212213455E+03  0.80379702281E+02 0.  0.
          5    1    5    5  501    0 -0.46545136759E+01 -0.98320497891E+02  0.17027373033E+03  0.19673285959E+03  0.47000000000E+01 0. -1.
        -11    1    6    6    0    0  0.93227962607E+02 -0.37960210161E+02  0.21708113524E+03  0.23928361801E+03  0.00000000000E+00 0.  1.
         12    1    6    6    0    0  0.13588586496E+03 -0.17357521195E+03  0.39556213111E+03  0.45283851655E+03  0.00000000000E+00 0. -1.
         -5    1    3    3    0  503 -0.56256794435E+01  0.87975169503E+02  0.25124975374E+02  0.91785800131E+02  0.47000000000E+01 0.  1.
         13    1    4    4    0    0  0.64667319648E+01  0.81496587130E+01 -0.70054528362E+01  0.12542405227E+02  0.00000000000E+00 0. -1.
        -14    1    4    4    0    0 -0.22530036641E+03  0.21373109179E+03 -0.73067317765E+02  0.31902988516E+03  0.00000000000E+00 0.  1.
</event>
<event>
12    1  0.8313893E-002  0.1867994E+03  0.7818608E-02  0.1161421E+00
         21   -1    0    0  501  502  0.00000000000E+00  0.00000000000E+00  0.14039175858E+03  0.14039175858E+03  0.00000000000E+00 0. -1.
         21   -1    0    0  502  503 -0.00000000000E+00 -0.00000000000E+00 -0.38099123456E+03  0.38099123456E+03  0.00000000000E+00 0.  1.
         -6    2    1    2    0  503  0.48837233945E+02  0.52166681687E+02 -0.27410206854E+03  0.33160304489E+03  0.17240126828E+03 0.  0.
        -24    2    3    3    0    0  0.96430771005E+02  0.59493420534E+02 -0.20075561846E+03  0.24373599981E+03  0.79158439697E+02 0.  0.
          6    2    1    2  501    0 -0.48837233945E+02 -0.52166681687E+02  0.33502592565E+02  0.18977994826E+03  0.17259074991E+03 0.  0.
         24    2    5    5    0    0 -0.59693680036E+02  0.13961420136E+02  0.60371721122E+02  0.11742783466E+03  0.79914297551E+02 0.  0.
          5    1    5    5  501    0  0.10856446091E+02 -0.66128101823E+02 -0.26869128557E+02  0.72352113597E+02  0.47000000000E+01 0. -1.
        -11    1    6    6    0    0 -0.13185867109E+01  0.22689092132E+02 -0.10635108384E+02  0.25092610527E+02  0.00000000000E+00 0.  1.
         12    1    6    6    0    0 -0.58375093325E+02 -0.87276719965E+01  0.71006829506E+02  0.92335224133E+02  0.00000000000E+00 0. -1.
         -5    1    3    3    0  503 -0.47593537060E+02 -0.73267388461E+01 -0.73346450081E+02  0.87867045083E+02  0.47000000000E+01 0.  1.
         13    1    4    4    0    0  0.81380517837E+02  0.11292865464E+02 -0.89132323248E+02  0.12122247540E+03  0.00000000000E+00 0. -1.
        -14    1    4    4    0    0  0.15050253168E+02  0.48200555069E+02 -0.11162329521E+03  0.12251352441E+03  0.00000000000E+00 0.  1.
</event>
<event>
12    1  0.8313893E-002  0.2524916E+03  0.7818608E-02  0.1111850E+00
         21   -1    0    0  503  502  0.00000000000E+00  0.00000000000E+00  0.13598987740E+03  0.13598987740E+03  0.00000000000E+00 0. -1.
         21   -1    0    0  501  503 -0.00000000000E+00 -0.00000000000E+00 -0.90343328318E+03  0.90343328318E+03  0.00000000000E+00 0. -1.
          6    2    1    2  501    0  0.11697810904E+03 -0.14276231194E+03 -0.74446165117E+03  0.78588784079E+03  0.17126468559E+03 0.  0.
         24    2    3    3    0    0  0.46889874451E+02 -0.15307841410E+03 -0.57129897482E+03  0.59873500199E+03  0.80432722072E+02 0.  0.
         -6    2    1    2    0  502 -0.11697810904E+03  0.14276231194E+03 -0.22981754608E+02  0.25353531980E+03  0.17229927927E+03 0.  0.
        -24    2    5    5    0    0 -0.14441144975E+03  0.12922000879E+03  0.81410563883E+01  0.20964111151E+03  0.79565327521E+02 0.  0.
          5    1    3    3  501    0  0.70088234585E+02  0.10316102166E+02 -0.17316267635E+03  0.18715283880E+03  0.47000000000E+01 0. -1.
        -11    1    4    4    0    0  0.17009724986E+02 -0.56417753722E+02 -0.94861389840E+02  0.11167352847E+03  0.00000000000E+00 0.  1.
         12    1    4    4    0    0  0.29880149465E+02 -0.96660660379E+02 -0.47643758498E+03  0.48706147351E+03  0.00000000000E+00 0. -1.
         -5    1    5    5    0  502  0.27433340713E+02  0.13542303141E+02 -0.31122810996E+02  0.43894208289E+02  0.47000000000E+01 0.  1.
         11    1    6    6    0    0 -0.10941064935E+03  0.11642625393E+03 -0.22566312195E+02  0.16135365270E+03  0.00000000000E+00 0. -1.
        -12    1    6    6    0    0 -0.35000800402E+02  0.12793754862E+02  0.30707368584E+02  0.48287458803E+02  0.00000000000E+00 0.  1.
</event>
<event>
12    1  0.8313893E-002  0.1790084E+03  0.7818608E-02  0.1169052E+00
         21   -1    0    0  501  502  0.00000000000E+00  0.00000000000E+00  0.39985031906E+03  0.39985031906E+03  0.00000000000E+00 0.  1.
         21   -1    0    0  502  503 -0.00000000000E+00 -0.00000000000E+00 -0.15964663564E+03  0.15964663564E+03  0.00000000000E+00 0.  1.
         -6    2    1    2    0  503  0.46197766280E+01  0.43358057177E+02 -0.77768157079E+02  0.19517145169E+03  0.17361666349E+03 0.  0.
        -24    2    3    3    0    0  0.37647464574E+02 -0.15706011909E+02  0.34506803049E+00  0.91715381951E+02  0.82143665706E+02 0.  0.
          6    2    1    2  501    0 -0.46197766280E+01 -0.43358057177E+02  0.31797184050E+03  0.36432550301E+03  0.17241147681E+03 0.  0.
         24    2    5    5    0    0  0.19736051797E+02 -0.65687560572E+02  0.31362142682E+03  0.33066797489E+03  0.79237257046E+02 0.  0.
          5    1    5    5  501    0 -0.24355828425E+02  0.22329503394E+02  0.43504136834E+01  0.33657528122E+02  0.47000000000E+01 0. -1.
        -11    1    6    6    0    0 -0.20227754768E+02 -0.59424135024E+02  0.16180456281E+03  0.17355433279E+03  0.00000000000E+00 0.  1.
         12    1    6    6    0    0  0.39963806564E+02 -0.62634255480E+01  0.15181686401E+03  0.15711364210E+03  0.00000000000E+00 0. -1.
         -5    1    3    3    0  503 -0.33027687946E+02  0.59064069086E+02 -0.78113225110E+02  0.10345606974E+03  0.47000000000E+01 0.  1.
         11    1    4    4    0    0 -0.14218704320E+02  0.21743360762E+02  0.82443319295E+01  0.27256454258E+02  0.00000000000E+00 0. -1.
        -12    1    4    4    0    0  0.51866168894E+02 -0.37449372671E+02 -0.78992638990E+01  0.64458927693E+02  0.00000000000E+00 0.  1.
</event>
<event>
12    1  0.8313893E-002  0.2246078E+03  0.7818608E-02  0.1131261E+00
         21   -1    0    0  501  502  0.00000000000E+00  0.00000000000E+00  0.23051221372E+03  0.23051221372E+03  0.00000000000E+00 0. -1.
         21   -1    0    0  502  503 -0.00000000000E+00 -0.00000000000E+00 -0.26716293068E+03  0.26716293068E+03  0.00000000000E+00 0. -1.
         -6    2    1    2    0  503 -0.59065151781E+02 -0.12479386088E+03 -0.12863132041E+03  0.25883332017E+03  0.17716227356E+03 0.  0.
        -24    2    3    3    0    0  0.38351835010E+02 -0.55280583042E+02 -0.42746589547E+02  0.11145475285E+03  0.77897913352E+02 0.  0.
          6    2    1    2  501    0  0.59065151781E+02  0.12479386088E+03  0.91980603450E+02  0.23884182422E+03  0.17182195936E+03 0.  0.
         24    2    5    5    0    0  0.55408331367E+02  0.14185253718E+02  0.79045200239E+02  0.12732029729E+03  0.81798592973E+02 0.  0.
          5    1    5    5  501    0  0.36568204146E+01  0.11060860716E+03  0.12935403211E+02  0.11152152694E+03  0.47000000000E+01 0. -1.
        -11    1    6    6    0    0  0.40561052482E+02 -0.28953328061E+02  0.59699769420E+02  0.77766037916E+02  0.00000000000E+00 0.  1.
         12    1    6    6    0    0  0.14847278885E+02  0.43138581780E+02  0.19345430819E+02  0.49554259371E+02  0.00000000000E+00 0. -1.
         -5    1    3    3    0  503 -0.97416986792E+02 -0.69513277839E+02 -0.85884730859E+02  0.14737856732E+03  0.47000000000E+01 0.  1.
         13    1    4    4    0    0 -0.35732570861E+01 -0.23564578220E+02 -0.52801683790E+02  0.57931643546E+02  0.00000000000E+00 0. -1.
        -14    1    4    4    0    0  0.41925092096E+02 -0.31716004823E+02  0.10055094243E+02  0.53523109303E+02  0.00000000000E+00 0.  1.
</event>
<event>
12    1  0.8313893E-002  0.1827047E+03  0.7818608E-02  0.1165255E+00
         21   -1    0    0  501  502  0.00000000000E+00  0.00000000000E+00  0.32984184164E+03  0.32984184164E+03  0.00000000000E+00 0.  1.
         21   -1    0    0  502  503 -0.00000000000E+00 -0.00000000000E+00 -0.22041002400E+03  0.22041002400E+03  0.00000000000E+00 0.  1.
         -6    2    1    2    0  503  0.52438197859E+02  0.22656667367E+02 -0.14769091698E+03  0.23493322662E+03  0.17354516657E+03 0.  0.
        -24    2    3    3    0    0  0.64108929251E+02 -0.22950792510E+02 -0.15489474989E+03  0.18707686261E+03  0.79803980434E+02 0.  0.
          6    2    1    2  501    0 -0.52438197859E+02 -0.22656667367E+02  0.25712273462E+03  0.31531863902E+03  0.17335124541E+03 0.  0.
         24    2    5    5    0    0 -0.46158593134E+02  0.27264359680E+02  0.24444230383E+03  0.26321848833E+03  0.81596394944E+02 0.  0.
          5    1    5    5  501    0 -0.62796047257E+01 -0.49921027047E+02  0.12680430790E+02  0.52100150690E+02  0.47000000000E+01 0. -1.
        -11    1    6    6    0    0  0.13430630634E+02 -0.17920071452E+01  0.13195187073E+03  0.13264572861E+03  0.00000000000E+00 0.  1.
         12    1    6    6    0    0 -0.59589223768E+02  0.29056366825E+02  0.11249043310E+03  0.13057275973E+03  0.00000000000E+00 0. -1.
         -5    1    3    3    0  503 -0.11670731392E+02  0.45607459877E+02  0.72038329101E+01  0.47856364010E+02  0.47000000000E+01 0.  1.
         11    1    4    4    0    0 -0.17293104262E+02  0.42578021053E+01 -0.38877636712E+02  0.42762728749E+02  0.00000000000E+00 0. -1.
        -12    1    4    4    0    0  0.81402033514E+02 -0.27208594615E+02 -0.11601711318E+03  0.14431413386E+03  0.00000000000E+00 0.  1.
</event>
<event>
12    1  0.8313893E-002  0.2864955E+03  0.7818608E-02  0.1092335E+00
         21   -1    0    0  501  502  0.00000000000E+00  0.00000000000E+00  0.23949160725E+03  0.23949160725E+03  0.00000000000E+00 0. -1.
         21   -1    0    0  502  503 -0.00000000000E+00 -0.00000000000E+00 -0.34204028600E+03  0.34204028600E+03  0.00000000000E+00 0.  1.
         -6    2    1    2    0  503  0.12155557934E+03 -0.19446551654E+03 -0.39123053625E+02  0.28809962977E+03  0.16993583305E+03 0.  0.
        -24    2    3    3    0    0  0.15351154604E+03 -0.17095791629E+03 -0.46192739109E+02  0.24753041077E+03  0.79656331809E+02 0.  0.
          6    2    1    2  501    0 -0.12155557934E+03  0.19446551654E+03 -0.63425625134E+02  0.29343226349E+03  0.17171804605E+03 0.  0.
         24    2    5    5    0    0 -0.58601536280E+02  0.19850181802E+03 -0.44142839409E+02  0.22730043232E+03  0.82944466073E+02 0.  0.
          5    1    5    5  501    0 -0.62954043063E+02 -0.40363014802E+01 -0.19282785725E+02  0.66131831163E+02  0.47000000000E+01 0. -1.
        -11    1    6    6    0    0 -0.64681467950E+02  0.18940481432E+03 -0.20429653048E+02  0.20118460852E+03  0.00000000000E+00 0.  1.
         12    1    6    6    0    0  0.60799316704E+01  0.90970037029E+01 -0.23713186361E+02  0.26115823802E+02  0.00000000000E+00 0. -1.
         -5    1    3    3    0  503 -0.31955966701E+02 -0.23507600243E+02  0.70696854848E+01  0.40569218995E+02  0.47000000000E+01 0.  1.
         13    1    4    4    0    0  0.71145475916E+02 -0.78226240520E+02  0.18964590252E+02  0.10742755295E+03  0.00000000000E+00 0. -1.
        -14    1    4    4    0    0  0.82366070127E+02 -0.92731675775E+02 -0.65157329361E+02  0.14010285782E+03  0.00000000000E+00 0.  1.
</event>
<event>
12    1  0.8313893E-002  0.2038035E+03  0.7818608E-02  0.1146592E+00
         21   -1    0    0  503  502  0.00000000000E+00  0.00000000000E+00  0.33858020700E+02  0.33858020700E+02  0.00000000000E+00 0.  1.
         21   -1    0    0  501  503 -0.00000000000E+00 -0.00000000000E+00 -0.14021373048E+04  0.14021373048E+04  0.00000000000E+00 0. -1.
          6    2    1    2  501    0 -0.10209301520E+03 -0.20281333043E+02 -0.93870605025E+03  0.96057529405E+03  0.17521852229E+03 0.  0.
         24    2    3    3    0    0 -0.69748088462E+02  0.51748386501E+02 -0.44682626870E+03  0.46237625323E+03  0.81212029906E+02 0.  0.
         -6    2    1    2    0  502  0.10209301520E+03  0.20281333043E+02 -0.42957323383E+03  0.47542003142E+03  0.17509062463E+03 0.  0.
        -24    2    5    5    0    0  0.42415488920E+02 -0.54373269062E+02 -0.19148712551E+03  0.21882345753E+03  0.80379476492E+02 0.  0.
          5    1    3    3  501    0 -0.32344926737E+02 -0.72029719544E+02 -0.49187978155E+03  0.49819904083E+03  0.47000000000E+01 0. -1.
        -11    1    4    4    0    0 -0.15804670825E+02  0.61751929110E+02 -0.22373777395E+03  0.23264066683E+03  0.00000000000E+00 0.  1.
         12    1    4    4    0    0 -0.53943417637E+02 -0.10003542610E+02 -0.22308849474E+03  0.22973558640E+03  0.00000000000E+00 0. -1.
         -5    1    5    5    0  502  0.59677526279E+02  0.74654602105E+02 -0.23808610831E+03  0.25659657389E+03  0.47000000000E+01 0.  1.
         11    1    6    6    0    0 -0.24069759708E+02 -0.17079686714E+02 -0.48129619168E+02  0.56458208189E+02  0.00000000000E+00 0. -1.
        -12    1    6    6    0    0  0.66485248628E+02 -0.37293582348E+02 -0.14335750634E+03  0.16236524934E+03  0.00000000000E+00 0.  1.
</event>
<event>
12    1  0.8313893E-002  0.1808801E+03  0.7818608E-02  0.1167196E+00
         21   -1    0    0  503  502  0.00000000000E+00  0.00000000000E+00  0.70347247949E+02  0.70347247949E+02  0.00000000000E+00 0. -1.
         21   -1    0    0  501  503 -0.00000000000E+00 -0.00000000000E+00 -0.46324073488E+03  0.46324073488E+03  0.00000000000E+00 0. -1.
          6    2    1    2  501    0 -0.49740608515E+02 -0.16354473605E+02 -0.18641493689E+03  0.25974628797E+03  0.17313580935E+03 0.  0.
         24    2    3    3    0    0  0.16253350509E+02 -0.17568727935E+02 -0.28465130376E+02  0.88495277999E+02  0.80301425746E+02 0.  0.
         -6    2    1    2    0  502  0.49740608515E+02  0.16354473605E+02 -0.20647855004E+03  0.27384169485E+03  0.17208801605E+03 0.  0.
        -24    2    5    5    0    0  0.73134269553E+02  0.15176207609E+02 -0.54593152882E+02  0.12008892070E+03  0.76563685084E+02 0.  0.
          5    1    3    3  501    0 -0.65993959023E+02  0.12142543295E+01 -0.15794980651E+03  0.17125100998E+03  0.47000000000E+01 0. -1.
        -11    1    4    4    0    0 -0.10177063052E+02 -0.44165438771E+02 -0.88508858348E+01  0.46178964630E+02  0.00000000000E+00 0.  1.
         12    1    4    4    0    0  0.26430413561E+02  0.26596710836E+02 -0.19614244541E+02  0.42316313370E+02  0.00000000000E+00 0. -1.
         -5    1    5    5    0  502 -0.23393661038E+02  0.11782659965E+01 -0.15188539716E+03  0.15375277415E+03  0.47000000000E+01 0.  1.
         11    1    6    6    0    0  0.32153675356E+02 -0.31307219568E+02 -0.20179885854E+02  0.49205981639E+02  0.00000000000E+00 0. -1.
        -12    1    6    6    0    0  0.40980594197E+02  0.46483427177E+02 -0.34413267028E+02  0.70882939064E+02  0.00000000000E+00 0.  1.
</event>
<event>
12    1  0.8313893E-002  0.2005779E+03  0.7818608E-02  0.1149381E+00
         21   -1    0    0  501  502  0.00000000000E+00  0.00000000000E+00  0.97190228016E+02  0.97190228016E+02  0.00000000000E+00 0. -1.
         21   -1    0    0  502  503 -0.00000000000E+00 -0.00000000000E+00 -0.42520960511E+03  0.42520960511E+03  0.00000000000E+00 0. -1.
         -6    2    1    2    0  503 -0.75846048817E+01  0.10444734132E+03 -0.20859289629E+03  0.28895992354E+03  0.17035277424E+03 0.  0.
        -24    2    3    3    0    0 -0.21596630881E+02 -0.95291190038E+01 -0.69590848897E+02  0.10859742866E+03  0.79958093320E+02 0.  0.
          6    2    1    2  501    0  0.75846048817E+01 -0.10444734132E+03 -0.11942648081E+03  0.23343990959E+03  0.17106938280E+03 0.  0.
         24    2    5    5    0    0  0.44034334095E+01 -0.80853667957E+02 -0.15426979918E+03  0.19097900863E+03  0.78211923327E+02 0.  0.
          5    1    5    5  501    0  0.31811714723E+01 -0.23593673362E+02  0.34843318374E+02  0.42460900955E+02  0.47000000000E+01 0. -1.
        -11    1    6    6    0    0 -0.12152460970E+02 -0.96521553003E+01 -0.96681107434E+02  0.97918756856E+02  0.00000000000E+00 0.  1.
         12    1    6    6    0    0  0.16555894380E+02 -0.71201512657E+02 -0.57588691748E+02  0.93060251776E+02  0.00000000000E+00 0. -1.
         -5    1    3    3    0  503  0.14012025999E+02  0.11397646032E+03 -0.13900204739E+03  0.18036249488E+03  0.47000000000E+01 0.  1.
         11    1    4    4    0    0  0.11646717674E+00  0.10408437633E+02  0.15429169592E+02  0.18612050206E+02  0.00000000000E+00 0. -1.
        -12    1    4    4    0    0 -0.21713098058E+02 -0.19937556637E+02 -0.85020018489E+02  0.89985378456E+02  0.00000000000E+00 0.  1.
</event>
<event>
12    1  0.8313893E-002  0.2051281E+03  0.7818608E-02  0.1145662E+00
         21   -1    0    0  503  502  0.00000000000E+00  0.00000000000E+00  0.11831327165E+03  0.11831327165E+03  0.00000000000E+00 0. -1.
         21   -1    0    0  501  503 -0.00000000000E+00 -0.00000000000E+00 -0.46093733803E+03  0.46093733803E+03  0.00000000000E+00 0. -1.
          6    2    1    2  501    0 -0.10950402337E+03  0.11085456350E+02 -0.31100726958E+03  0.37256285014E+03  0.17309978941E+03 0.  0.
         24    2    3    3    0    0 -0.15632026027E+01  0.49146332520E+02 -0.12586668015E+03  0.15484978452E+03  0.75618972447E+02 0.  0.
         -6    2    1    2    0  502  0.10950402337E+03 -0.11085456350E+02 -0.31616796801E+02  0.20668775953E+03  0.17206449263E+03 0.  0.
        -24    2    5    5    0    0  0.18696215573E+02 -0.20217980609E+02  0.38745564903E+02  0.91351672805E+02  0.78010217972E+02 0.  0.
          5    1    3    3  501    0 -0.10794082077E+03 -0.38060876170E+02 -0.18514058943E+03  0.21771306562E+03  0.47000000000E+01 0. -1.
        -11    1    4    4    0    0 -0.25121323553E+01 -0.70510499384E+01  0.72085952863E+01  0.10391918023E+02  0.00000000000E+00 0.  1.
         12    1    4    4    0    0  0.94892975260E+00  0.56197382458E+02 -0.13307527543E+03  0.14445786650E+03  0.00000000000E+00 0. -1.
         -5    1    5    5    0  502  0.90807807801E+02  0.91325242592E+01 -0.70362361703E+02  0.11533608673E+03  0.47000000000E+01 0.  1.
         11    1    6    6    0    0  0.33010376192E+02 -0.36149695258E+01  0.54871546319E+02  0.64137660828E+02  0.00000000000E+00 0. -1.
        -12    1    6    6    0    0 -0.14314160619E+02 -0.16603011083E+02 -0.16125981416E+02  0.27214011977E+02  0.00000000000E+00 0.  1.
</event>
<event>
12    1  0.8313893E-002  0.1844101E+03  0.7818608E-02  0.1165084E+00
         21   -1    0    0  503  502  0.00000000000E+00  0.00000000000E+00  0.66209664331E+02  0.66209664331E+02  0.00000000000E+00 0.  1.
         21   -1    0    0  501  503 -0.00000000000E+00 -0.00000000000E+00 -0.67814611972E+03  0.67814611972E+03  0.00000000000E+00 0.  1.
          6    2    1    2  501    0  0.50489805953E+02  0.33949113521E+02 -0.49474053128E+03  0.52585642370E+03  0.16749633502E+03 0.  0.
         24    2    3    3    0    0  0.40497912589E+02  0.85424930105E+02 -0.38264767675E+03  0.40201581784E+03  0.79119995306E+02 0.  0.
         -6    2    1    2    0  502 -0.50489805953E+02 -0.33949113521E+02 -0.11719592411E+03  0.21849936035E+03  0.17408424119E+03 0.  0.
        -24    2    5    5    0    0  0.79226732894E+01  0.35935875230E+02 -0.78438182872E+02  0.11940252947E+03  0.82159963675E+02 0.  0.
          5    1    3    3  501    0  0.99918933647E+01 -0.51475816585E+02 -0.11209285452E+03  0.12384060586E+03  0.47000000000E+01 0. -1.
        -11    1    4    4    0    0  0.96125850996E+01  0.49114178486E+02 -0.31677641544E+03  0.32070531910E+03  0.00000000000E+00 0.  1.
         12    1    4    4    0    0  0.30885327489E+02  0.36310751619E+02 -0.65871261311E+02  0.81310498731E+02  0.00000000000E+00 0. -1.
         -5    1    5    5    0  502 -0.58412479243E+02 -0.69884988751E+02 -0.38757741239E+02  0.99096830877E+02  0.47000000000E+01 0.  1.
         11    1    6    6    0    0 -0.46593228251E+01  0.40716547348E+02 -0.91740789126E+02  0.10047844996E+03  0.00000000000E+00 0. -1.
        -12    1    6    6    0    0  0.12581996114E+02 -0.47806721178E+01  0.13302606254E+02  0.18924079509E+02  0.00000000000E+00 0.  1.
</event>
<event>
12    1  0.8313893E-002  0.1739054E+03  0.7818608E-02  0.1176630E+00
         21   -1    0    0  503  502  0.00000000000E+00  0.00000000000E+00  0.52446154402E+03  0.52446154402E+03  0.00000000000E+00 0. -1.
         21   -1    0    0  501  503 -0.00000000000E+00 -0.00000000000E+00 -0.54249223922E+02  0.54249223922E+02  0.00000000000E+00 0. -1.
          6    2    1    2  501    0  0.17174093587E+02 -0.24208477426E+02  0.23221312774E+03  0.29011382945E+03  0.17135372034E+03 0.  0.
         24    2    3    3    0    0 -0.35135835354E+02  0.31155434272E+02  0.16349487704E+03  0.18742118432E+03  0.78682510787E+02 0.  0.
         -6    2    1    2    0  502 -0.17174093587E+02  0.24208477426E+02  0.23799919235E+03  0.28859693849E+03  0.16051036563E+03 0.  0.
        -24    2    5    5    0    0  0.55731084429E+01  0.54686990538E+02  0.76506320065E+02  0.12261979319E+03  0.78489936936E+02 0.  0.
          5    1    3    3  501    0  0.52309928941E+02 -0.55363911698E+02  0.68718250707E+02  0.10269264513E+03  0.47000000000E+01 0. -1.
        -13    1    4    4    0    0 -0.26489006906E+02  0.36099716257E+02  0.30783960287E+02  0.54336996712E+02  0.00000000000E+00 0.  1.
         14    1    4    4    0    0 -0.86468284480E+01 -0.49442819853E+01  0.13271091675E+03  0.13308418761E+03  0.00000000000E+00 0. -1.
         -5    1    5    5    0  502 -0.22747202030E+02 -0.30478513112E+02  0.16149287228E+03  0.16597714529E+03  0.47000000000E+01 0.  1.
         11    1    6    6    0    0  0.15179068109E+00  0.25291144750E+02 -0.12869667913E+02  0.28377691861E+02  0.00000000000E+00 0. -1.
        -12    1    6    6    0    0  0.54213177618E+01  0.29395845788E+02  0.89375987978E+02  0.94242101329E+02  0.00000000000E+00 0.  1.
</event>
<event>
12    1  0.8313893E-002  0.2092749E+03  0.7818608E-02  0.1142213E+00
         21   -1    0    0  501  502  0.00000000000E+00  0.00000000000E+00  0.15703050062E+03  0.15703050062E+03  0.00000000000E+00 0. -1.
         21   -1    0    0  502  503 -0.00000000000E+00 -0.00000000000E+00 -0.53348258175E+03  0.53348258175E+03  0.00000000000E+00 0. -1.
         -6    2    1    2    0  503 -0.54063736690E+02  0.10509952022E+03 -0.42703927955E+03  0.47556126411E+03  0.17270545116E+03 0.  0.
        -24    2    3    3    0    0  0.14169954278E+02  0.94850098935E+02 -0.35016187226E+03  0.37215375484E+03  0.81778674402E+02 0.  0.
          6    2    1    2  501    0  0.54063736690E+02 -0.10509952022E+03  0.50587198427E+02  0.21495181826E+03  0.17226846128E+03 0.  0.
         24    2    5    5    0    0  0.96491342758E+01 -0.11367563075E+03  0.80094441470E+02  0.16073951365E+03  0.80042594130E+02 0.  0.
          5    1    5    5  501    0  0.44414602414E+02  0.85761105254E+01 -0.29507243043E+02  0.54212304612E+02  0.47000000000E+01 0. -1.
        -11    1    6    6    0    0 -0.11263143482E+01 -0.10620164716E+01  0.41026349549E+02  0.41055545549E+02  0.00000000000E+00 0.  1.
         12    1    6    6    0    0  0.10775448624E+02 -0.11261361428E+03  0.39068091920E+02  0.11968396810E+03  0.00000000000E+00 0. -1.
         -5    1    3    3    0  503 -0.68233690968E+02  0.10249421288E+02 -0.76877407291E+02  0.10340750926E+03  0.47000000000E+01 0.  1.
         13    1    4    4    0    0 -0.14563455784E+02  0.73784700459E+02 -0.30753826750E+03  0.31660079318E+03  0.00000000000E+00 0. -1.
        -14    1    4    4    0    0  0.28733410063E+02  0.21065398476E+02 -0.42623604766E+02  0.55552961668E+02  0.00000000000E+00 0.  1.
</event>
<event>
12    1  0.8313893E-002  0.1838795E+03  0.7818608E-02  0.1164114E+00
         21   -1    0    0  503  502  0.00000000000E+00  0.00000000000E+00  0.37601311402E+02  0.37601311402E+02  0.00000000000E+00 0. -1.
         21   -1    0    0  501  503 -0.00000000000E+00 -0.00000000000E+00 -0.10801024941E+04  0.10801024941E+04  0.00000000000E+00 0. -1.
          6    2    1    2  501    0 -0.20258973300E+02 -0.62321179387E+02 -0.75005808107E+03  0.77225535067E+03  0.17174645927E+03 0.  0.
         24    2    3    3    0    0  0.34050585462E+02 -0.84988117821E+02 -0.55709849703E+03  0.57046632881E+03  0.81796542583E+02 0.  0.
         -6    2    1    2    0  502  0.20258973300E+02  0.62321179387E+02 -0.29244310162E+03  0.34544845481E+03  0.17180602973E+03 0.  0.
        -24    2    5    5    0    0  0.36320383338E+02  0.31396936663E+02 -0.64575765084E+02  0.11488416716E+03  0.81996369134E+02 0.  0.
          5    1    3    3  501    0 -0.54309558762E+02  0.22666938434E+02 -0.19295958404E+03  0.20178902186E+03  0.47000000000E+01 0. -1.
        -13    1    4    4    0    0  0.32150199396E+02  0.28203466682E+01 -0.20800219599E+03  0.21049110008E+03  0.00000000000E+00 0.  1.
         14    1    4    4    0    0  0.19003860663E+01 -0.87808464489E+02 -0.34909630104E+03  0.35997522873E+03  0.00000000000E+00 0. -1.
         -5    1    5    5    0  502 -0.16061410038E+02  0.30924242724E+02 -0.22786733653E+03  0.23056428765E+03  0.47000000000E+01 0.  1.
         13    1    6    6    0    0  0.18890913796E+02  0.53314697988E+02 -0.65905329624E+02  0.86849502695E+02  0.00000000000E+00 0. -1.
        -14    1    6    6    0    0  0.17429469543E+02 -0.21917761325E+02  0.13295645395E+01  0.28034664469E+02  0.00000000000E+00 0.  1.
</event>
<event>
12    1  0.8313893E-002  0.1829421E+03  0.7818608E-02  0.1165172E+00
         21   -1    0    0  503  502  0.00000000000E+00  0.00000000000E+00  0.40143663745E+03  0.40143663745E+03  0.00000000000E+00 0. -1.
         21   -1    0    0  501  503 -0.00000000000E+00 -0.00000000000E+00 -0.83130725884E+02  0.83130725884E+02  0.00000000000E+00 0. -1.
          6    2    1    2  501    0  0.20523569208E+02 -0.59113874314E+02  0.16792051142E+03  0.24774765986E+03  0.17107290195E+03 0.  0.
         24    2    3    3    0    0 -0.17366830056E+02 -0.94073137027E+02  0.94589470667E+02  0.15798483936E+03  0.82829219543E+02 0.  0.
         -6    2    1    2    0  502 -0.20523569208E+02  0.59113874314E+02  0.15038540014E+03  0.23681970347E+03  0.17190734815E+03 0.  0.
        -24    2    5    5    0    0 -0.37390518080E+01  0.10401007342E+03  0.93577439192E+02  0.16234404876E+03  0.82260422810E+02 0.  0.
          5    1    3    3  501    0  0.37890399264E+02  0.34959262713E+02  0.73331040756E+02  0.89762820500E+02  0.47000000000E+01 0. -1.
        -11    1    4    4    0    0 -0.11176346135E+02 -0.14909011347E+02 -0.14108899489E+02  0.23371999852E+02  0.00000000000E+00 0.  1.
         12    1    4    4    0    0 -0.61904839214E+01 -0.79164125680E+02  0.10869837016E+03  0.13461283951E+03  0.00000000000E+00 0. -1.
         -5    1    5    5    0  502 -0.16784517400E+02 -0.44896199102E+02  0.56807960950E+02  0.74475654716E+02  0.47000000000E+01 0.  1.
         13    1    6    6    0    0 -0.70442367624E+00  0.83250015922E+02  0.10838164406E+03  0.13666617040E+03  0.00000000000E+00 0. -1.
        -14    1    6    6    0    0 -0.30346281318E+01  0.20760057494E+02 -0.14804204867E+02  0.25677878355E+02  0.00000000000E+00 0.  1.
</event>
<event>
12    1  0.8313893E-002  0.2659714E+03  0.7818608E-02  0.1103620E+00
         21   -1    0    0  503  502  0.00000000000E+00  0.00000000000E+00  0.57296516200E+03  0.57296516200E+03  0.00000000000E+00 0.  1.
         21   -1    0    0  501  503 -0.00000000000E+00 -0.00000000000E+00 -0.14230193160E+03  0.14230193160E+03  0.00000000000E+00 0.  1.
          6    2    1    2  501    0  0.20287627233E+03 -0.37280459581E+01  0.85105855330E+02  0.27925576621E+03  0.17195376165E+03 0.  0.
         24    2    3    3    0    0  0.11728409460E+03 -0.23284442169E+01  0.11822830189E+03  0.18734729957E+03  0.85791018106E+02 0.  0.
         -6    2    1    2    0  502 -0.20287627233E+03  0.37280459581E+01  0.34555737507E+03  0.43601132740E+03  0.17182344995E+03 0.  0.
        -24    2    5    5    0    0 -0.29964162548E+02 -0.55179710994E+01  0.56404165927E+02  0.98941965252E+02  0.75364338462E+02 0.  0.
          5    1    3    3  501    0  0.85592177728E+02 -0.13996017412E+01 -0.33122446563E+02  0.91908466638E+02  0.47000000000E+01 0. -1.
        -11    1    4    4    0    0  0.12827110536E+03 -0.15421573094E+01  0.12061224871E+03  0.17607716848E+03  0.00000000000E+00 0.  1.
         12    1    4    4    0    0 -0.10987010754E+02 -0.78628690752E+00 -0.23839468204E+01  0.11270131093E+02  0.00000000000E+00 0. -1.
         -5    1    5    5    0  502 -0.17291210978E+03  0.92460170574E+01  0.28915320914E+03  0.33706936215E+03  0.47000000000E+01 0.  1.
         13    1    6    6    0    0 -0.42064207813E+02 -0.22271144992E+02  0.10702052095E+02  0.48784581553E+02  0.00000000000E+00 0. -1.
        -14    1    6    6    0    0  0.12100045265E+02  0.16753173893E+02  0.45702113832E+02  0.50157383700E+02  0.00000000000E+00 0.  1.
</event>
<event>
12    1  0.8313893E-002  0.2031041E+03  0.7818608E-02  0.1147294E+00
         21   -1    0    0  501  502  0.00000000000E+00  0.00000000000E+00  0.10242406750E+04  0.10242406750E+04  0.00000000000E+00 0. -1.
         21   -1    0    0  502  503 -0.00000000000E+00 -0.00000000000E+00 -0.41031727261E+02  0.41031727261E+02  0.00000000000E+00 0. -1.
         -6    2    1    2    0  503 -0.75046578566E+02  0.75673425576E+02  0.41365906928E+03  0.46083089938E+03  0.17289544799E+03 0.  0.
        -24    2    3    3    0    0  0.70634678401E+01 -0.12234901297E+02  0.18112623886E+03  0.19898449234E+03  0.81169750548E+02 0.  0.
          6    2    1    2  501    0  0.75046578566E+02 -0.75673425576E+02  0.56954987845E+03  0.60444150287E+03  0.17205815893E+03 0.  0.
         24    2    5    5    0    0  0.81270738515E+02 -0.48701462041E+02  0.56141274709E+03  0.57520915964E+03  0.81881251757E+02 0.  0.
          5    1    5    5  501    0 -0.62241599490E+01 -0.26971963535E+02  0.81371313586E+01  0.29232343231E+02  0.47000000000E+01 0. -1.
        -11    1    6    6    0    0  0.93141980613E+02 -0.45637459307E+02  0.54466708111E+03  0.55445507978E+03  0.00000000000E+00 0.  1.
         12    1    6    6    0    0 -0.11871242097E+02 -0.30640027336E+01  0.16745665980E+02  0.20754079859E+02  0.00000000000E+00 0. -1.
         -5    1    3    3    0  503 -0.82110046406E+02  0.87908326873E+02  0.23253283042E+03  0.26184640704E+03  0.47000000000E+01 0.  1.
         13    1    4    4    0    0  0.83379291426E+01  0.19815646632E+02  0.15796339361E+03  0.15941961810E+03  0.00000000000E+00 0. -1.
        -14    1    4    4    0    0 -0.12744613025E+01 -0.32050547929E+02  0.23162845243E+02  0.39564874244E+02  0.00000000000E+00 0.  1.
</event>
<event>
12    1  0.8313893E-002  0.1780742E+03  0.7818608E-02  0.1169724E+00
         21   -1    0    0  503  502  0.00000000000E+00  0.00000000000E+00  0.80364924761E+03  0.80364924761E+03  0.00000000000E+00 0.  1.
         21   -1    0    0  501  503 -0.00000000000E+00 -0.00000000000E+00 -0.68347782364E+02  0.68347782364E+02  0.00000000000E+00 0.  1.
          6    2    1    2  501    0  0.29548883445E+02 -0.35218437994E+02  0.84100142628E+02  0.19693463792E+03  0.17203762011E+03 0.  0.
         24    2    3    3    0    0  0.37804934970E+02 -0.46548650504E+02  0.12168901391E+03  0.15654219621E+03  0.78110518605E+02 0.  0.
         -6    2    1    2    0  502 -0.29548883445E+02  0.35218437994E+02  0.65120132261E+03  0.67506239205E+03  0.17185050393E+03 0.  0.
        -24    2    5    5    0    0  0.25766664960E+02 -0.42113021565E+01  0.16978565955E+03  0.18885498266E+03  0.78468963281E+02 0.  0.
          5    1    3    3  501    0 -0.82560515250E+01  0.11330212510E+02 -0.37588871284E+02  0.40392441702E+02  0.47000000000E+01 0. -1.
        -13    1    4    4    0    0 -0.94144535936E+00 -0.44520006089E+02  0.10547766917E+03  0.11449216548E+03  0.00000000000E+00 0.  1.
         14    1    4    4    0    0  0.38746380330E+02 -0.20286444156E+01  0.16211344741E+02  0.42050030739E+02  0.00000000000E+00 0. -1.
         -5    1    5    5    0  502 -0.55315548405E+02  0.39429740151E+02  0.48141566306E+03  0.48620740939E+03  0.47000000000E+01 0.  1.
         11    1    6    6    0    0 -0.87000041141E+01 -0.16708924955E+02  0.42549253006E+01  0.19312758323E+02  0.00000000000E+00 0. -1.
        -12    1    6    6    0    0  0.34466669074E+02  0.12497622798E+02  0.16553073425E+03  0.16954222434E+03  0.00000000000E+00 0.  1.
</event>
<event>
12    1  0.8313893E-002  0.1779633E+03  0.7818608E-02  0.1170305E+00
         21   -1    0    0  501  502  0.00000000000E+00  0.00000000000E+00  0.71890436686E+03  0.71890436686E+03  0.00000000000E+00 0. -1.
         21   -1    0    0  502  503 -0.00000000000E+00 -0.00000000000E+00 -0.53213622501E+02  0.53213622501E+02  0.00000000000E+00 0.  1.
         -6    2    1    2    0  503  0.55425487818E+02  0.95716151263E+01  0.16662834761E+03  0.24227442780E+03  0.16663820577E+03 0.  0.
        -24    2    3    3    0    0  0.75813807014E+02  0.14202988507E+01  0.18719177508E+03  0.21182656965E+03  0.63874755332E+02 0.  0.
          6    2    1    2  501    0 -0.55425487818E+02 -0.95716151263E+01  0.49906239674E+03  0.52984356156E+03  0.16884111871E+03 0.  0.
         24    2    5    5    0    0 -0.61132477416E+02 -0.62855196474E+02  0.39129255460E+03  0.40939382662E+03  0.82495372416E+02 0.  0.
          5    1    5    5  501    0  0.57069895976E+01  0.53283581347E+02  0.10776984215E+03  0.12044973494E+03  0.47000000000E+01 0. -1.
        -11    1    6    6    0    0 -0.26938675811E+02 -0.44428007917E+02  0.78112686004E+02  0.93814347819E+02  0.00000000000E+00 0.  1.
         12    1    6    6    0    0 -0.34193801604E+02 -0.18427188556E+02  0.31317986859E+03  0.31557947880E+03  0.00000000000E+00 0. -1.
         -5    1    3    3    0  503 -0.20388319196E+02  0.81513162756E+01 -0.20563427468E+02  0.30447858150E+02  0.47000000000E+01 0.  1.
         13    1    4    4    0    0  0.23397662722E+02  0.28167107043E+02  0.10125725330E+03  0.10767482475E+03  0.00000000000E+00 0. -1.
        -14    1    4    4    0    0  0.52416144292E+02 -0.26746808193E+02  0.85934521782E+02  0.10415174490E+03  0.00000000000E+00 0.  1.
</event>
<event>
12    1  0.8313893E-002  0.1886621E+03  0.7818608E-02  0.1161104E+00
         21   -1    0    0  503  502  0.00000000000E+00  0.00000000000E+00  0.10886754323E+04  0.10886754323E+04  0.00000000000E+00 0. -1.
         21   -1    0    0  501  503 -0.00000000000E+00 -0.00000000000E+00 -0.33493042313E+02  0.33493042313E+02  0.00000000000E+00 0. -1.
          6    2    1    2  501    0  0.44327059633E+02  0.41705003846E+02  0.38710561768E+03  0.42796391996E+03  0.17204116365E+03 0.  0.
         24    2    3    3    0    0  0.36591160379E+02  0.35883474096E+02  0.40004034797E+03  0.41113740536E+03  0.79844532368E+02 0.  0.
         -6    2    1    2    0  502 -0.44327059633E+02 -0.41705003846E+02  0.66807677227E+03  0.69420455461E+03  0.17857545866E+03 0.  0.
        -24    2    5    5    0    0  0.29976628630E+02 -0.41672178995E+02  0.51898991323E+03  0.52756116079E+03  0.79593213085E+02 0.  0.
          5    1    3    3  501    0  0.77358992536E+01  0.58215297496E+01 -0.12934730295E+02  0.16826514603E+02  0.47000000000E+01 0. -1.
        -11    1    4    4    0    0  0.14121287199E+02  0.59891452107E+02  0.24083943445E+03  0.24857600442E+03  0.00000000000E+00 0.  1.
         12    1    4    4    0    0  0.22469873180E+02 -0.24007978011E+02  0.15920091352E+03  0.16256140094E+03  0.00000000000E+00 0. -1.
         -5    1    5    5    0  502 -0.74303688263E+02 -0.32824850917E-01  0.14908685904E+03  0.16664339382E+03  0.47000000000E+01 0.  1.
         11    1    6    6    0    0 -0.13676218821E+02 -0.41110074428E+02  0.15428859381E+03  0.16025619289E+03  0.00000000000E+00 0. -1.
        -12    1    6    6    0    0  0.43652847451E+02 -0.56210456708E+00  0.36470131943E+03  0.36730496790E+03  0.00000000000E+00 0.  1.
</event>
<event>
12    1  0.8313893E-002  0.2446311E+03  0.7818608E-02  0.1116884E+00
         21   -1    0    0  501  502  0.00000000000E+00  0.00000000000E+00  0.23543656029E+03  0.23543656029E+03  0.00000000000E+00 0.  1.
         21   -1    0    0  502  503 -0.00000000000E+00 -0.00000000000E+00 -0.46623030049E+03  0.46623030049E+03  0.00000000000E+00 0. -1.
         -6    2    1    2    0  503  0.60874260630E+02  0.16150504459E+03 -0.35259950189E+03  0.42915123767E+03  0.17336326320E+03 0.  0.
        -24    2    3    3    0    0  0.89706877392E+02  0.13903545801E+03 -0.19255307778E+03  0.26491619275E+03  0.75668480783E+02 0.  0.
          6    2    1    2  501    0 -0.60874260630E+02 -0.16150504459E+03  0.12180576169E+03  0.27251562311E+03  0.17215854967E+03 0.  0.
         24    2    5    5    0    0  0.16709123327E+02 -0.53812502053E+02  0.96139295660E+02  0.13724654807E+03  0.80117854493E+02 0.  0.
          5    1    5    5  501    0 -0.77583383958E+02 -0.10769254253E+03  0.25666466030E+02  0.13526907504E+03  0.47000000000E+01 0. -1.
        -13    1    6    6    0    0  0.18509645422E+02 -0.64403488427E+02  0.35830568397E+02  0.75988459169E+02  0.00000000000E+00 0.  1.
         14    1    6    6    0    0 -0.18005220949E+01  0.10590986373E+02  0.60308727263E+02  0.61258088905E+02  0.00000000000E+00 0. -1.
         -5    1    3    3    0  503 -0.28832616761E+02  0.22469586579E+02 -0.16004642411E+03  0.16423504492E+03  0.47000000000E+01 0.  1.
         11    1    4    4    0    0  0.34613976002E+02  0.11864010585E+02 -0.73932652907E+02  0.82491934440E+02  0.00000000000E+00 0. -1.
        -12    1    4    4    0    0  0.55092901390E+02  0.12717144742E+03 -0.11862042487E+03  0.18242425831E+03  0.00000000000E+00 0.  1.
</event>
<event>
12    1  0.8313893E-002  0.2416774E+03  0.7818608E-02  0.1118725E+00
         21   -1    0    0  501  502  0.00000000000E+00  0.00000000000E+00  0.42222502807E+03  0.42222502807E+03  0.00000000000E+00 0.  1.
         21   -1    0    0  502  503 -0.00000000000E+00 -0.00000000000E+00 -0.26715612649E+03  0.26715612649E+03  0.00000000000E+00 0. -1.
         -6    2    1    2    0  503 -0.48246843260E+02 -0.16318628590E+03 -0.16198579382E+03  0.29071880419E+03  0.17123230981E+03 0.  0.
        -24    2    3    3    0    0 -0.10735454033E+02 -0.52015672677E+02 -0.14312582832E+03  0.17179110404E+03  0.78780076894E+02 0.  0.
          6    2    1    2  501    0  0.48246843260E+02  0.16318628590E+03  0.31705469541E+03  0.39866235037E+03  0.17161138637E+03 0.  0.
         24    2    5    5    0    0 -0.18006908098E+02  0.28943007584E+02  0.91881231486E+02  0.12822567350E+03  0.82690484449E+02 0.  0.
          5    1    5    5  501    0  0.66253751358E+02  0.13424327831E+03  0.22517346392E+03  0.27043667687E+03  0.47000000000E+01 0. -1.
        -11    1    6    6    0    0 -0.48927214987E+02  0.29190059153E+02  0.70446523565E+02  0.90601570639E+02  0.00000000000E+00 0.  1.
         12    1    6    6    0    0  0.30920306889E+02 -0.24705156914E+00  0.21434707920E+02  0.37624102863E+02  0.00000000000E+00 0. -1.
         -5    1    3    3    0  503 -0.37511389227E+02 -0.11117061322E+03 -0.18859965494E+02  0.11892770015E+03  0.47000000000E+01 0.  1.
         13    1    4    4    0    0 -0.25123212331E+02  0.13078881073E+02 -0.44385871255E+02  0.52653000817E+02  0.00000000000E+00 0. -1.
        -14    1    4    4    0    0  0.14387758298E+02 -0.65094553751E+02 -0.98739957067E+02  0.11913810322E+03  0.00000000000E+00 0.  1.
</event>
<event>
12    1  0.8313893E-002  0.2352321E+03  0.7818608E-02  0.1123435E+00
         21   -1    0    0  503  502  0.00000000000E+00  0.00000000000E+00  0.65560305264E+03  0.65560305264E+03  0.00000000000E+00 0.  1.
         21   -1    0    0  501  503 -0.00000000000E+00 -0.00000000000E+00 -0.88857346732E+02  0.88857346732E+02  0.00000000000E+00 0. -1.
          6    2    1    2  501    0 -0.13543868376E+03 -0.84467558018E+02  0.19353979818E+03  0.30461743518E+03  0.17278808674E+03 0.  0.
         24    2    3    3    0    0 -0.10992090144E+03 -0.50973402210E+02  0.21539618810E+03  0.25694346463E+03  0.70310268536E+02 0.  0.
         -6    2    1    2    0  502  0.13543868376E+03  0.84467558018E+02  0.37320590773E+03  0.43984296419E+03  0.16941304014E+03 0.  0.
        -24    2    5    5    0    0  0.10390323205E+03 -0.88575528537E+01  0.18134042746E+03  0.22411509498E+03  0.80429393232E+02 0.  0.
          5    1    3    3  501    0 -0.25517782326E+02 -0.33494155808E+02 -0.21856389917E+02  0.47673970554E+02  0.47000000000E+01 0. -1.
        -11    1    4    4    0    0 -0.50703468786E+02 -0.59411533781E+02  0.14385130667E+03  0.16368802804E+03  0.00000000000E+00 0.  1.
         12    1    4    4    0    0 -0.59217432652E+02  0.84381315712E+01  0.71544881426E+02  0.93255436584E+02  0.00000000000E+00 0. -1.
         -5    1    5    5    0  502  0.31535451711E+02  0.93325110872E+02  0.19186548027E+03  0.21572786921E+03  0.47000000000E+01 0.  1.
         13    1    6    6    0    0  0.95006398489E+02  0.18189182040E+02  0.10563959245E+03  0.14323681646E+03  0.00000000000E+00 0. -1.
        -14    1    6    6    0    0  0.88968335637E+01 -0.27046734894E+02  0.75700835006E+02  0.80878278521E+02  0.00000000000E+00 0.  1.
</event>
<event>
12    1  0.8313893E-002  0.2278908E+03  0.7818608E-02  0.1128166E+00
         21   -1    0    0  503  502  0.00000000000E+00  0.00000000000E+00  0.73864571503E+02  0.73864571503E+02  0.00000000000E+00 0.  1.
         21   -1    0    0  501  503 -0.00000000000E+00 -0.00000000000E+00 -0.14685236611E+04  0.14685236611E+04  0.00000000000E+00 0.  1.
          6    2    1    2  501    0 -0.10233653602E+03 -0.10990134821E+03 -0.12544397828E+04  0.12749719091E+04  0.17141507295E+03 0.  0.
         24    2    3    3    0    0 -0.97324356989E+02 -0.17669313910E+02 -0.88556923148E+03  0.89468327692E+03  0.80256259208E+02 0.  0.
         -6    2    1    2    0  502  0.10233653602E+03  0.10990134821E+03 -0.14021930680E+03  0.26741632356E+03  0.17116939903E+03 0.  0.
        -24    2    5    5    0    0  0.90280413970E+02  0.21329889753E+02 -0.32580141108E+02  0.12742156179E+03  0.81051042387E+02 0.  0.
          5    1    3    3  501    0 -0.50121790335E+01 -0.92232034298E+02 -0.36887055135E+03  0.38028863215E+03  0.47000000000E+01 0. -1.
        -11    1    4    4    0    0 -0.14065907615E+02 -0.38937013676E+02 -0.29942069934E+03  0.30226924419E+03  0.00000000000E+00 0.  1.
         12    1    4    4    0    0 -0.83258449373E+02  0.21267699766E+02 -0.58614853214E+03  0.59241403273E+03  0.00000000000E+00 0. -1.
         -5    1    5    5    0  502  0.12056122052E+02  0.88571458455E+02 -0.10763916569E+03  0.13999476177E+03  0.47000000000E+01 0.  1.
         13    1    6    6    0    0  0.26529259741E+02  0.35968289889E+02 -0.42006456232E+02  0.61335649219E+02  0.00000000000E+00 0. -1.
        -14    1    6    6    0    0  0.63751154230E+02 -0.14638400136E+02  0.94263151236E+01  0.66085912576E+02  0.00000000000E+00 0.  1.
</event>
<event>
12    1  0.8313893E-002  0.2198090E+03  0.7818608E-02  0.1134277E+00
         21   -1    0    0  503  502  0.00000000000E+00  0.00000000000E+00  0.25672659887E+03  0.25672659887E+03  0.00000000000E+00 0.  1.
         21   -1    0    0  501  503 -0.00000000000E+00 -0.00000000000E+00 -0.21539434069E+03  0.21539434069E+03  0.00000000000E+00 0. -1.
          6    2    1    2  501    0  0.64557577919E+02 -0.12085855314E+03 -0.64905203363E+02  0.22919135405E+03  0.17187646905E+03 0.  0.
         24    2    3    3    0    0  0.76339040750E+01 -0.16853065991E+02  0.17667645681E+02  0.84630600727E+02  0.80671497760E+02 0.  0.
         -6    2    1    2    0  502 -0.64557577919E+02  0.12085855314E+03  0.10623746154E+03  0.24292958552E+03  0.17015849832E+03 0.  0.
        -24    2    5    5    0    0 -0.61778074017E+02  0.38577896993E+01  0.45521291435E+02  0.11099987848E+03  0.80108501907E+02 0.  0.
          5    1    3    3  501    0  0.56923673845E+02 -0.10400548715E+03 -0.82572849045E+02  0.14456075332E+03  0.47000000000E+01 0. -1.
        -11    1    4    4    0    0 -0.21450501885E+02 -0.38532730544E+02 -0.40416961592E+00  0.44102819721E+02  0.00000000000E+00 0.  1.
         12    1    4    4    0    0  0.29084405960E+02  0.21679664553E+02  0.18071815297E+02  0.40527781006E+02  0.00000000000E+00 0. -1.
         -5    1    5    5    0  502 -0.27795039025E+01  0.11700076344E+03  0.60716170104E+02  0.13192970704E+03  0.47000000000E+01 0. -1.
         13    1    6    6    0    0 -0.19177117688E+02 -0.36977213413E+02  0.24677903031E+02  0.48415648840E+02  0.00000000000E+00 0. -1.
        -14    1    6    6    0    0 -0.42600956329E+02  0.40835003112E+02  0.20843388404E+02  0.62584229639E+02  0.00000000000E+00 0.  1.
</event>
<event>
12    1  0.8313893E-002  0.1994605E+03  0.7818608E-02  0.1150242E+00
         21   -1    0    0  501  502  0.00000000000E+00  0.00000000000E+00  0.73471066664E+03  0.73471066664E+03  0.00000000000E+00 0. -1.
         21   -1    0    0  502  503 -0.00000000000E+00 -0.00000000000E+00 -0.54458173546E+02  0.54458173546E+02  0.00000000000E+00 0. -1.
         -6    2    1    2    0  503 -0.73600033823E+02  0.69950166932E+02  0.37279146410E+03  0.42279779954E+03  0.17168142810E+03 0.  0.
        -24    2    3    3    0    0 -0.90501376804E+02  0.94104873627E+01  0.16408298938E+03  0.20477939294E+03  0.82050690990E+02 0.  0.
          6    2    1    2  501    0  0.73600033823E+02 -0.69950166932E+02  0.30746102899E+03  0.36637104065E+03  0.17142188963E+03 0.  0.
         24    2    5    5    0    0  0.10846487324E+03 -0.80140664600E+02  0.27908801061E+03  0.32004047361E+03  0.79678304649E+02 0.  0.
          5    1    5    5  501    0 -0.34864839414E+02  0.10190497668E+02  0.28373018380E+02  0.46330567038E+02  0.47000000000E+01 0. -1.
        -13    1    6    6    0    0  0.37807469493E+02 -0.27850268951E+02  0.18670813991E+03  0.19252265253E+03  0.00000000000E+00 0.  1.
         14    1    6    6    0    0  0.70657403744E+02 -0.52290395650E+02  0.92379870705E+02  0.12751782108E+03  0.00000000000E+00 0. -1.
         -5    1    3    3    0  503  0.16901342980E+02  0.60539679570E+02  0.20870847472E+03  0.21801840660E+03  0.47000000000E+01 0.  1.
         11    1    4    4    0    0 -0.38983134717E+02  0.29473946885E+02  0.13223122703E+03  0.14097338663E+03  0.00000000000E+00 0. -1.
        -12    1    4    4    0    0 -0.51518242087E+02 -0.20063459523E+02  0.31851762356E+02  0.63806006308E+02  0.00000000000E+00 0.  1.
</event>
<event>
12    1  0.8313893E-002  0.2049806E+03  0.7818608E-02  0.1145791E+00
         21   -1    0    0  503  502  0.00000000000E+00  0.00000000000E+00  0.70002819026E+03  0.70002819026E+03  0.00000000000E+00 0.  1.
         21   -1    0    0  501  503 -0.00000000000E+00 -0.00000000000E+00 -0.11819143851E+03  0.11819143851E+03  0.00000000000E+00 0.  1.
          6    2    1    2  501    0  0.77845304436E+02  0.76176219669E+02  0.29201047484E+01  0.20408483157E+03  0.17256704089E+03 0.  0.
         24    2    3    3    0    0  0.70365000089E+02  0.10812969916E+03 -0.33032353728E+02  0.15518034226E+03  0.79665156453E+02 0.  0.
         -6    2    1    2    0  502 -0.77845304436E+02 -0.76176219669E+02  0.57891664701E+03  0.61413479720E+03  0.17365009957E+03 0.  0.
        -24    2    5    5    0    0 -0.91537575620E+01 -0.10225552361E+03  0.40492813188E+03  0.42520954187E+03  0.79349726662E+02 0.  0.
          5    1    3    3  501    0  0.74803043467E+01 -0.31953479491E+02  0.35952458476E+02  0.48904489315E+02  0.47000000000E+01 0. -1.
        -11    1    4    4    0    0  0.38577859621E+02  0.52398018388E+00 -0.15670792860E+02  0.41642521021E+02  0.00000000000E+00 0.  1.
         12    1    4    4    0    0  0.31787140468E+02  0.10760571898E+03 -0.17361560868E+02  0.11353782124E+03  0.00000000000E+00 0. -1.
         -5    1    5    5    0  502 -0.68691546874E+02  0.26079303936E+02  0.17398851512E+03  0.18892525533E+03  0.47000000000E+01 0.  1.
         13    1    6    6    0    0  0.39170347164E+01 -0.74736251461E+01  0.18715234332E+03  0.18734246140E+03  0.00000000000E+00 0. -1.
        -14    1    6    6    0    0 -0.13070792278E+02 -0.94781898459E+02  0.21777578857E+03  0.23786708047E+03  0.00000000000E+00 0.  1.
</event>
<event>
12    1  0.8313893E-002  0.3479084E+03  0.7818608E-02  0.1063477E+00
         21   -1    0    0  501  502  0.00000000000E+00  0.00000000000E+00  0.13054724388E+04  0.13054724388E+04  0.00000000000E+00 0.  1.
         21   -1    0    0  502  503 -0.00000000000E+00 -0.00000000000E+00 -0.13037891327E+03  0.13037891327E+03  0.00000000000E+00 0.  1.
         -6    2    1    2    0  503  0.21310051843E+03 -0.21525369222E+03  0.20169192747E+03  0.40214413169E+03  0.17115573632E+03 0.  0.
        -24    2    3    3    0    0  0.85005703536E+02 -0.88652894311E+02  0.16101910525E+03  0.21744867397E+03  0.79192602253E+02 0.  0.
          6    2    1    2  501    0 -0.21310051843E+03  0.21525369222E+03  0.97340159806E+03  0.10337072204E+04  0.17115479361E+03 0.  0.
         24    2    5    5    0    0 -0.13683828782E+03  0.22017582465E+03  0.77834420118E+03  0.82416096466E+03  0.78863739345E+02 0.  0.
          5    1    5    5  501    0 -0.76262230617E+02 -0.49221324318E+01  0.19505739688E+03  0.20954625571E+03  0.47000000000E+01 0. -1.
        -11    1    6    6    0    0 -0.93814170052E+02  0.18052044711E+03  0.50136516708E+03  0.54106909086E+03  0.00000000000E+00 0.  1.
         12    1    6    6    0    0 -0.43024117765E+02  0.39655377539E+02  0.27697903410E+03  0.28309187380E+03  0.00000000000E+00 0. -1.
         -5    1    3    3    0  503  0.12809481490E+03 -0.12660079791E+03  0.40672822214E+02  0.18469545772E+03  0.47000000000E+01 0.  1.
         11    1    4    4    0    0  0.68065555546E+02 -0.27296630786E+02  0.47720774365E+02  0.87494561031E+02  0.00000000000E+00 0. -1.
        -12    1    4    4    0    0  0.16940147990E+02 -0.61356263526E+02  0.11329833089E+03  0.12995411294E+03  0.00000000000E+00 0.  1.
</event>
<event>
12    1  0.8313893E-002  0.3198510E+03  0.7818608E-02  0.1075737E+00
         21   -1    0    0  501  502  0.00000000000E+00  0.00000000000E+00  0.88521225006E+03  0.88521225006E+03  0.00000000000E+00 0. -1.
         21   -1    0    0  502  503 -0.00000000000E+00 -0.00000000000E+00 -0.12615177996E+03  0.12615177996E+03  0.00000000000E+00 0.  1.
         -6    2    1    2    0  503 -0.19192858014E+03  0.18908573421E+03  0.52630271628E+03  0.61578741439E+03  0.17207439029E+03 0.  0.
        -24    2    3    3    0    0 -0.13443813951E+03  0.16470982804E+03  0.49637262850E+03  0.54638110545E+03  0.83328178089E+02 0.  0.
          6    2    1    2  501    0  0.19192858014E+03 -0.18908573421E+03  0.23275775382E+03  0.39557661564E+03  0.17237950029E+03 0.  0.
         24    2    5    5    0    0  0.66852684084E+02 -0.97756558362E+02  0.39898891202E+02  0.14818698565E+03  0.79635639789E+02 0.  0.
          5    1    5    5  501    0  0.12507589606E+03 -0.91329175848E+02  0.19285886262E+03  0.24738962999E+03  0.47000000000E+01 0. -1.
        -11    1    6    6    0    0  0.51437594183E+02 -0.90327483152E+01  0.20264150349E+02  0.56018322242E+02  0.00000000000E+00 0.  1.
         12    1    6    6    0    0  0.15415089901E+02 -0.88723810046E+02  0.19634740853E+02  0.92168663406E+02  0.00000000000E+00 0. -1.
         -5    1    3    3    0  503 -0.57490440629E+02  0.24375906174E+02  0.29930087785E+02  0.69406308938E+02  0.47000000000E+01 0.  1.
         11    1    4    4    0    0 -0.49212993093E+02  0.67350801940E+02  0.10456219807E+03  0.13375837348E+03  0.00000000000E+00 0. -1.
        -12    1    4    4    0    0 -0.85225146417E+02  0.97359026095E+02  0.39181043043E+03  0.41262273197E+03  0.00000000000E+00 0.  1.
</event>
<event>
12    1  0.8313893E-002  0.1851716E+03  0.7818608E-02  0.1165789E+00
         21   -1    0    0  501  502  0.00000000000E+00  0.00000000000E+00  0.47491528264E+03  0.47491528264E+03  0.00000000000E+00 0.  1.
         21   -1    0    0  502  503 -0.00000000000E+00 -0.00000000000E+00 -0.12479753741E+03  0.12479753741E+03  0.00000000000E+00 0.  1.
         -6    2    1    2    0  503  0.22303155160E+02 -0.29348723147E+01 -0.31061086763E+02  0.17593712829E+03  0.17170625438E+03 0.  0.
        -24    2    3    3    0    0  0.64819895399E+02  0.25670995765E+02  0.21135689681E+02  0.10263936324E+03  0.72301470564E+02 0.  0.
          6    2    1    2  501    0 -0.22303155160E+02  0.29348723147E+01  0.38117883199E+03  0.42377569177E+03  0.18380013812E+03 0.  0.
         24    2    5    5    0    0 -0.25107566199E+02  0.72687730578E+02  0.18354518358E+03  0.21412246632E+03  0.79029741939E+02 0.  0.
          5    1    5    5  501    0  0.28044110393E+01 -0.69752858263E+02  0.19763364841E+03  0.20965322545E+03  0.47000000000E+01 0. -1.
        -13    1    6    6    0    0 -0.60688469069E+01  0.27123139797E+02  0.15418781561E+03  0.15667283778E+03  0.00000000000E+00 0.  1.
         14    1    6    6    0    0 -0.19038719292E+02  0.45564590781E+02  0.29357367967E+02  0.57449628540E+02  0.00000000000E+00 0. -1.
         -5    1    3    3    0  503 -0.42516740239E+02 -0.28605868080E+02 -0.52196776444E+02  0.73297765043E+02  0.47000000000E+01 0.  1.
         13    1    4    4    0    0  0.10416632792E+02  0.28860952054E+02 -0.17975095340E+02  0.35560720531E+02  0.00000000000E+00 0. -1.
        -14    1    4    4    0    0  0.54403262606E+02 -0.31899562888E+01  0.39110785020E+02  0.67078642713E+02  0.00000000000E+00 0.  1.
</event>
<event>
12    1  0.8313893E-002  0.2400841E+03  0.7818608E-02  0.1119878E+00
         21   -1    0    0  501  502  0.00000000000E+00  0.00000000000E+00  0.41881244215E+02  0.41881244215E+02  0.00000000000E+00 0.  1.
         21   -1    0    0  502  503 -0.00000000000E+00 -0.00000000000E+00 -0.15845370547E+04  0.15845370547E+04  0.00000000000E+00 0. -1.
         -6    2    1    2    0  503 -0.63710014295E+02  0.15415877532E+03 -0.47191675672E+03  0.52909313278E+03  0.17149409304E+03 0.  0.
        -24    2    3    3    0    0  0.59088558300E+01  0.28001241729E+02 -0.26093783770E+03  0.27356093396E+03  0.76993800606E+02 0.  0.
          6    2    1    2  501    0  0.63710014295E+02 -0.15415877532E+03 -0.10707390537E+04  0.10973251661E+04  0.17267456399E+03 0.  0.
         24    2    5    5    0    0  0.11906536737E+02 -0.39729937633E+02 -0.22173131601E+03  0.23906309197E+03  0.79159029066E+02 0.  0.
          5    1    5    5  501    0  0.51803477558E+02 -0.11442883769E+03 -0.84900773772E+03  0.85826207413E+03  0.47000000000E+01 0. -1.
        -11    1    6    6    0    0 -0.28372218133E+01 -0.48430389978E+02 -0.63514267156E+02  0.79922553972E+02  0.00000000000E+00 0.  1.
         12    1    6    6    0    0  0.14743758550E+02  0.87004523452E+01 -0.15821704885E+03  0.15914053800E+03  0.00000000000E+00 0. -1.
         -5    1    3    3    0  503 -0.69618870125E+02  0.12615753359E+03 -0.21097891903E+03  0.25553219882E+03  0.47000000000E+01 0.  1.
         11    1    4    4    0    0  0.94219283623E+01 -0.25940872480E+02 -0.10274340243E+03  0.10638565853E+03  0.00000000000E+00 0. -1.
        -12    1    4    4    0    0 -0.35130725323E+01  0.53942114209E+02 -0.15819443527E+03  0.16717527543E+03  0.00000000000E+00 0.  1.
</event>
<event>
12    1  0.8313893E-002  0.2465950E+03  0.7818608E-02  0.1115493E+00
         21   -1    0    0  503  502  0.00000000000E+00  0.00000000000E+00  0.11836756943E+03  0.11836756943E+03  0.00000000000E+00 0. -1.
         21   -1    0    0  501  503 -0.00000000000E+00 -0.00000000000E+00 -0.62159118242E+03  0.62159118242E+03  0.00000000000E+00 0. -1.
          6    2    1    2  501    0  0.13704538565E+02 -0.17532168890E+03 -0.40584423949E+03  0.47483271062E+03  0.17271666791E+03 0.  0.
         24    2    3    3    0    0 -0.54136595792E+02 -0.10543727999E+03 -0.28617449546E+03  0.32046565534E+03  0.82186394175E+02 0.  0.
         -6    2    1    2    0  502 -0.13704538565E+02  0.17532168890E+03 -0.97379373501E+02  0.26512604123E+03  0.17286863908E+03 0.  0.
        -24    2    5    5    0    0 -0.78349538058E+01  0.58188743123E+02  0.18677638864E+02  0.10006272268E+03  0.78844010227E+02 0.  0.
          5    1    3    3  501    0  0.67841134356E+02 -0.69884408912E+02 -0.11966974403E+03  0.15436705528E+03  0.47000000000E+01 0. -1.
        -13    1    4    4    0    0 -0.17247947646E+02 -0.94338872659E+02 -0.14286439560E+03  0.17206844604E+03  0.00000000000E+00 0.  1.
         14    1    4    4    0    0 -0.36888648146E+02 -0.11098407331E+02 -0.14331009985E+03  0.14839720930E+03  0.00000000000E+00 0. -1.
         -5    1    5    5    0  502 -0.58695847590E+01  0.11713294578E+03 -0.11605701237E+03  0.16506331855E+03  0.47000000000E+01 0.  1.
         13    1    6    6    0    0 -0.12152845527E+02 -0.26698659346E+01  0.34799463472E+02  0.36957035817E+02  0.00000000000E+00 0. -1.
        -14    1    6    6    0    0  0.43178917209E+01  0.60858609057E+02 -0.16121824607E+02  0.63105686859E+02  0.00000000000E+00 0.  1.
</event>
<event>
12    1  0.8313893E-002  0.2173074E+03  0.7818608E-02  0.1135932E+00
         21   -1    0    0  503  502  0.00000000000E+00  0.00000000000E+00  0.16021483994E+03  0.16021483994E+03  0.00000000000E+00 0. -1.
         21   -1    0    0  501  503 -0.00000000000E+00 -0.00000000000E+00 -0.68812282905E+03  0.68812282905E+03  0.00000000000E+00 0.  1.
          6    2    1    2  501    0 -0.69103033576E+01  0.13249436255E+03 -0.58477170326E+03  0.62384330135E+03  0.17210465217E+03 0.  0.
         24    2    3    3    0    0 -0.50474656929E+02  0.11330821386E+03 -0.29474242474E+03  0.32989597000E+03  0.81066711806E+02 0.  0.
         -6    2    1    2    0  502  0.69103033576E+01 -0.13249436255E+03  0.56863714150E+02  0.22449436764E+03  0.17193525151E+03 0.  0.
        -24    2    5    5    0    0  0.54929551843E+02 -0.13153213550E+03  0.64789645722E+02  0.17558951617E+03  0.79473402218E+02 0.  0.
          5    1    3    3  501    0  0.43564353571E+02  0.19186148692E+02 -0.29002927852E+03  0.29394733134E+03  0.47000000000E+01 0. -1.
        -13    1    4    4    0    0 -0.27986791883E+02  0.11496628875E+03 -0.19887654458E+03  0.23141388907E+03  0.00000000000E+00 0.  1.
         14    1    4    4    0    0 -0.22487865046E+02 -0.16580748925E+01 -0.95865880158E+02  0.98482080934E+02  0.00000000000E+00 0. -1.
         -5    1    5    5    0  502 -0.48019248486E+02 -0.96222705449E+00 -0.79259315723E+01  0.48904851470E+02  0.47000000000E+01 0.  1.
         11    1    6    6    0    0  0.49387191503E+02 -0.74105716055E+02  0.75690860604E+02  0.11687539611E+03  0.00000000000E+00 0. -1.
        -12    1    6    6    0    0  0.55423603400E+01 -0.57426419444E+02 -0.10901214881E+02  0.58714120058E+02  0.00000000000E+00 0.  1.
</event>
<event>
12    1  0.8313893E-002  0.2200369E+03  0.7818608E-02  0.1134137E+00
         21   -1    0    0  503  502  0.00000000000E+00  0.00000000000E+00  0.27078641529E+03  0.27078641529E+03  0.00000000000E+00 0.  1.
         21   -1    0    0  501  503 -0.00000000000E+00 -0.00000000000E+00 -0.17761214212E+03  0.17761214212E+03  0.00000000000E+00 0.  1.
          6    2    1    2  501    0  0.12355604069E+03  0.56486963435E+02  0.49929373420E+02  0.22563066592E+03  0.17308778942E+03 0.  0.
         24    2    3    3    0    0  0.10875141121E+03  0.67531448704E+02 -0.20202368265E+02  0.15295529939E+03  0.81239288054E+02 0.  0.
         -6    2    1    2    0  502 -0.12355604069E+03 -0.56486963435E+02  0.43244899745E+02  0.22276789148E+03  0.17116816262E+03 0.  0.
        -24    2    5    5    0    0 -0.85908449077E+02 -0.64022653491E+02 -0.32133565110E+02  0.13804404158E+03  0.80897649077E+02 0.  0.
          5    1    3    3  501    0  0.14804629474E+02 -0.11044485269E+02  0.70131741685E+02  0.72675366531E+02  0.47000000000E+01 0. -1.
        -13    1    4    4    0    0  0.95331374294E+02  0.36851290251E+02  0.16212494448E+02  0.10348397699E+03  0.00000000000E+00 0.  1.
         14    1    4    4    0    0  0.13420036921E+02  0.30680158453E+02 -0.36414862713E+02  0.49471322400E+02  0.00000000000E+00 0. -1.
         -5    1    5    5    0  502 -0.37647591611E+02  0.75356900565E+01  0.75378464855E+02  0.84723849904E+02  0.47000000000E+01 0.  1.
         13    1    6    6    0    0 -0.19185441413E+02  0.96896508289E+01  0.16751594634E+02  0.27250438863E+02  0.00000000000E+00 0. -1.
        -14    1    6    6    0    0 -0.66723007664E+02 -0.73712304320E+02 -0.48885159744E+02  0.11079360272E+03  0.00000000000E+00 0.  1.
</event>
<event>
12    1  0.8313893E-002  0.2788664E+03  0.7818608E-02  0.1096336E+00
         21   -1    0    0  501  502  0.00000000000E+00  0.00000000000E+00  0.26132548050E+03  0.26132548050E+03  0.00000000000E+00 0. -1.
         21   -1    0    0  502  503 -0.00000000000E+00 -0.00000000000E+00 -0.29805787442E+03  0.29805787442E+03  0.00000000000E+00 0. -1.
         -6    2    1    2    0  503 -0.91512367157E+02 -0.19936446777E+03 -0.50098498267E+01  0.27891143708E+03  0.17217951907E+03 0.  0.
        -24    2    3    3    0    0 -0.84688552292E+02 -0.19680275823E+03  0.38082877306E+02  0.23495464083E+03  0.88599667983E+02 0.  0.
          6    2    1    2  501    0  0.91512367157E+02  0.19936446777E+03 -0.31722544091E+02  0.28047191784E+03  0.17186469254E+03 0.  0.
         24    2    5    5    0    0  0.57498978090E+02  0.21704590310E+03 -0.17078032463E+02  0.23916700879E+03  0.80586241793E+02 0.  0.
          5    1    5    5  501    0  0.34013389066E+02 -0.17681435330E+02 -0.14644511629E+02  0.41304909054E+02  0.47000000000E+01 0. -1.
        -13    1    6    6    0    0  0.44592958160E+01  0.94363063429E+02  0.27301542024E+02  0.98334364572E+02  0.00000000000E+00 0.  1.
         14    1    6    6    0    0  0.53039682274E+02  0.12268283967E+03 -0.44379574487E+02  0.14083264422E+03  0.00000000000E+00 0. -1.
         -5    1    3    3    0  503 -0.68238148647E+01 -0.25617095421E+01 -0.43092727133E+02  0.43956796253E+02  0.47000000000E+01 0.  1.
         13    1    4    4    0    0  0.31968210090E+00 -0.36430506395E+02  0.39099950669E+02  0.53442400163E+02  0.00000000000E+00 0. -1.
        -14    1    4    4    0    0 -0.85008234393E+02 -0.16037225183E+03 -0.10170733629E+01  0.18151224067E+03  0.00000000000E+00 0.  1.
</event>
<event>
12    1  0.8313893E-002  0.2103657E+03  0.7818608E-02  0.1141550E+00
         21   -1    0    0  501  502  0.00000000000E+00  0.00000000000E+00  0.15231840756E+03  0.15231840756E+03  0.00000000000E+00 0.  1.
         21   -1    0    0  502  503 -0.00000000000E+00 -0.00000000000E+00 -0.61520479750E+03  0.61520479750E+03  0.00000000000E+00 0.  1.
         -6    2    1    2    0  503  0.11260390436E+02 -0.11791421016E+03 -0.51068707155E+03  0.55179505729E+03  0.17217997227E+03 0.  0.
        -24    2    3    3    0    0  0.38308321822E+02 -0.13936188797E+03 -0.44313431195E+03  0.47578809179E+03  0.95483121651E+02 0.  0.
          6    2    1    2  501    0 -0.11260390436E+02  0.11791421016E+03  0.47800681606E+02  0.21572814777E+03  0.17384812690E+03 0.  0.
         24    2    5    5    0    0 -0.36846301956E+02  0.16086519212E+02 -0.17467574013E+02  0.92012535562E+02  0.80899718729E+02 0.  0.
          5    1    5    5  501    0  0.25585911520E+02  0.10182769095E+03  0.65268255619E+02  0.12371561221E+03  0.47000000000E+01 0. -1.
        -11    1    6    6    0    0 -0.77613153947E+01  0.46844979072E+02 -0.14166421027E+02  0.49551766524E+02  0.00000000000E+00 0.  1.
         12    1    6    6    0    0 -0.29084986561E+02 -0.30758459860E+02 -0.33011529855E+01  0.42460769038E+02  0.00000000000E+00 0. -1.
         -5    1    3    3    0  503 -0.27047931386E+02  0.21447677803E+02 -0.67552759594E+02  0.76006965498E+02  0.47000000000E+01 0.  1.
         13    1    4    4    0    0  0.89228973723E+01 -0.53269641568E+01  0.14654252052E+01  0.10494861394E+02  0.00000000000E+00 0. -1.
        -14    1    4    4    0    0  0.29385424449E+02 -0.13403492381E+03 -0.44459973716E+03  0.46529323040E+03  0.00000000000E+00 0.  1.
</event>
<event>
12    1  0.8313893E-002  0.2536347E+03  0.7818608E-02  0.1111219E+00
         21   -1    0    0  501  502  0.00000000000E+00  0.00000000000E+00  0.43372996769E+03  0.43372996769E+03  0.00000000000E+00 0. -1.
         21   -1    0    0  502  503 -0.00000000000E+00 -0.00000000000E+00 -0.20779845142E+03  0.20779845142E+03  0.00000000000E+00 0.  1.
         -6    2    1    2    0  503  0.18489921634E+03  0.86423580057E+01 -0.59864670678E+02  0.25941583510E+03  0.17161114809E+03 0.  0.
        -24    2    3    3    0    0  0.34101038363E+02 -0.36289799785E+02 -0.60391550446E+01  0.93047973365E+02  0.78368511328E+02 0.  0.
          6    2    1    2  501    0 -0.18489921634E+03 -0.86423580057E+01  0.28579618695E+03  0.38211258400E+03  0.17340171805E+03 0.  0.
         24    2    5    5    0    0 -0.87711376027E+02 -0.71765291679E+02  0.12423295149E+03  0.18322882370E+03  0.72769726017E+02 0.  0.
          5    1    5    5  501    0 -0.97187840314E+02  0.63122933673E+02  0.16156323546E+03  0.19888376030E+03  0.47000000000E+01 0. -1.
        -13    1    6    6    0    0  0.85787391316E+01  0.28982477339E+01 -0.22230025783E+00  0.90578155435E+01  0.00000000000E+00 0.  1.
         14    1    6    6    0    0 -0.96290115158E+02 -0.74663539413E+02  0.12445525175E+03  0.17417100816E+03  0.00000000000E+00 0. -1.
         -5    1    3    3    0  503  0.15079817798E+03  0.44932157790E+02 -0.53825515634E+02  0.16636786173E+03  0.47000000000E+01 0.  1.
         11    1    4    4    0    0 -0.11513950916E+02  0.12301833930E+02 -0.18740135473E+02  0.25201167856E+02  0.00000000000E+00 0. -1.
        -12    1    4    4    0    0  0.45614989279E+02 -0.48591633715E+02  0.12700980428E+02  0.67846805509E+02  0.00000000000E+00 0.  1.
</event>
<event>
12    1  0.8313893E-002  0.1959482E+03  0.7818608E-02  0.1154022E+00
         21   -1    0    0  501  502  0.00000000000E+00  0.00000000000E+00  0.42409932898E+03  0.42409932898E+03  0.00000000000E+00 0. -1.
         21   -1    0    0  502  503 -0.00000000000E+00 -0.00000000000E+00 -0.93514361591E+02  0.93514361591E+02  0.00000000000E+00 0. -1.
         -6    2    1    2    0  503 -0.63666601622E+02 -0.68046027337E+02  0.10878634181E+03  0.22412086102E+03  0.17237167453E+03 0.  0.
        -24    2    3    3    0    0 -0.95494306279E+02 -0.64679703162E+02  0.35308197901E+02  0.14383722287E+03  0.78357203305E+02 0.  0.
          6    2    1    2  501    0  0.63666601622E+02  0.68046027337E+02  0.22179862557E+03  0.29349282955E+03  0.16810625418E+03 0.  0.
         24    2    5    5    0    0  0.74659980315E+02  0.66831077729E+00  0.77430387447E+02  0.13372772309E+03  0.79454891112E+02 0.  0.
          5    1    5    5  501    0 -0.10993378693E+02  0.67377716560E+02  0.14436823813E+03  0.15976510646E+03  0.47000000000E+01 0. -1.
        -13    1    6    6    0    0  0.51270212652E+02  0.20903784763E+02  0.57574479265E+01  0.55666427310E+02  0.00000000000E+00 0.  1.
         14    1    6    6    0    0  0.23389767663E+02 -0.20235473986E+02  0.71672939520E+02  0.78061295776E+02  0.00000000000E+00 0. -1.
         -5    1    3    3    0  503  0.31827704658E+02 -0.33663241750E+01  0.73478143914E+02  0.80283638154E+02  0.47000000000E+01 0.  1.
         11    1    4    4    0    0 -0.50232196741E+02 -0.10677264898E+02  0.50204520176E+02  0.71817626119E+02  0.00000000000E+00 0. -1.
        -12    1    4    4    0    0 -0.45262109538E+02 -0.54002438264E+02 -0.14896322276E+02  0.72019596747E+02  0.00000000000E+00 0.  1.
</event>
<event>
12    1  0.8313893E-002  0.1896187E+03  0.7818608E-02  0.1159101E+00
         21   -1    0    0  501  502  0.00000000000E+00  0.00000000000E+00  0.51763944520E+02  0.51763944520E+02  0.00000000000E+00 0. -1.
         21   -1    0    0  502  503 -0.00000000000E+00 -0.00000000000E+00 -0.13508457484E+04  0.13508457484E+04  0.00000000000E+00 0. -1.
         -6    2    1    2    0  503 -0.67571032618E+02 -0.36226745874E+02 -0.11412612099E+04  0.11569063970E+04  0.17342733547E+03 0.  0.
        -24    2    3    3    0    0 -0.11213632014E+03 -0.91153331660E+01 -0.81558004919E+03  0.82704066374E+03  0.78535337645E+02 0.  0.
          6    2    1    2  501    0  0.67571032618E+02  0.36226745874E+02 -0.15782059395E+03  0.24570329587E+03  0.17200159348E+03 0.  0.
         24    2    5    5    0    0  0.50138552493E+02 -0.30871039647E+02 -0.35274874736E+02  0.10482907011E+03  0.79233336526E+02 0.  0.
          5    1    5    5  501    0  0.17432480126E+02  0.67097785521E+02 -0.12254571921E+03  0.14087422576E+03  0.47000000000E+01 0. -1.
        -11    1    6    6    0    0  0.12580796800E+02 -0.52888976224E+02 -0.26237970400E+02  0.60365150085E+02  0.00000000000E+00 0.  1.
         12    1    6    6    0    0  0.37557755692E+02  0.22017936577E+02 -0.90369043353E+01  0.44463920022E+02  0.00000000000E+00 0. -1.
         -5    1    3    3    0  503  0.44565287517E+02 -0.27111412708E+02 -0.32568116073E+03  0.32986573330E+03  0.47000000000E+01 0.  1.
         11    1    4    4    0    0 -0.53422349129E+02 -0.25119609339E+02 -0.20198010415E+03  0.21043028450E+03  0.00000000000E+00 0. -1.
        -12    1    4    4    0    0 -0.58713971006E+02  0.16004276173E+02 -0.61359994503E+03  0.61661037925E+03  0.00000000000E+00 0.  1.
</event>
<event>
12    1  0.8313893E-002  0.2349438E+03  0.7818608E-02  0.1123276E+00
         21   -1    0    0  501  502  0.00000000000E+00  0.00000000000E+00  0.59704150332E+02  0.59704150332E+02  0.00000000000E+00 0.  1.
         21   -1    0    0  502  503 -0.00000000000E+00 -0.00000000000E+00 -0.93210308300E+03  0.93210308300E+03  0.00000000000E+00 0.  1.
         -6    2    1    2    0  503  0.77734022259E+02 -0.13980477611E+03 -0.38747838375E+03  0.45314244739E+03  0.17207738409E+03 0.  0.
        -24    2    3    3    0    0 -0.22639318430E+02 -0.34637223128E+02 -0.17103997321E+03  0.19236917944E+03  0.77710699376E+02 0.  0.
          6    2    1    2  501    0 -0.77734022259E+02  0.13980477611E+03 -0.48492054892E+03  0.53866478594E+03  0.17153384276E+03 0.  0.
         24    2    5    5    0    0 -0.34966640557E+02  0.16356628568E+03 -0.39145671549E+03  0.43306537101E+03  0.79565442884E+02 0.  0.
          5    1    5    5  501    0 -0.42767381702E+02 -0.23761509576E+02 -0.93463833428E+02  0.10559941493E+03  0.47000000000E+01 0. -1.
        -13    1    6    6    0    0 -0.21846405008E+02  0.51382576297E+02 -0.55893681996E+02  0.79003406545E+02  0.00000000000E+00 0.  1.
         14    1    6    6    0    0 -0.13120235549E+02  0.11218370938E+03 -0.33556303349E+03  0.35406196446E+03  0.00000000000E+00 0. -1.
         -5    1    3    3    0  503  0.10037334069E+03 -0.10516755298E+03 -0.21643841054E+03  0.26077326795E+03  0.47000000000E+01 0.  1.
         11    1    4    4    0    0 -0.67423794460E+01 -0.13657401160E+02 -0.16455682699E+03  0.16526019968E+03  0.00000000000E+00 0. -1.
        -12    1    4    4    0    0 -0.15896938984E+02 -0.20979821968E+02 -0.64831462157E+01  0.27108979762E+02  0.00000000000E+00 0.  1.
</event>
<event>
12    1  0.8313893E-002  0.2061813E+03  0.7818608E-02  0.1144970E+00
         21   -1    0    0  501  502  0.00000000000E+00  0.00000000000E+00  0.34374337270E+03  0.34374337270E+03  0.00000000000E+00 0.  1.
         21   -1    0    0  502  503 -0.00000000000E+00 -0.00000000000E+00 -0.27880909723E+03  0.27880909723E+03  0.00000000000E+00 0. -1.
         -6    2    1    2    0  503  0.14328374060E+02 -0.11187708218E+03 -0.20054059495E+03  0.28641612474E+03  0.17057515197E+03 0.  0.
        -24    2    3    3    0    0  0.47070696664E+02 -0.88739979198E+02 -0.20785763210E+03  0.24539156799E+03  0.83197307800E+02 0.  0.
          6    2    1    2  501    0 -0.14328374060E+02  0.11187708218E+03  0.26547487042E+03  0.33613634519E+03  0.17259476214E+03 0.  0.
         24    2    5    5    0    0 -0.33125812999E+01  0.13761992669E+03  0.25992003032E+03  0.30720560061E+03  0.88694089245E+02 0.  0.
          5    1    5    5  501    0 -0.11015792760E+02 -0.25742844510E+02  0.55548400909E+01  0.28930744582E+02  0.47000000000E+01 0. -1.
        -11    1    6    6    0    0  0.26136214870E+02  0.11721409713E+03  0.23389177300E+03  0.26292129577E+03  0.00000000000E+00 0.  1.
         12    1    6    6    0    0 -0.29448796170E+02  0.20405829557E+02  0.26028257325E+02  0.44284304840E+02  0.00000000000E+00 0. -1.
         -5    1    3    3    0  503 -0.32742322604E+02 -0.23137102981E+02  0.73170371545E+01  0.41024556751E+02  0.47000000000E+01 0.  1.
         11    1    4    4    0    0  0.55974917486E+02 -0.19181757913E+02 -0.79182986061E+02  0.98848755711E+02  0.00000000000E+00 0. -1.
        -12    1    4    4    0    0 -0.89042208219E+01 -0.69558221285E+02 -0.12867464604E+03  0.14654281228E+03  0.00000000000E+00 0.  1.
</event>
<event>
12    1  0.8313893E-002  0.2025884E+03  0.7818608E-02  0.1148357E+00
         21   -1    0    0  503  502  0.00000000000E+00  0.00000000000E+00  0.19048920225E+03  0.19048920225E+03  0.00000000000E+00 0. -1.
         21   -1    0    0  501  503 -0.00000000000E+00 -0.00000000000E+00 -0.28968918531E+03  0.28968918531E+03  0.00000000000E+00 0.  1.
          6    2    1    2  501    0 -0.20498096536E+02 -0.95588471125E+02 -0.17466950531E+03  0.26749109273E+03  0.17743934408E+03 0.  0.
         24    2    3    3    0    0  0.44238373098E+02 -0.82590587202E+02 -0.64746241200E+02  0.13917519550E+03  0.79996378325E+02 0.  0.
         -6    2    1    2    0  502  0.20498096536E+02  0.95588471125E+02  0.75469522257E+02  0.21268729483E+03  0.17315573573E+03 0.  0.
        -24    2    5    5    0    0  0.33328393596E+02  0.73649356844E+02  0.11791571411E+03  0.16299111328E+03  0.78275013829E+02 0.  0.
          5    1    3    3  501    0 -0.64736469633E+02 -0.12997883923E+02 -0.10992326411E+03  0.12831589722E+03  0.47000000000E+01 0. -1.
        -13    1    4    4    0    0 -0.44427975739E+01  0.12852741625E+02  0.71650554275E+00  0.13617811783E+02  0.00000000000E+00 0.  1.
         14    1    4    4    0    0  0.48681170672E+02 -0.95443328827E+02 -0.65462746743E+02  0.12555738372E+03  0.00000000000E+00 0. -1.
         -5    1    5    5    0  502 -0.12830297061E+02  0.21939114281E+02 -0.42446191850E+02  0.49696181550E+02  0.47000000000E+01 0.  1.
         11    1    6    6    0    0  0.36307390323E+02  0.80794690466E+02  0.65901291048E+02  0.11040375338E+03  0.00000000000E+00 0. -1.
        -12    1    6    6    0    0 -0.29789967265E+01 -0.71453336218E+01  0.52014423060E+02  0.52587359891E+02  0.00000000000E+00 0.  1.
</event>
<event>
12    1  0.8313893E-002  0.1858964E+03  0.7818608E-02  0.1162492E+00
         21   -1    0    0  503  502  0.00000000000E+00  0.00000000000E+00  0.78480158020E+02  0.78480158020E+02  0.00000000000E+00 0. -1.
         21   -1    0    0  501  503 -0.00000000000E+00 -0.00000000000E+00 -0.44537571582E+03  0.44537571582E+03  0.00000000000E+00 0. -1.
          6    2    1    2  501    0 -0.67585911180E+02  0.10932901842E+02 -0.21881199012E+03  0.28711696409E+03  0.17282962800E+03 0.  0.
         24    2    3    3    0    0 -0.45937812726E+02 -0.16425800575E+01 -0.23795382711E+03  0.25525346090E+03  0.80120688709E+02 0.  0.
         -6    2    1    2    0  502  0.67585911180E+02 -0.10932901842E+02 -0.14808356768E+03  0.23673890975E+03  0.17154936502E+03 0.  0.
        -24    2    5    5    0    0 -0.24462174093E+02 -0.23185303102E+02 -0.10156473370E+03  0.13277226484E+03  0.78594674994E+02 0.  0.
          5    1    3    3  501    0 -0.21648098454E+02  0.12575481899E+02  0.19141836994E+02  0.31863503185E+02  0.47000000000E+01 0. -1.
        -11    1    4    4    0    0 -0.21082640360E+00 -0.30998815234E+02 -0.13846043869E+03  0.14188820978E+03  0.00000000000E+00 0.  1.
         12    1    4    4    0    0 -0.45726986322E+02  0.29356235176E+02 -0.99493388424E+02  0.11336525112E+03  0.00000000000E+00 0. -1.
         -5    1    5    5    0  502  0.92048085273E+02  0.12252401260E+02 -0.46518833980E+02  0.10396664491E+03  0.47000000000E+01 0.  1.
         11    1    6    6    0    0  0.79412754903E+01  0.21771208289E+01  0.10527771259E+02  0.13365540737E+02  0.00000000000E+00 0. -1.
        -12    1    6    6    0    0 -0.32403449583E+02 -0.25362423931E+02 -0.11209250496E+03  0.11940672410E+03  0.00000000000E+00 0.  1.
</event>
<event>
12    1  0.8313893E-002  0.2419616E+03  0.7818608E-02  0.1118629E+00
         21   -1    0    0  503  502  0.00000000000E+00  0.00000000000E+00  0.26801294651E+02  0.26801294651E+02  0.00000000000E+00 0. -1.
         21   -1    0    0  501  503 -0.00000000000E+00 -0.00000000000E+00 -0.22733723422E+04  0.22733723422E+04  0.00000000000E+00 0.  1.
          6    2    1    2  501    0  0.47062829759E+01 -0.16894685276E+03 -0.13619024669E+04  0.13832294554E+04  0.17314793933E+03 0.  0.
         24    2    3    3    0    0  0.32934214017E+02 -0.30386325674E+02 -0.69654163370E+03  0.70299202328E+03  0.83782731370E+02 0.  0.
         -6    2    1    2    0  502 -0.47062829759E+01  0.16894685276E+03 -0.88466858063E+03  0.91694418139E+03  0.17199693624E+03 0.  0.
        -24    2    5    5    0    0  0.53872486662E+02  0.83779460248E+02 -0.35465367898E+03  0.37692303091E+03  0.79815389713E+02 0.  0.
          5    1    3    3  501    0 -0.28227931041E+02 -0.13856052708E+03 -0.66536083318E+03  0.68023743214E+03  0.47000000000E+01 0. -1.
        -13    1    4    4    0    0  0.28801936572E+02 -0.58433154450E+02 -0.53868689315E+03  0.54261178935E+03  0.00000000000E+00 0.  1.
         14    1    4    4    0    0  0.41322774450E+01  0.28046828776E+02 -0.15785474054E+03  0.16038023392E+03  0.00000000000E+00 0. -1.
         -5    1    5    5    0  502 -0.58578769638E+02  0.85167392510E+02 -0.53001490165E+03  0.54002115048E+03  0.47000000000E+01 0.  1.
         13    1    6    6    0    0  0.47809885603E+02  0.46188537130E+01 -0.12325299221E+03  0.13228159003E+03  0.00000000000E+00 0. -1.
        -14    1    6    6    0    0  0.60626010594E+01  0.79160606535E+02 -0.23140068677E+03  0.24464144088E+03  0.00000000000E+00 0.  1.
</event>
<event>
12    1  0.8313893E-002  0.2877965E+03  0.7818608E-02  0.1091507E+00
         21   -1    0    0  503  502  0.00000000000E+00  0.00000000000E+00  0.10692178687E+03  0.10692178687E+03  0.00000000000E+00 0.  1.
         21   -1    0    0  501  503 -0.00000000000E+00 -0.00000000000E+00 -0.11578102868E+04  0.11578102868E+04  0.00000000000E+00 0.  1.
          6    2    1    2  501    0  0.23061471772E+03 -0.14539187827E+02 -0.88924554312E+03  0.93465740918E+03  0.17155844650E+03 0.  0.
         24    2    3    3    0    0  0.10787715984E+03 -0.50877184618E+02 -0.61967545866E+03  0.63620292595E+03  0.80811629055E+02 0.  0.
         -6    2    1    2    0  502 -0.23061471772E+03  0.14539187827E+02 -0.16164295676E+03  0.33007466444E+03  0.17154096485E+03 0.  0.
        -24    2    5    5    0    0 -0.12963237514E+03 -0.47114991365E+02 -0.50921258510E+02  0.16796341934E+03  0.81205668345E+02 0.  0.
          5    1    3    3  501    0  0.12273755788E+03  0.36337996791E+02 -0.26957008446E+03  0.29845448323E+03  0.47000000000E+01 0. -1.
        -11    1    4    4    0    0  0.57664094540E+02 -0.24697208324E+02 -0.14272213827E+03  0.15589967495E+03  0.00000000000E+00 0.  1.
         12    1    4    4    0    0  0.50213065302E+02 -0.26179976294E+02 -0.47695332040E+03  0.48030325100E+03  0.00000000000E+00 0. -1.
         -5    1    5    5    0  502 -0.10098234259E+03  0.61654179192E+02 -0.11072169825E+03  0.16211124511E+03  0.47000000000E+01 0.  1.
         11    1    6    6    0    0 -0.31354155845E+02 -0.38242180403E+02  0.12056988690E+02  0.50901065087E+02  0.00000000000E+00 0. -1.
        -12    1    6    6    0    0 -0.98278219292E+02 -0.88728109623E+01 -0.62978247200E+02  0.11706235425E+03  0.00000000000E+00 0.  1.
</event>
<event>
12    1  0.8313893E-002  0.1943965E+03  0.7818608E-02  0.1155959E+00
         21   -1    0    0  503  502  0.00000000000E+00  0.00000000000E+00  0.47404929220E+03  0.47404929220E+03  0.00000000000E+00 0. -1.
         21   -1    0    0  501  503 -0.00000000000E+00 -0.00000000000E+00 -0.16403013879E+03  0.16403013879E+03  0.00000000000E+00 0. -1.
          6    2    1    2  501    0  0.36218700577E+02  0.67323035456E+02 -0.75959732901E+02  0.20871005091E+03  0.17873393341E+03 0.  0.
         24    2    3    3    0    0 -0.79997936120E+01  0.87102637625E+02 -0.10259388116E+03  0.15323054348E+03  0.72823271179E+02 0.  0.
         -6    2    1    2    0  502 -0.36218700577E+02 -0.67323035456E+02  0.38597888631E+03  0.42936938009E+03  0.17185510903E+03 0.  0.
        -24    2    5    5    0    0  0.63514858042E+00 -0.98878233646E+02  0.20328056722E+03  0.24028024098E+03  0.81451192077E+02 0.  0.
          5    1    3    3  501    0  0.44218494189E+02 -0.19779602169E+02  0.26634148263E+02  0.55479507424E+02  0.47000000000E+01 0. -1.
        -11    1    4    4    0    0  0.23430796366E+02  0.77899605188E+01 -0.41528303404E+02  0.48314445943E+02  0.00000000000E+00 0.  1.
         12    1    4    4    0    0 -0.31430589978E+02  0.79312677106E+02 -0.61065577760E+02  0.10491609754E+03  0.00000000000E+00 0. -1.
         -5    1    5    5    0  502 -0.36853849158E+02  0.31555198191E+02  0.18269831909E+03  0.18908913911E+03  0.47000000000E+01 0.  1.
         13    1    6    6    0    0 -0.84612394600E+01 -0.17278074343E+02  0.12621496859E+03  0.12767279555E+03  0.00000000000E+00 0. -1.
        -14    1    6    6    0    0  0.90963880405E+01 -0.81600159303E+02  0.77065598630E+02  0.11260744543E+03  0.00000000000E+00 0.  1.
</event>
<event>
12    1  0.8313893E-002  0.1795400E+03  0.7818608E-02  0.1168592E+00
         21   -1    0    0  501  502  0.00000000000E+00  0.00000000000E+00  0.23859451307E+03  0.23859451307E+03  0.00000000000E+00 0.  1.
         21   -1    0    0  502  503 -0.00000000000E+00 -0.00000000000E+00 -0.13420523714E+03  0.13420523714E+03  0.00000000000E+00 0.  1.
         -6    2    1    2    0  503 -0.49485117552E+02  0.22221784275E+02  0.45569462277E+02  0.18387017049E+03  0.16967344856E+03 0.  0.
        -24    2    3    3    0    0 -0.92778766433E+02 -0.12013921065E+02  0.24768581063E+02  0.12469931438E+03  0.78639701159E+02 0.  0.
          6    2    1    2  501    0  0.49485117552E+02 -0.22221784275E+02  0.58819813647E+02  0.18892957972E+03  0.17114914858E+03 0.  0.
         24    2    5    5    0    0 -0.28164236200E+02 -0.43427364951E+02  0.58753319323E+02  0.10829960259E+03  0.74817719577E+02 0.  0.
          5    1    5    5  501    0  0.77649353752E+02  0.21205580676E+02  0.66494324734E-01  0.80629977127E+02  0.47000000000E+01 0. -1.
        -11    1    6    6    0    0  0.21209089679E+02 -0.13000987769E+02 -0.11738861330E+01  0.24904400748E+02  0.00000000000E+00 0.  1.
         12    1    6    6    0    0 -0.49373325879E+02 -0.30426377182E+02  0.59927205456E+02  0.83395201843E+02  0.00000000000E+00 0. -1.
         -5    1    3    3    0  503  0.43293648881E+02  0.34235705340E+02  0.20800881215E+02  0.59170856111E+02  0.47000000000E+01 0.  1.
         11    1    4    4    0    0  0.90885991036E+01 -0.61751670094E+01  0.19677881009E+02  0.22537842006E+02  0.00000000000E+00 0. -1.
        -12    1    4    4    0    0 -0.10186736554E+03 -0.58387540560E+01  0.50907000533E+01  0.10216147237E+03  0.00000000000E+00 0.  1.
</event>
<event>
12    1  0.8313893E-002  0.1798296E+03  0.7818608E-02  0.1168022E+00
         21   -1    0    0  501  502  0.00000000000E+00  0.00000000000E+00  0.30262930882E+03  0.30262930882E+03  0.00000000000E+00 0.  1.
         21   -1    0    0  502  503 -0.00000000000E+00 -0.00000000000E+00 -0.15699606923E+03  0.15699606923E+03  0.00000000000E+00 0.  1.
         -6    2    1    2    0  503 -0.14850810042E+02  0.53332114889E+02 -0.57254004293E+02  0.18851303083E+03  0.17086333939E+03 0.  0.
        -24    2    3    3    0    0 -0.50226625559E+02 -0.36577803898E-01 -0.76989508524E+02  0.12134722248E+03  0.79215205162E+02 0.  0.
          6    2    1    2  501    0  0.14850810042E+02 -0.53332114889E+02  0.20288724388E+03  0.27111234723E+03  0.17109590893E+03 0.  0.
         24    2    5    5    0    0 -0.26573686468E+02 -0.75420535359E+02  0.19174826594E+03  0.22263499108E+03  0.80028268717E+02 0.  0.
          5    1    5    5  501    0  0.41424496510E+02  0.22088420470E+02  0.11138977940E+02  0.48477356152E+02  0.47000000000E+01 0. -1.
        -13    1    6    6    0    0  0.62529469705E+01 -0.34269873823E+02  0.15391940487E+03  0.15781225172E+03  0.00000000000E+00 0.  1.
         14    1    6    6    0    0 -0.32826633438E+02 -0.41150661536E+02  0.37828861074E+02  0.64822739358E+02  0.00000000000E+00 0. -1.
         -5    1    3    3    0  503  0.35375815517E+02  0.53368692693E+02  0.19735504231E+02  0.67165808344E+02  0.47000000000E+01 0.  1.
         11    1    4    4    0    0 -0.37425976916E+02 -0.70640290304E+01  0.46883281341E+01  0.38374271002E+02  0.00000000000E+00 0. -1.
        -12    1    4    4    0    0 -0.12800648643E+02  0.70274512265E+01 -0.81677836658E+02  0.82972951482E+02  0.00000000000E+00 0.  1.
</event>
<event>
12    1  0.8313893E-002  0.1740101E+03  0.7818608E-02  0.1173810E+00
         21   -1    0    0  501  502  0.00000000000E+00  0.00000000000E+00  0.26379617681E+02  0.26379617681E+02  0.00000000000E+00 0. -1.
         21   -1    0    0  502  503 -0.00000000000E+00 -0.00000000000E+00 -0.11509342114E+04  0.11509342114E+04  0.00000000000E+00 0. -1.
         -6    2    1    2    0  503  0.26278237793E+02  0.76835366732E+01 -0.60237319272E+03  0.62700316496E+03  0.17184272764E+03 0.  0.
        -24    2    3    3    0    0 -0.34276759966E+02 -0.30232176015E+02 -0.21893299508E+03  0.23693524243E+03  0.78216187768E+02 0.  0.
          6    2    1    2  501    0 -0.26278237793E+02 -0.76835366732E+01 -0.52218140097E+03  0.55031066410E+03  0.17151917962E+03 0.  0.
         24    2    5    5    0    0 -0.97572255245E+01  0.30168856975E+02 -0.49095637003E+03  0.49832181809E+03  0.79253477743E+02 0.  0.
          5    1    5    5  501    0 -0.16521012268E+02 -0.37852393648E+02 -0.31225030942E+02  0.51988846002E+02  0.47000000000E+01 0. -1.
        -13    1    6    6    0    0 -0.15666644126E+02 -0.21055199377E+02 -0.81250315178E+02  0.85383715517E+02  0.00000000000E+00 0.  1.
         14    1    6    6    0    0  0.59094186016E+01  0.51224056352E+02 -0.40970605485E+03  0.41293810258E+03  0.00000000000E+00 0. -1.
         -5    1    3    3    0  503  0.60554997759E+02  0.37915712688E+02 -0.38344019764E+03  0.39006792253E+03  0.47000000000E+01 0.  1.
         13    1    4    4    0    0 -0.20309002233E+02 -0.37146181239E+02 -0.21716141268E+03  0.22124957290E+03  0.00000000000E+00 0. -1.
        -14    1    4    4    0    0 -0.13967757733E+02  0.69140052244E+01 -0.17715824036E+01  0.15685669528E+02  0.00000000000E+00 0.  1.
</event>
<event>
12    1  0.8313893E-002  0.1992967E+03  0.7818608E-02  0.1150644E+00
         21   -1    0    0  503  502  0.00000000000E+00  0.00000000000E+00  0.21958452664E+03  0.21958452664E+03  0.00000000000E+00 0.  1.
         21   -1    0    0  501  503 -0.00000000000E+00 -0.00000000000E+00 -0.19727289588E+03  0.19727289588E+03  0.00000000000E+00 0. -1.
          6    2    1    2  501    0  0.39562270983E+02 -0.89347763774E+02  0.73570275351E+02  0.21107451777E+03  0.17202229641E+03 0.  0.
         24    2    3    3    0    0 -0.30668531227E+02 -0.11679846950E+02  0.60729325382E+02  0.10547314051E+03  0.79746816714E+02 0.  0.
         -6    2    1    2    0  502 -0.39562270983E+02  0.89347763774E+02 -0.51258644591E+02  0.20578290475E+03  0.17369789597E+03 0.  0.
        -24    2    5    5    0    0 -0.69954199224E+02  0.10787619130E+02 -0.56639797167E+02  0.12124644852E+03  0.80515041701E+02 0.  0.
          5    1    3    3  501    0  0.70230802211E+02 -0.77667916824E+02  0.12840949968E+02  0.10560137726E+03  0.47000000000E+01 0. -1.
        -13    1    4    4    0    0  0.11378934815E+02  0.22040845748E+02  0.72434416425E+00  0.24815392668E+02  0.00000000000E+00 0.  1.
         14    1    4    4    0    0 -0.42047466042E+02 -0.33720692697E+02  0.60004981218E+02  0.80657747846E+02  0.00000000000E+00 0. -1.
         -5    1    5    5    0  502  0.30391928241E+02  0.78560144644E+02  0.53811525760E+01  0.84536456228E+02  0.47000000000E+01 0.  1.
         13    1    6    6    0    0 -0.55797287796E+02  0.41985890878E+02 -0.51127501386E+02  0.86545789939E+02  0.00000000000E+00 0. -1.
        -14    1    6    6    0    0 -0.14156911428E+02 -0.31198271747E+02 -0.55122957814E+01  0.34700658582E+02  0.00000000000E+00 0.  1.
</event>
<event>
12    1  0.8313893E-002  0.2352039E+03  0.7818608E-02  0.1123694E+00
         21   -1    0    0  503  502  0.00000000000E+00  0.00000000000E+00  0.37263801759E+03  0.37263801759E+03  0.00000000000E+00 0.  1.
         21   -1    0    0  501  503 -0.00000000000E+00 -0.00000000000E+00 -0.18367797043E+03  0.18367797043E+03  0.00000000000E+00 0. -1.
          6    2    1    2  501    0 -0.10256720647E+03 -0.12080375837E+03 -0.30817690495E+02  0.23721424098E+03  0.17380243437E+03 0.  0.
         24    2    3    3    0    0 -0.55258594277E+02  0.72632187779E+01 -0.24626069786E+02  0.10046746189E+03  0.79881167970E+02 0.  0.
         -6    2    1    2    0  502  0.10256720647E+03  0.12080375837E+03  0.21977773766E+03  0.31910174704E+03  0.16855293268E+03 0.  0.
        -24    2    5    5    0    0  0.73638166678E+02 -0.24118570861E+01  0.12257653420E+03  0.15944855668E+03  0.70501339324E+02 0.  0.
          5    1    3    3  501    0 -0.47308612190E+02 -0.12806697715E+03 -0.61916207089E+01  0.13674677909E+03  0.47000000000E+01 0. -1.
        -11    1    4    4    0    0 -0.21225448699E+02  0.83372930637E+01  0.29032124452E+02  0.36917399398E+02  0.00000000000E+00 0.  1.
         12    1    4    4    0    0 -0.34033145578E+02 -0.10740742859E+01 -0.53658194238E+02  0.63550062489E+02  0.00000000000E+00 0. -1.
         -5    1    5    5    0  502  0.28929039789E+02  0.12321561546E+03  0.97201203460E+02  0.15965319036E+03  0.47000000000E+01 0.  1.
         13    1    6    6    0    0  0.57554598584E+02  0.18301429199E+02  0.11837269144E+03  0.13288930810E+03  0.00000000000E+00 0. -1.
        -14    1    6    6    0    0  0.16083568095E+02 -0.20713286285E+02  0.42038427575E+01  0.26559248583E+02  0.00000000000E+00 0.  1.
</event>
<event>
12    1  0.8313893E-002  0.2172466E+03  0.7818608E-02  0.1136091E+00
         21   -1    0    0  501  502  0.00000000000E+00  0.00000000000E+00  0.16411587974E+03  0.16411587974E+03  0.00000000000E+00 0. -1.
         21   -1    0    0  502  503 -0.00000000000E+00 -0.00000000000E+00 -0.66295443965E+03  0.66295443965E+03  0.00000000000E+00 0. -1.
         -6    2    1    2    0  503 -0.10596932388E+03 -0.79581162152E+02 -0.56081162813E+03  0.60115721007E+03  0.17122397612E+03 0.  0.
        -24    2    3    3    0    0 -0.12774806606E+03 -0.28632882502E+02 -0.32748921779E+03  0.36130000677E+03  0.78416176749E+02 0.  0.
          6    2    1    2  501    0  0.10596932388E+03  0.79581162152E+02  0.61973068210E+02  0.22591310932E+03  0.17214358195E+03 0.  0.
         24    2    5    5    0    0  0.18928012650E+02 -0.83634273281E+01  0.10135139359E+02  0.91675627422E+02  0.88732649199E+02 0.  0.
          5    1    5    5  501    0  0.87041311230E+02  0.87944589480E+02  0.51837928851E+02  0.13423748190E+03  0.47000000000E+01 0. -1.
        -13    1    6    6    0    0  0.16377741145E+02  0.23708044727E+02 -0.29089044203E+02  0.40944771125E+02  0.00000000000E+00 0.  1.
         14    1    6    6    0    0  0.25502715053E+01 -0.32071472055E+02  0.39224183562E+02  0.50730856297E+02  0.00000000000E+00 0. -1.
         -5    1    3    3    0  503  0.21778742184E+02 -0.50948279650E+02 -0.23332241033E+03  0.23985720330E+03  0.47000000000E+01 0.  1.
         13    1    4    4    0    0 -0.65118839443E+02 -0.47323707308E+02 -0.23213612652E+03  0.24569732957E+03  0.00000000000E+00 0. -1.
        -14    1    4    4    0    0 -0.62629226622E+02  0.18690824806E+02 -0.95353091274E+02  0.11560267719E+03  0.00000000000E+00 0.  1.
</event>
<event>
12    1  0.8313893E-002  0.2130502E+03  0.7818608E-02  0.1139253E+00
         21   -1    0    0  503  502  0.00000000000E+00  0.00000000000E+00  0.15596739143E+03  0.15596739143E+03  0.00000000000E+00 0. -1.
         21   -1    0    0  501  503 -0.00000000000E+00 -0.00000000000E+00 -0.33231144465E+03  0.33231144465E+03  0.00000000000E+00 0. -1.
          6    2    1    2  501    0  0.90472604878E+02  0.85144884107E+02 -0.17473384441E+03  0.27522257118E+03  0.17257057623E+03 0.  0.
         24    2    3    3    0    0  0.96980667574E+02  0.23134637861E+02 -0.55462498035E+02  0.14055494483E+03  0.82092280249E+02 0.  0.
         -6    2    1    2    0  502 -0.90472604878E+02 -0.85144884107E+02 -0.16102088119E+01  0.21305626490E+03  0.17307638694E+03 0.  0.
        -24    2    5    5    0    0  0.16236757006E+02 -0.11452020355E+02 -0.48241068141E+01  0.83248926036E+02  0.80699012580E+02 0.  0.
          5    1    3    3  501    0 -0.65080626958E+01  0.62010246246E+02 -0.11927134638E+03  0.13466762635E+03  0.47000000000E+01 0. -1.
        -11    1    4    4    0    0  0.24284030660E+02  0.96656485221E+00 -0.59677760287E+02  0.64436662434E+02  0.00000000000E+00 0.  1.
         12    1    4    4    0    0  0.72696636914E+02  0.22168073009E+02  0.42152622518E+01  0.76118282399E+02  0.00000000000E+00 0. -1.
         -5    1    5    5    0  502 -0.10670936188E+03 -0.73692863753E+02  0.32138980022E+01  0.12980733886E+03  0.47000000000E+01 0.  1.
         13    1    6    6    0    0  0.18448008251E+02 -0.42306408783E+02  0.12470899380E+02  0.47808833534E+02  0.00000000000E+00 0. -1.
        -14    1    6    6    0    0 -0.22112512447E+01  0.30854388428E+02 -0.17295006194E+02  0.35440092502E+02  0.00000000000E+00 0.  1.
</event>
<event>
12    1  0.8313893E-002  0.1780445E+03  0.7818608E-02  0.1170075E+00
         21   -1    0    0  503  502  0.00000000000E+00  0.00000000000E+00  0.68916494932E+03  0.68916494932E+03  0.00000000000E+00 0.  1.
         21   -1    0    0  501  503 -0.00000000000E+00 -0.00000000000E+00 -0.68729464258E+02  0.68729464258E+02  0.00000000000E+00 0.  1.
          6    2    1    2  501    0  0.18153545146E+02 -0.37501851662E+02  0.89596317795E+02  0.19799259190E+03  0.17157396716E+03 0.  0.
         24    2    3    3    0    0 -0.14576426572E+02 -0.28027643493E+02  0.12297429266E+03  0.15006357276E+03  0.79989863129E+02 0.  0.
         -6    2    1    2    0  502 -0.18153545146E+02  0.37501851662E+02  0.53083916726E+03  0.55990182167E+03  0.17310080396E+03 0.  0.
        -24    2    5    5    0    0  0.35848584287E+02 -0.27386743279E+02  0.30577464973E+03  0.31947951241E+03  0.80832343354E+02 0.  0.
          5    1    3    3  501    0  0.32729971718E+02 -0.94742081696E+01 -0.33377974868E+02  0.47929019137E+02  0.47000000000E+01 0. -1.
        -13    1    4    4    0    0  0.26935156467E+02 -0.24239331084E+02  0.26266305663E+02  0.44754515286E+02  0.00000000000E+00 0.  1.
         14    1    4    4    0    0 -0.41511583040E+02 -0.37883124089E+01  0.96707987000E+02  0.10530905748E+03  0.00000000000E+00 0. -1.
         -5    1    5    5    0  502 -0.54002129432E+02  0.64888594941E+02  0.22506451754E+03  0.24042230926E+03  0.47000000000E+01 0.  1.
         11    1    6    6    0    0 -0.70603900976E+01  0.16437071566E+01  0.21376017854E+03  0.21388306340E+03  0.00000000000E+00 0. -1.
        -12    1    6    6    0    0  0.42908974385E+02 -0.29030450435E+02  0.92014471189E+02  0.10559644901E+03  0.00000000000E+00 0.  1.
</event>
<event>
12    1  0.8313893E-002  0.2275427E+03  0.7818608E-02  0.1128483E+00
         21   -1    0    0  501  502  0.00000000000E+00  0.00000000000E+00  0.11220434624E+04  0.11220434624E+04  0.00000000000E+00 0.  1.
         21   -1    0    0  502  503 -0.00000000000E+00 -0.00000000000E+00 -0.59272684931E+02  0.59272684931E+02  0.00000000000E+00 0.  1.
         -6    2    1    2    0  503 -0.14238246439E+03 -0.44166059065E+02  0.25270165308E+03  0.34004971385E+03  0.17190775283E+03 0.  0.
        -24    2    3    3    0    0 -0.47969894972E+02 -0.43658778999E+01  0.35923439478E+02  0.10023171708E+03  0.80223013476E+02 0.  0.
          6    2    1    2  501    0  0.14238246439E+03  0.44166059065E+02  0.81006912435E+03  0.84126643343E+03  0.17115437145E+03 0.  0.
         24    2    5    5    0    0  0.52133237513E+02  0.84301844083E+02  0.49321078579E+03  0.50933707212E+03  0.79641060047E+02 0.  0.
          5    1    5    5  501    0  0.90249226877E+02 -0.40135785018E+02  0.31685833856E+03  0.33192936132E+03  0.47000000000E+01 0. -1.
        -13    1    6    6    0    0  0.13767079287E+02  0.49314709891E+02  0.39444565577E+03  0.39775475916E+03  0.00000000000E+00 0.  1.
         14    1    6    6    0    0  0.38366158225E+02  0.34987134192E+02  0.98765130022E+02  0.11158231295E+03  0.00000000000E+00 0. -1.
         -5    1    3    3    0  503 -0.94412569418E+02 -0.39800181165E+02  0.21677821360E+03  0.23981799677E+03  0.47000000000E+01 0.  1.
         13    1    4    4    0    0 -0.43134326608E+02  0.23428016383E+02  0.48803933275E+02  0.69218971292E+02  0.00000000000E+00 0. -1.
        -14    1    4    4    0    0 -0.48355683641E+01 -0.27793894283E+02 -0.12880493797E+02  0.31012745787E+02  0.00000000000E+00 0.  1.
</event>
<event>
12    1  0.8313893E-002  0.1732134E+03  0.7818608E-02  0.1178756E+00
         21   -1    0    0  501  502  0.00000000000E+00  0.00000000000E+00  0.39717124663E+02  0.39717124663E+02  0.00000000000E+00 0.  1.
         21   -1    0    0  502  503 -0.00000000000E+00 -0.00000000000E+00 -0.78259867870E+03  0.78259867870E+03  0.00000000000E+00 0.  1.
         -6    2    1    2    0  503 -0.12297822267E+02  0.14264692666E+02 -0.52962560068E+03  0.55723080558E+03  0.17218645678E+03 0.  0.
        -24    2    3    3    0    0 -0.66535189917E+02  0.40503014195E+02 -0.34123279622E+03  0.35938217571E+03  0.81537116380E+02 0.  0.
          6    2    1    2  501    0  0.12297822267E+02 -0.14264692666E+02 -0.21325595336E+03  0.26508499779E+03  0.15632413928E+03 0.  0.
         24    2    5    5    0    0 -0.73271340616E+01  0.21811554708E+02 -0.20792693307E+03  0.22340619031E+03  0.78404627156E+02 0.  0.
          5    1    5    5  501    0  0.19624956329E+02 -0.36076247374E+02 -0.53290202828E+01  0.41678807477E+02  0.47000000000E+01 0. -1.
        -13    1    6    6    0    0 -0.11930666476E+02 -0.14481616711E+02 -0.84079923061E+01  0.20560942579E+02  0.00000000000E+00 0.  1.
         14    1    6    6    0    0  0.46035324142E+01  0.36293171419E+02 -0.19951894077E+03  0.20284524773E+03  0.00000000000E+00 0. -1.
         -5    1    3    3    0  503  0.54237367650E+02 -0.26238321529E+02 -0.18839280446E+03  0.19784862986E+03  0.47000000000E+01 0.  1.
         13    1    4    4    0    0 -0.32053668745E+02 -0.18552670240E+02 -0.18754087319E+03  0.19116280592E+03  0.00000000000E+00 0. -1.
        -14    1    4    4    0    0 -0.34481521172E+02  0.59055684435E+02 -0.15369192303E+03  0.16821936979E+03  0.00000000000E+00 0.  1.
</event>
<event>
12    1  0.8313893E-002  0.2260815E+03  0.7818608E-02  0.1131199E+00
         21   -1    0    0  503  502  0.00000000000E+00  0.00000000000E+00  0.37177816613E+03  0.37177816613E+03  0.00000000000E+00 0.  1.
         21   -1    0    0  501  503 -0.00000000000E+00 -0.00000000000E+00 -0.27871462030E+03  0.27871462030E+03  0.00000000000E+00 0.  1.
          6    2    1    2  501    0 -0.12074590963E+03 -0.56294067234E+02 -0.19014017635E+03  0.28811567019E+03  0.17061288359E+03 0.  0.
         24    2    3    3    0    0 -0.61436664630E+02 -0.98169563783E+02 -0.12949933543E+03  0.19340270729E+03  0.84987071346E+02 0.  0.
         -6    2    1    2    0  502  0.12074590963E+03  0.56294067234E+02  0.28320372218E+03  0.36237711624E+03  0.18265877865E+03 0.  0.
        -24    2    5    5    0    0  0.73811412808E+02  0.56433389273E+02  0.63674935070E+02  0.13783793308E+03  0.79447758647E+02 0.  0.
          5    1    3    3  501    0 -0.59309245004E+02  0.41875496548E+02 -0.60640840924E+02  0.94712962904E+02  0.47000000000E+01 0. -1.
        -13    1    4    4    0    0 -0.11347942968E+02  0.76714601899E+01 -0.50070073184E+02  0.51909915621E+02  0.00000000000E+00 0.  1.
         14    1    4    4    0    0 -0.50088721663E+02 -0.10584102397E+03 -0.79429262245E+02  0.14149279167E+03  0.00000000000E+00 0. -1.
         -5    1    5    5    0  502  0.46934496827E+02 -0.13932203869E+00  0.21952878711E+03  0.22453918316E+03  0.47000000000E+01 0.  1.
         13    1    6    6    0    0  0.74888904431E+02  0.72010757406E+02  0.64351155756E+02  0.12220870851E+03  0.00000000000E+00 0. -1.
        -14    1    6    6    0    0 -0.10774916237E+01 -0.15577368133E+02 -0.67622068539E+00  0.15629224567E+02  0.00000000000E+00 0.  1.
</event>
<event>
12    1  0.8313893E-002  0.2013712E+03  0.7818608E-02  0.1151916E+00
         21   -1    0    0  501  502  0.00000000000E+00  0.00000000000E+00  0.55470774025E+03  0.55470774025E+03  0.00000000000E+00 0. -1.
         21   -1    0    0  502  503 -0.00000000000E+00 -0.00000000000E+00 -0.15309897895E+03  0.15309897895E+03  0.00000000000E+00 0.  1.
         -6    2    1    2    0  503  0.66468229185E+02 -0.32932139036E+02 -0.59978163557E+02  0.21011366131E+03  0.18721062815E+03 0.  0.
        -24    2    3    3    0    0  0.38340088791E+01 -0.18392429561E+01 -0.10122672748E+03  0.12879116894E+03  0.79512466966E+02 0.  0.
          6    2    1    2  501    0 -0.66468229185E+02  0.32932139036E+02  0.46158692486E+03  0.49769305790E+03  0.17068491265E+03 0.  0.
         24    2    5    5    0    0 -0.25933277256E+02 -0.14517071247E+02  0.40347760650E+03  0.41229228059E+03  0.79419553388E+02 0.  0.
          5    1    5    5  501    0 -0.40534951929E+02  0.47449210283E+02  0.58109318355E+02  0.85400777304E+02  0.47000000000E+01 0. -1.
        -11    1    6    6    0    0 -0.24718367328E+02  0.75962627076E+00  0.31730044952E+02  0.40228975479E+02  0.00000000000E+00 0.  1.
         12    1    6    6    0    0 -0.12149099274E+01 -0.15276697518E+02  0.37174756155E+03  0.37206330511E+03  0.00000000000E+00 0. -1.
         -5    1    3    3    0  503  0.62634220306E+02 -0.31092896080E+02  0.41248563919E+02  0.81322492370E+02  0.47000000000E+01 0.  1.
         13    1    4    4    0    0  0.78771110610E+01  0.56792310373E+01  0.11890610304E+02  0.15352171092E+02  0.00000000000E+00 0. -1.
        -14    1    4    4    0    0 -0.40431021819E+01 -0.75184739935E+01 -0.11311733778E+03  0.11343899785E+03  0.00000000000E+00 0.  1.
</event>
<event>
12    1  0.8313893E-002  0.2128973E+03  0.7818608E-02  0.1139954E+00
         21   -1    0    0  501  502  0.00000000000E+00  0.00000000000E+00  0.11244961177E+03  0.11244961177E+03  0.00000000000E+00 0.  1.
         21   -1    0    0  502  503 -0.00000000000E+00 -0.00000000000E+00 -0.16160101910E+04  0.16160101910E+04  0.00000000000E+00 0.  1.
         -6    2    1    2    0  503 -0.97008368526E+02 -0.72590832149E+02 -0.15039441113E+04  0.15189381716E+04  0.17505778153E+03 0.  0.
        -24    2    3    3    0    0  0.46434628826E+01  0.69045836834E+01 -0.69965126462E+03  0.70434521243E+03  0.80753025766E+02 0.  0.
          6    2    1    2  501    0  0.97008368526E+02  0.72590832149E+02  0.38353202705E+00  0.20952163118E+03  0.17093599492E+03 0.  0.
         24    2    5    5    0    0  0.38767788418E+02  0.65879164732E+02 -0.59736971394E+02  0.12541707374E+03  0.79485412933E+02 0.  0.
          5    1    5    5  501    0  0.58240580108E+02  0.67116674174E+01  0.60120503421E+02  0.84104557442E+02  0.47000000000E+01 0. -1.
        -11    1    6    6    0    0  0.18009823906E+02  0.68895645449E+02 -0.10606647903E+02  0.71996282534E+02  0.00000000000E+00 0.  1.
         12    1    6    6    0    0  0.20757964512E+02 -0.30164807172E+01 -0.49130323491E+02  0.53420791205E+02  0.00000000000E+00 0. -1.
         -5    1    3    3    0  503 -0.10165183141E+03 -0.79495415833E+02 -0.80429284664E+03  0.81459295917E+03  0.47000000000E+01 0.  1.
         11    1    4    4    0    0 -0.30285482567E+02 -0.20061493471E+02 -0.26973367258E+03  0.27216893301E+03  0.00000000000E+00 0. -1.
        -12    1    4    4    0    0  0.34928945449E+02  0.26966077154E+02 -0.42991759204E+03  0.43217627942E+03  0.00000000000E+00 0.  1.
</event>
<event>
12    1  0.8313893E-002  0.1926874E+03  0.7818608E-02  0.1158479E+00
         21   -1    0    0  503  502  0.00000000000E+00  0.00000000000E+00  0.14209596820E+04  0.14209596820E+04  0.00000000000E+00 0. -1.
         21   -1    0    0  501  503 -0.00000000000E+00 -0.00000000000E+00 -0.33514543803E+02  0.33514543803E+02  0.00000000000E+00 0. -1.
          6    2    1    2  501    0  0.61458304011E+02 -0.12520662612E+02  0.30664402939E+03  0.35663112066E+03  0.17094240357E+03 0.  0.
         24    2    3    3    0    0  0.93237342790E+02  0.16729721884E+02  0.27939215033E+03  0.30534518486E+03  0.78756730283E+02 0.  0.
         -6    2    1    2    0  502 -0.61458304011E+02  0.12520662612E+02  0.10808011088E+04  0.10978431052E+04  0.18219373367E+03 0.  0.
        -24    2    5    5    0    0  0.24606315097E+02  0.47073835846E+02  0.66884709928E+03  0.67555264064E+03  0.78698864680E+02 0.  0.
          5    1    3    3  501    0 -0.31779038780E+02 -0.29250384496E+02  0.27251879065E+02  0.51285935806E+02  0.47000000000E+01 0. -1.
        -11    1    4    4    0    0  0.35223311853E+02 -0.18975544211E+02  0.18293102888E+03  0.18725521169E+03  0.00000000000E+00 0.  1.
         12    1    4    4    0    0  0.58014030937E+02  0.35705266095E+02  0.96461121447E+02  0.11808997317E+03  0.00000000000E+00 0. -1.
         -5    1    5    5    0  502 -0.86064619107E+02 -0.34553173234E+02  0.41195400956E+03  0.42229046453E+03  0.47000000000E+01 0.  1.
         11    1    6    6    0    0  0.19947658274E+02 -0.36903638733E+01  0.46450612484E+03  0.46494888737E+03  0.00000000000E+00 0. -1.
        -12    1    6    6    0    0  0.46586568227E+01  0.50764199719E+02  0.20434097444E+03  0.21060375327E+03  0.00000000000E+00 0.  1.
</event>
<event>
12    1  0.8313893E-002  0.1741016E+03  0.7818608E-02  0.1173688E+00
         21   -1    0    0  503  502  0.00000000000E+00  0.00000000000E+00  0.15488934931E+03  0.15488934931E+03  0.00000000000E+00 0.  1.
         21   -1    0    0  501  503 -0.00000000000E+00 -0.00000000000E+00 -0.20210867826E+03  0.20210867826E+03  0.00000000000E+00 0.  1.
          6    2    1    2  501    0  0.83942054713E+01  0.26226919175E+02 -0.55950675054E+02  0.18267765578E+03  0.17170420469E+03 0.  0.
         24    2    3    3    0    0 -0.55114298837E+02 -0.59905240747E-01 -0.61873106237E+02  0.11352931923E+03  0.77608218147E+02 0.  0.
         -6    2    1    2    0  502 -0.83942054713E+01 -0.26226919175E+02  0.87313461093E+01  0.17432037179E+03  0.17190998121E+03 0.  0.
        -24    2    5    5    0    0 -0.49892620314E+02 -0.52400922952E+02 -0.30099413109E+02  0.11157393946E+03  0.79420645989E+02 0.  0.
          5    1    3    3  501    0  0.63508504308E+02  0.26286824415E+02  0.59224311831E+01  0.69148336556E+02  0.47000000000E+01 0. -1.
        -13    1    4    4    0    0  0.18087657028E+02  0.10950935623E+02 -0.12848886537E+02  0.24742275825E+02  0.00000000000E+00 0.  1.
         14    1    4    4    0    0 -0.73201955865E+02 -0.11010840863E+02 -0.49024219700E+02  0.88787043403E+02  0.00000000000E+00 0. -1.
         -5    1    5    5    0  502  0.41498414843E+02  0.26174003777E+02  0.38830759219E+02  0.62746432327E+02  0.47000000000E+01 0.  1.
         13    1    6    6    0    0 -0.90867134576E+01  0.18750832194E+02  0.63995580370E+01  0.21797165240E+02  0.00000000000E+00 0. -1.
        -14    1    6    6    0    0 -0.40805906857E+02 -0.71151755146E+02 -0.36498971146E+02  0.89776774221E+02  0.00000000000E+00 0.  1.
</event>
<event>
12    1  0.8313893E-002  0.2870356E+03  0.7818608E-02  0.1092017E+00
         21   -1    0    0  503  502  0.00000000000E+00  0.00000000000E+00  0.67489512591E+03  0.67489512591E+03  0.00000000000E+00 0. -1.
         21   -1    0    0  501  503 -0.00000000000E+00 -0.00000000000E+00 -0.12401576400E+03  0.12401576400E+03  0.00000000000E+00 0.  1.
          6    2    1    2  501    0  0.29816373397E+02 -0.22744099449E+03  0.22076871343E+03  0.36146092780E+03  0.17116294984E+03 0.  0.
         24    2    3    3    0    0  0.16179342051E+02 -0.21505466393E+03  0.12029455838E+03  0.25920372442E+03  0.78775061992E+02 0.  0.
         -6    2    1    2    0  502 -0.29816373397E+02  0.22744099449E+03  0.33011064848E+03  0.43744996212E+03  0.17254276866E+03 0.  0.
        -24    2    5    5    0    0  0.18546787373E+01  0.22078569106E+03  0.21743639541E+03  0.32012594107E+03  0.80326028722E+02 0.  0.
          5    1    3    3  501    0  0.13637031346E+02 -0.12386330560E+02  0.10047415505E+03  0.10225720337E+03  0.47000000000E+01 0. -1.
        -13    1    4    4    0    0  0.20613091295E+02 -0.72725251085E+02  0.45995982349E+01  0.75729901506E+02  0.00000000000E+00 0.  1.
         14    1    4    4    0    0 -0.44337492442E+01 -0.14232941285E+03  0.11569496014E+03  0.18347382292E+03  0.00000000000E+00 0. -1.
         -5    1    5    5    0  502 -0.31671052134E+02  0.66553034296E+01  0.11267425308E+03  0.11732402104E+03  0.47000000000E+01 0.  1.
         11    1    6    6    0    0 -0.32212176043E+02  0.42070655916E+02  0.46862077707E+02  0.70736261576E+02  0.00000000000E+00 0. -1.
        -12    1    6    6    0    0  0.34066854780E+02  0.17871503515E+03  0.17057431770E+03  0.24938967950E+03  0.00000000000E+00 0.  1.
</event>
<event>
12    1  0.8313893E-002  0.2185016E+03  0.7818608E-02  0.1135118E+00
         21   -1    0    0  503  502  0.00000000000E+00  0.00000000000E+00  0.20951011699E+02  0.20951011699E+02  0.00000000000E+00 0. -1.
         21   -1    0    0  501  503 -0.00000000000E+00 -0.00000000000E+00 -0.23081050985E+04  0.23081050985E+04  0.00000000000E+00 0.  1.
          6    2    1    2  501    0  0.11053305191E+03 -0.72539582601E+02 -0.99743057085E+03  0.10209545562E+04  0.17320772387E+03 0.  0.
         24    2    3    3    0    0  0.56758565693E+02 -0.11165702640E+03 -0.78737960579E+03  0.80057904102E+03  0.72603932373E+02 0.  0.
         -6    2    1    2    0  502 -0.11053305191E+03  0.72539582601E+02 -0.12897235159E+04  0.13081015540E+04  0.17396373558E+03 0.  0.
        -24    2    5    5    0    0 -0.41748381164E+02 -0.22663304691E+02 -0.44195882831E+03  0.45222657696E+03  0.83214892121E+02 0.  0.
          5    1    3    3  501    0  0.53774486213E+02  0.39117443795E+02 -0.21005096506E+03  0.22037551520E+03  0.47000000000E+01 0. -1.
        -13    1    4    4    0    0  0.74019624059E+01 -0.61059577493E+01 -0.27293371800E+03  0.27310233648E+03  0.00000000000E+00 0.  1.
         14    1    4    4    0    0  0.49356603287E+02 -0.10555106865E+03 -0.51444588778E+03  0.52747670454E+03  0.00000000000E+00 0. -1.
         -5    1    5    5    0  502 -0.68784670742E+02  0.95202887291E+02 -0.84776468763E+03  0.85587497701E+03  0.47000000000E+01 0.  1.
         13    1    6    6    0    0 -0.56411528772E+02 -0.47910391349E+01 -0.40275242331E+03  0.40671209611E+03  0.00000000000E+00 0. -1.
        -14    1    6    6    0    0  0.14663147608E+02 -0.17872265556E+02 -0.39206405000E+02  0.45514480848E+02  0.00000000000E+00 0.  1.
</event>
<event>
12    1  0.8313893E-002  0.1841860E+03  0.7818608E-02  0.1164386E+00
         21   -1    0    0  501  502  0.00000000000E+00  0.00000000000E+00  0.30039116037E+02  0.30039116037E+02  0.00000000000E+00 0.  1.
         21   -1    0    0  502  503 -0.00000000000E+00 -0.00000000000E+00 -0.12080549838E+04  0.12080549838E+04  0.00000000000E+00 0.  1.
         -6    2    1    2    0  503  0.38167585844E+02 -0.49454556612E+02 -0.75765620139E+03  0.77915322570E+03  0.17068776126E+03 0.  0.
        -24    2    3    3    0    0  0.40195119283E+02  0.36225066013E+02 -0.42944492121E+03  0.43990428604E+03  0.78517115993E+02 0.  0.
          6    2    1    2  501    0 -0.38167585844E+02  0.49454556612E+02 -0.42035966634E+03  0.45894087410E+03  0.17326845949E+03 0.  0.
         24    2    5    5    0    0 -0.53576514732E+02  0.57244821060E+02 -0.13069571128E+03  0.16872471299E+03  0.72382645407E+02 0.  0.
          5    1    5    5  501    0  0.15408928888E+02 -0.77902644476E+01 -0.28966395506E+03  0.29021616111E+03  0.47000000000E+01 0. -1.
        -11    1    6    6    0    0  0.15136289490E+02  0.27323487953E+02 -0.46355997843E+02  0.55897752992E+02  0.00000000000E+00 0.  1.
         12    1    6    6    0    0 -0.68712804222E+02  0.29921333106E+02 -0.84339713438E+02  0.11282695999E+03  0.00000000000E+00 0. -1.
         -5    1    3    3    0  503 -0.20275334395E+01 -0.85679622625E+02 -0.32821128018E+03  0.33924893966E+03  0.47000000000E+01 0.  1.
         11    1    4    4    0    0 -0.75315891432E+01  0.16130526578E+02 -0.18371062834E+02  0.25581529906E+02  0.00000000000E+00 0. -1.
        -12    1    4    4    0    0  0.47726708427E+02  0.20094539435E+02 -0.41107385837E+03  0.41432275613E+03  0.00000000000E+00 0.  1.
</event>
<event>
12    1  0.8313893E-002  0.1890431E+03  0.7818608E-02  0.1159428E+00
         21   -1    0    0  503  502  0.00000000000E+00  0.00000000000E+00  0.57480633342E+03  0.57480633342E+03  0.00000000000E+00 0.  1.
         21   -1    0    0  501  503 -0.00000000000E+00 -0.00000000000E+00 -0.62288059259E+02  0.62288059259E+02  0.00000000000E+00 0.  1.
          6    2    1    2  501    0 -0.12079538703E+02 -0.74602312082E+02  0.23533352668E+03  0.30158181625E+03  0.17279555228E+03 0.  0.
         24    2    3    3    0    0  0.48158443678E+02 -0.81687591538E+02  0.18143188301E+03  0.22030271133E+03  0.81385859557E+02 0.  0.
         -6    2    1    2    0  502  0.12079538703E+02  0.74602312082E+02  0.27718474747E+03  0.33551257643E+03  0.17327978672E+03 0.  0.
        -24    2    5    5    0    0 -0.48911974830E+02  0.66859620125E+02  0.11641942523E+03  0.16332810315E+03  0.79120140435E+02 0.  0.
          5    1    3    3  501    0 -0.60237982381E+02  0.70852794562E+01  0.53901643674E+02  0.81279104923E+02  0.47000000000E+01 0. -1.
        -11    1    4    4    0    0  0.17292725196E+02 -0.81746078004E+02  0.16589118828E+03  0.18574537939E+03  0.00000000000E+00 0.  1.
         12    1    4    4    0    0  0.30865718482E+02  0.58486465510E-01  0.15540694727E+02  0.34557331938E+02  0.00000000000E+00 0. -1.
         -5    1    5    5    0  502  0.60991513532E+02  0.77426919568E+01  0.16076532225E+03  0.17218447328E+03  0.47000000000E+01 0.  1.
         11    1    6    6    0    0 -0.30798161782E+02  0.90294438966E+01  0.92961300047E+02  0.98345619794E+02  0.00000000000E+00 0. -1.
        -12    1    6    6    0    0 -0.18113813048E+02  0.57830176228E+02  0.23458125179E+02  0.64982483353E+02  0.00000000000E+00 0.  1.
</event>
<event>
12    1  0.8313893E-002  0.1788428E+03  0.7818608E-02  0.1169000E+00
         21   -1    0    0  501  502  0.00000000000E+00  0.00000000000E+00  0.16191683034E+02  0.16191683034E+02  0.00000000000E+00 0. -1.
         21   -1    0    0  502  503 -0.00000000000E+00 -0.00000000000E+00 -0.19898815420E+04  0.19898815420E+04  0.00000000000E+00 0. -1.
         -6    2    1    2    0  503  0.18638896625E+02 -0.54872925133E+02 -0.10808041046E+04  0.10954527196E+04  0.16888073315E+03 0.  0.
        -24    2    3    3    0    0  0.40348940051E+02  0.23657711913E+02 -0.69655553504E+03  0.70263286250E+03  0.79470760506E+02 0.  0.
          6    2    1    2  501    0 -0.18638896625E+02  0.54872925133E+02 -0.89288575437E+03  0.91062050541E+03  0.16919304994E+03 0.  0.
         24    2    5    5    0    0  0.99589760094E+00 -0.27529504866E+02 -0.59415854930E+03  0.60007949578E+03  0.79449066100E+02 0.  0.
          5    1    5    5  501    0 -0.19634794226E+02  0.82402429999E+02 -0.29872720507E+03  0.31054100963E+03  0.47000000000E+01 0. -1.
        -11    1    6    6    0    0  0.36350443317E+02 -0.29368226713E+02 -0.27243265049E+03  0.27641164324E+03  0.00000000000E+00 0.  1.
         12    1    6    6    0    0 -0.35354545716E+02  0.18387218462E+01 -0.32172589881E+03  0.32366785254E+03  0.00000000000E+00 0. -1.
         -5    1    3    3    0  503 -0.21710043426E+02 -0.78530637046E+02 -0.38424856958E+03  0.39281985715E+03  0.47000000000E+01 0.  1.
         13    1    4    4    0    0  0.58476345388E+01 -0.28534600945E+02 -0.18795256566E+03  0.19019617561E+03  0.00000000000E+00 0. -1.
        -14    1    4    4    0    0  0.34501305512E+02  0.52192312858E+02 -0.50860296938E+03  0.51243668688E+03  0.00000000000E+00 0.  1.
</event>
<event>
12    1  0.8313893E-002  0.1743154E+03  0.7818608E-02  0.1174703E+00
         21   -1    0    0  501  502  0.00000000000E+00  0.00000000000E+00  0.11803935005E+04  0.11803935005E+04  0.00000000000E+00 0.  1.
         21   -1    0    0  502  503 -0.00000000000E+00 -0.00000000000E+00 -0.63330243479E+02  0.63330243479E+02  0.00000000000E+00 0.  1.
         -6    2    1    2    0  503  0.15583095347E+02 -0.18665610104E+02  0.78025373435E+02  0.19098122335E+03  0.17261121316E+03 0.  0.
        -24    2    3    3    0    0 -0.27111104467E+02 -0.64460930695E+02  0.71645652392E+02  0.12787181892E+03  0.79547966642E+02 0.  0.
          6    2    1    2  501    0 -0.15583095347E+02  0.18665610104E+02  0.10390378836E+04  0.10527425206E+04  0.16755850727E+03 0.  0.
         24    2    5    5    0    0  0.25368893535E+02  0.93028161053E+00  0.28771144372E+03  0.30007717899E+03  0.81387912614E+02 0.  0.
          5    1    5    5  501    0 -0.40951988882E+02  0.17735328493E+02  0.75132643983E+03  0.75266534161E+03  0.47000000000E+01 0. -1.
        -13    1    6    6    0    0 -0.15585094053E+02  0.77529881098E+01  0.21974154352E+03  0.22042992068E+03  0.00000000000E+00 0.  1.
         14    1    6    6    0    0  0.40953987588E+02 -0.68227064993E+01  0.67969900197E+02  0.79647258309E+02  0.00000000000E+00 0. -1.
         -5    1    3    3    0  503  0.42694199814E+02  0.45795320592E+02  0.63797210426E+01  0.63109404421E+02  0.47000000000E+01 0.  1.
         11    1    4    4    0    0 -0.49691338886E+02 -0.21534829995E+02  0.53384624317E+02  0.76045356050E+02  0.00000000000E+00 0. -1.
        -12    1    4    4    0    0  0.22580234420E+02 -0.42926100700E+02  0.18261028075E+02  0.51826462875E+02  0.00000000000E+00 0.  1.
</event>
<event>
12    1  0.8313893E-002  0.2234670E+03  0.7818608E-02  0.1131392E+00
         21   -1    0    0  503  502  0.00000000000E+00  0.00000000000E+00  0.44269704886E+03  0.44269704886E+03  0.00000000000E+00 0.  1.
         21   -1    0    0  501  503 -0.00000000000E+00 -0.00000000000E+00 -0.13965145239E+03  0.13965145239E+03  0.00000000000E+00 0.  1.
          6    2    1    2  501    0  0.10865391727E+02 -0.14070964160E+03  0.23308241640E+02  0.22431153314E+03  0.17278637039E+03 0.  0.
         24    2    3    3    0    0 -0.31070417407E+02 -0.15231596410E+03  0.36307812576E+02  0.17865632912E+03  0.80214106750E+02 0.  0.
         -6    2    1    2    0  502 -0.10865391727E+02  0.14070964160E+03  0.27973735483E+03  0.35803696811E+03  0.17326344932E+03 0.  0.
        -24    2    5    5    0    0  0.25474190221E+02  0.64381488885E+02  0.24029408735E+03  0.26463239937E+03  0.86574522223E+02 0.  0.
          5    1    3    3  501    0  0.41935809134E+02  0.11606322498E+02 -0.12999570936E+02  0.45655204021E+02  0.47000000000E+01 0. -1.
        -11    1    4    4    0    0 -0.38645731293E+02 -0.58351994587E+02 -0.14635855700E+02  0.71502839745E+02  0.00000000000E+00 0.  1.
         12    1    4    4    0    0  0.75753138859E+01 -0.93963969514E+02  0.50943668277E+02  0.10715348937E+03  0.00000000000E+00 0. -1.
         -5    1    5    5    0  502 -0.36339581948E+02  0.76328152718E+02  0.39443267473E+02  0.93404568745E+02  0.47000000000E+01 0.  1.
         13    1    6    6    0    0 -0.20263093814E+02  0.11608764138E+02  0.12736608081E+02  0.26600330095E+02  0.00000000000E+00 0. -1.
        -14    1    6    6    0    0  0.45737284035E+02  0.52772724747E+02  0.22755747927E+03  0.23803206927E+03  0.00000000000E+00 0.  1.
</event>
<event>
12    1  0.8313893E-002  0.2007891E+03  0.7818608E-02  0.1149195E+00
         21   -1    0    0  503  502  0.00000000000E+00  0.00000000000E+00  0.98159925622E+02  0.98159925622E+02  0.00000000000E+00 0.  1.
         21   -1    0    0  501  503 -0.00000000000E+00 -0.00000000000E+00 -0.42853124314E+03  0.42853124314E+03  0.00000000000E+00 0.  1.
          6    2    1    2  501    0 -0.98676407451E+02  0.28676016199E+02 -0.10999273138E+03  0.22894248890E+03  0.17250192746E+03 0.  0.
         24    2    3    3    0    0 -0.10906681608E+03  0.66282324636E+02 -0.53777635073E+02  0.16035369916E+03  0.80823003348E+02 0.  0.
         -6    2    1    2    0  502  0.98676407451E+02 -0.28676016199E+02 -0.22037858614E+03  0.29774867986E+03  0.17183773694E+03 0.  0.
        -24    2    5    5    0    0  0.33393423285E+02 -0.11386648611E+02 -0.25744335821E+02  0.91677401779E+02  0.80605202591E+02 0.  0.
          5    1    3    3  501    0  0.10390408631E+02 -0.37606308437E+02 -0.56215096308E+02  0.68588789745E+02  0.47000000000E+01 0. -1.
        -11    1    4    4    0    0 -0.35431078486E+01  0.27237836287E+02  0.12052452848E+02  0.29995248931E+02  0.00000000000E+00 0.  1.
         12    1    4    4    0    0 -0.10552370823E+03  0.39044488350E+02 -0.65830087921E+02  0.13035845023E+03  0.00000000000E+00 0. -1.
         -5    1    5    5    0  502  0.65282984166E+02 -0.17289367588E+02 -0.19463425032E+03  0.20607127808E+03  0.47000000000E+01 0.  1.
         13    1    6    6    0    0 -0.80877142261E+00 -0.40172686783E+02 -0.18208661977E+00  0.40181239779E+02  0.00000000000E+00 0. -1.
        -14    1    6    6    0    0  0.34202194708E+02  0.28786038173E+02 -0.25562249201E+02  0.51496162000E+02  0.00000000000E+00 0.  1.
</event>
<event>
12    1  0.8313893E-002  0.1907073E+03  0.7818608E-02  0.1157883E+00
         21   -1    0    0  503  502  0.00000000000E+00  0.00000000000E+00  0.65864245273E+03  0.65864245273E+03  0.00000000000E+00 0. -1.
         21   -1    0    0  501  503 -0.00000000000E+00 -0.00000000000E+00 -0.30589204495E+03  0.30589204495E+03  0.00000000000E+00 0. -1.
          6    2    1    2  501    0  0.65188343193E+02  0.48378264187E+02 -0.26024230419E+03  0.32263807639E+03  0.17256678392E+03 0.  0.
         24    2    3    3    0    0  0.24285050172E+02  0.37630058555E+02 -0.44336359415E+02  0.10257883370E+03  0.80937750079E+02 0.  0.
         -6    2    1    2    0  502 -0.65188343193E+02 -0.48378264187E+02  0.61299271198E+03  0.64189642129E+03  0.17228167108E+03 0.  0.
        -24    2    5    5    0    0 -0.73418691674E+02 -0.42604018866E+02  0.21921244725E+03  0.24795979258E+03  0.78895849058E+02 0.  0.
          5    1    3    3  501    0  0.40903293022E+02  0.10748205632E+02 -0.21590594478E+03  0.22005924269E+03  0.47000000000E+01 0. -1.
        -13    1    4    4    0    0 -0.24054470468E+02  0.16160640501E+02 -0.40156738138E+02  0.49521182022E+02  0.00000000000E+00 0.  1.
         14    1    4    4    0    0  0.48339520640E+02  0.21469418054E+02 -0.41796212763E+01  0.53057651675E+02  0.00000000000E+00 0. -1.
         -5    1    5    5    0  502  0.82303484803E+01 -0.57742453210E+01  0.39378026472E+03  0.39393662870E+03  0.47000000000E+01 0.  1.
         11    1    6    6    0    0 -0.27172950914E+02 -0.54641168116E+02  0.16374271488E+03  0.17474468001E+03  0.00000000000E+00 0. -1.
        -12    1    6    6    0    0 -0.46245740760E+02  0.12037149250E+02  0.55469732370E+02  0.73215112577E+02  0.00000000000E+00 0.  1.
</event>
<event>
12    1  0.8313893E-002  0.1935366E+03  0.7818608E-02  0.1155527E+00
         21   -1    0    0  501  502  0.00000000000E+00  0.00000000000E+00  0.38093230129E+03  0.38093230129E+03  0.00000000000E+00 0.  1.
         21   -1    0    0  502  503 -0.00000000000E+00 -0.00000000000E+00 -0.10637001559E+03  0.10637001559E+03  0.00000000000E+00 0.  1.
         -6    2    1    2    0  503 -0.27977706422E+02  0.83354720568E+02  0.67917417669E+02  0.20417954961E+03  0.17130601670E+03 0.  0.
        -24    2    3    3    0    0 -0.14146253647E+02  0.12418914594E+03  0.58656831122E+02  0.15983309716E+03  0.80516673111E+02 0.  0.
          6    2    1    2  501    0  0.27977706422E+02 -0.83354720568E+02  0.20664486803E+03  0.28312276727E+03  0.17241124778E+03 0.  0.
         24    2    5    5    0    0  0.83414607847E+02 -0.37060845468E+02  0.11974495645E+03  0.17002963068E+03  0.78991883397E+02 0.  0.
          5    1    5    5  501    0 -0.55436901425E+02 -0.46293875100E+02  0.86899911578E+02  0.11309313659E+03  0.47000000000E+01 0. -1.
        -11    1    6    6    0    0 -0.13924580321E+02 -0.13230757202E+02  0.29311682387E+02  0.35044565878E+02  0.00000000000E+00 0.  1.
         12    1    6    6    0    0  0.97339188168E+02 -0.23830088266E+02  0.90433274068E+02  0.13498506480E+03  0.00000000000E+00 0. -1.
         -5    1    3    3    0  503 -0.13831452775E+02 -0.40834425373E+02  0.92605865474E+01  0.44346452447E+02  0.47000000000E+01 0.  1.
         11    1    4    4    0    0  0.72800646115E+01 -0.62414775869E+00 -0.12568869821E+02  0.14538410840E+02  0.00000000000E+00 0. -1.
        -12    1    4    4    0    0 -0.21426318259E+02  0.12481329370E+03  0.71225700943E+02  0.14529468632E+03  0.00000000000E+00 0.  1.
</event>
<event>
12    1  0.8313893E-002  0.1767123E+03  0.7818608E-02  0.1171029E+00
         21   -1    0    0  503  502  0.00000000000E+00  0.00000000000E+00  0.28166035026E+04  0.28166035026E+04  0.00000000000E+00 0.  1.
         21   -1    0    0  501  503 -0.00000000000E+00 -0.00000000000E+00 -0.18246213073E+02  0.18246213073E+02  0.00000000000E+00 0. -1.
          6    2    1    2  501    0 -0.34106462887E+02  0.24206048374E+02  0.51127249798E+03  0.54094989446E+03  0.17169169329E+03 0.  0.
         24    2    3    3    0    0  0.16190945309E+01  0.10077940303E+02  0.49030304684E+03  0.49693027644E+03  0.80239862584E+02 0.  0.
         -6    2    1    2    0  502  0.34106462887E+02 -0.24206048374E+02  0.22870847915E+04  0.22938998212E+04  0.17166934036E+03 0.  0.
        -24    2    5    5    0    0  0.26018713963E+01 -0.60748256573E+02  0.20189557232E+04  0.20214238415E+04  0.79214986136E+02 0.  0.
          5    1    3    3  501    0 -0.35725557418E+02  0.14128108071E+02  0.20969451136E+02  0.44019618029E+02  0.47000000000E+01 0. -1.
        -13    1    4    4    0    0  0.26691619138E+02  0.26200018210E+02  0.12664033438E+03  0.13204793743E+03  0.00000000000E+00 0.  1.
         14    1    4    4    0    0 -0.25072524607E+02 -0.16122077907E+02  0.36366271246E+03  0.36488233901E+03  0.00000000000E+00 0. -1.
         -5    1    5    5    0  502  0.31504591491E+02  0.36542208199E+02  0.26812906829E+03  0.27247597973E+03  0.47000000000E+01 0.  1.
         13    1    6    6    0    0 -0.13039927158E+02  0.14741908447E+02  0.65101523970E+03  0.65131267905E+03  0.00000000000E+00 0. -1.
        -14    1    6    6    0    0  0.15641798554E+02 -0.75490165020E+02  0.13679404835E+04  0.13701111624E+04  0.00000000000E+00 0.  1.
</event>
<event>
12    1  0.8313893E-002  0.1924252E+03  0.7818608E-02  0.1156986E+00
         21   -1    0    0  501  502  0.00000000000E+00  0.00000000000E+00  0.37086528950E+03  0.37086528950E+03  0.00000000000E+00 0. -1.
         21   -1    0    0  502  503 -0.00000000000E+00 -0.00000000000E+00 -0.98432262422E+02  0.98432262422E+02  0.00000000000E+00 0. -1.
         -6    2    1    2    0  503  0.66006028242E+02  0.54776499691E+02  0.14555109800E+03  0.23880575274E+03  0.16877738217E+03 0.  0.
        -24    2    3    3    0    0  0.62895812291E+02  0.98409891644E+02  0.86523557975E+02  0.16518587215E+03  0.78483477861E+02 0.  0.
          6    2    1    2  501    0 -0.66006028242E+02 -0.54776499691E+02  0.12688192908E+03  0.23049179918E+03  0.17225035524E+03 0.  0.
         24    2    5    5    0    0 -0.21542372985E+01 -0.91121497804E+02  0.10182039653E+03  0.15272175027E+03  0.68181901958E+02 0.  0.
          5    1    5    5  501    0 -0.63851790944E+02  0.36344998113E+02  0.25061532548E+02  0.77770048914E+02  0.47000000000E+01 0. -1.
        -11    1    6    6    0    0  0.49974678374E+01 -0.52346689710E+02  0.10031774752E+03  0.11326429745E+03  0.00000000000E+00 0.  1.
         12    1    6    6    0    0 -0.71517051359E+01 -0.38774808094E+02  0.15026490108E+01  0.39457452821E+02  0.00000000000E+00 0. -1.
         -5    1    3    3    0  503  0.31102159513E+01 -0.43633391953E+02  0.59027540024E+02  0.73619880589E+02  0.47000000000E+01 0.  1.
         13    1    4    4    0    0  0.42652939221E+02  0.13031296096E+02  0.40796578614E+01  0.44785393941E+02  0.00000000000E+00 0. -1.
        -14    1    4    4    0    0  0.20242873069E+02  0.85378595547E+02  0.82443900113E+02  0.12040047821E+03  0.00000000000E+00 0.  1.
</event>
<event>
12    1  0.8313893E-002  0.2067263E+03  0.7818608E-02  0.1144226E+00
         21   -1    0    0  503  502  0.00000000000E+00  0.00000000000E+00  0.37929052875E+03  0.37929052875E+03  0.00000000000E+00 0.  1.
         21   -1    0    0  501  503 -0.00000000000E+00 -0.00000000000E+00 -0.21452898438E+03  0.21452898438E+03  0.00000000000E+00 0. -1.
          6    2    1    2  501    0  0.10414132637E+03 -0.47874195366E+02 -0.12229572624E+03  0.24019162789E+03  0.17204191063E+03 0.  0.
         24    2    3    3    0    0 -0.29397629100E+01 -0.55491422117E+02 -0.74899071144E+02  0.12274838739E+03  0.79808242771E+02 0.  0.
         -6    2    1    2    0  502 -0.10414132637E+03  0.47874195366E+02  0.28705727062E+03  0.35362788524E+03  0.17179479087E+03 0.  0.
        -24    2    5    5    0    0 -0.10810112743E+03  0.83176467387E+02  0.27267857376E+03  0.31501742866E+03  0.79235076153E+02 0.  0.
          5    1    3    3  501    0  0.10708108928E+03  0.76172267518E+01 -0.47396655094E+02  0.11744324050E+03  0.47000000000E+01 0. -1.
        -11    1    4    4    0    0  0.13482573548E+01  0.13546629457E+02  0.71951486257E+01  0.15398023616E+02  0.00000000000E+00 0.  1.
         12    1    4    4    0    0 -0.42880202648E+01 -0.69038051574E+02 -0.82094219770E+02  0.10735036377E+03  0.00000000000E+00 0. -1.
         -5    1    5    5    0  502  0.39598010664E+01 -0.35302272021E+02  0.14378696855E+02  0.38610456583E+02  0.47000000000E+01 0.  1.
         11    1    6    6    0    0 -0.57997775663E+02  0.36052357208E+01  0.65889669051E+02  0.87853219600E+02  0.00000000000E+00 0. -1.
        -12    1    6    6    0    0 -0.50103351771E+02  0.79571231666E+02  0.20678890471E+03  0.22716420906E+03  0.00000000000E+00 0.  1.
</event>
<event>
12    1  0.8313893E-002  0.3667070E+03  0.7818608E-02  0.1056074E+00
         21   -1    0    0  501  502  0.00000000000E+00  0.00000000000E+00  0.36732647075E+03  0.36732647075E+03  0.00000000000E+00 0. -1.
         21   -1    0    0  502  503 -0.00000000000E+00 -0.00000000000E+00 -0.37081542495E+03  0.37081542495E+03  0.00000000000E+00 0. -1.
         -6    2    1    2    0  503 -0.26984673508E+03 -0.17666791618E+03 -0.48315917884E+02  0.36870517023E+03  0.17198913219E+03 0.  0.
        -24    2    3    3    0    0 -0.17461444112E+03 -0.80813779776E+02 -0.90290059737E+02  0.22713849384E+03  0.80115731589E+02 0.  0.
          6    2    1    2  501    0  0.26984673508E+03  0.17666791618E+03  0.44826963688E+02  0.36943672547E+03  0.17448559943E+03 0.  0.
         24    2    5    5    0    0  0.28130294089E+03  0.17753239430E+03  0.16873359877E+02  0.33885101083E+03  0.62339407184E+02 0.  0.
          5    1    5    5  501    0 -0.11456205809E+02 -0.86447811656E+00  0.27953603811E+02  0.30585714639E+02  0.47000000000E+01 0. -1.
        -11    1    6    6    0    0  0.12130061511E+03  0.11340509155E+03  0.82372612482E+01  0.16626005680E+03  0.00000000000E+00 0.  1.
         12    1    6    6    0    0  0.16000232578E+03  0.64127302753E+02  0.86360986288E+01  0.17259095403E+03  0.00000000000E+00 0. -1.
         -5    1    3    3    0  503 -0.95232293957E+02 -0.95854136406E+02  0.41974141853E+02  0.14156667639E+03  0.47000000000E+01 0.  1.
         11    1    4    4    0    0 -0.39973032942E+02  0.79244296966E+01 -0.42663600461E+02  0.58998497887E+02  0.00000000000E+00 0. -1.
        -12    1    4    4    0    0 -0.13464140818E+03 -0.88738209472E+02 -0.47626459276E+02  0.16813999596E+03  0.00000000000E+00 0.  1.
</event>
<event>
12    1  0.8313893E-002  0.2073385E+03  0.7818608E-02  0.1143899E+00
         21   -1    0    0  501  502  0.00000000000E+00  0.00000000000E+00  0.19725227933E+04  0.19725227933E+04  0.00000000000E+00 0. -1.
         21   -1    0    0  502  503 -0.00000000000E+00 -0.00000000000E+00 -0.22278387860E+02  0.22278387860E+02  0.00000000000E+00 0.  1.
         -6    2    1    2    0  503 -0.85080134644E+02 -0.76733363278E+02  0.11354001195E+04  0.11539917835E+04  0.17157204492E+03 0.  0.
        -24    2    3    3    0    0 -0.15623177091E+02  0.28987935064E+01  0.75646373348E+03  0.76057035040E+03  0.77313589826E+02 0.  0.
          6    2    1    2  501    0  0.85080134644E+02  0.76733363278E+02  0.81484428592E+03  0.84080939767E+03  0.17280797021E+03 0.  0.
         24    2    5    5    0    0  0.21479449216E+02  0.69416426871E+02  0.24919881798E+03  0.27153312894E+03  0.79688030282E+02 0.  0.
          5    1    5    5  501    0  0.63600685428E+02  0.73169364068E+01  0.56564546793E+03  0.56927626873E+03  0.47000000000E+01 0. -1.
        -11    1    6    6    0    0 -0.15370717176E+02  0.38725272464E+02  0.19394530236E+03  0.19837007330E+03  0.00000000000E+00 0.  1.
         12    1    6    6    0    0  0.36850166392E+02  0.30691154408E+02  0.55253515626E+02  0.73163055643E+02  0.00000000000E+00 0. -1.
         -5    1    3    3    0  503 -0.69456957553E+02 -0.79632156785E+02  0.37893638605E+03  0.39342143310E+03  0.47000000000E+01 0.  1.
         13    1    4    4    0    0 -0.76003719946E+01 -0.36312834345E+02  0.44536648478E+03  0.44690904372E+03  0.00000000000E+00 0. -1.
        -14    1    4    4    0    0 -0.80228050967E+01  0.39211627852E+02  0.31109724869E+03  0.31366130668E+03  0.00000000000E+00 0.  1.
</event>
<event>
12    1  0.8313893E-002  0.2148229E+03  0.7818608E-02  0.1137891E+00
         21   -1    0    0  501  502  0.00000000000E+00  0.00000000000E+00  0.26830137181E+04  0.26830137181E+04  0.00000000000E+00 0.  1.
         21   -1    0    0  502  503 -0.00000000000E+00 -0.00000000000E+00 -0.17335583071E+02  0.17335583071E+02  0.00000000000E+00 0.  1.
         -6    2    1    2    0  503 -0.75746964070E+02  0.10606510431E+03  0.14659008549E+04  0.14814914823E+04  0.17018897404E+03 0.  0.
        -24    2    3    3    0    0 -0.62608847557E+02  0.12345053657E+03  0.83070961692E+03  0.84590918068E+03  0.79523402465E+02 0.  0.
          6    2    1    2  501    0  0.75746964070E+02 -0.10606510431E+03  0.11997772801E+04  0.12188578188E+04  0.17076724432E+03 0.  0.
         24    2    5    5    0    0  0.17375913378E+02  0.10879306587E+02  0.38145498190E+03  0.39015000026E+03  0.79302192991E+02 0.  0.
          5    1    5    5  501    0  0.58371050692E+02 -0.11694441090E+03  0.81832229821E+03  0.82870781856E+03  0.47000000000E+01 0. -1.
        -13    1    6    6    0    0  0.36405266203E+02 -0.14624254478E+02  0.30235093090E+03  0.30488571242E+03  0.00000000000E+00 0.  1.
         14    1    6    6    0    0 -0.19029352825E+02  0.25503561065E+02  0.79104051003E+02  0.85264287841E+02  0.00000000000E+00 0. -1.
         -5    1    3    3    0  503 -0.13138116513E+02 -0.17385432257E+02  0.63519123798E+03  0.63558230164E+03  0.47000000000E+01 0.  1.
         11    1    4    4    0    0  0.56322567158E+01 -0.30818000105E+01  0.60806364205E+01  0.88427340962E+01  0.00000000000E+00 0. -1.
        -12    1    4    4    0    0 -0.68241104273E+02  0.12653233658E+03  0.82462898050E+03  0.83706644658E+03  0.00000000000E+00 0.  1.
</event>
<event>
12    1  0.8313893E-002  0.2240387E+03  0.7818608E-02  0.1131072E+00
         21   -1    0    0  501  502  0.00000000000E+00  0.00000000000E+00  0.59463241578E+03  0.59463241578E+03  0.00000000000E+00 0. -1.
         21   -1    0    0  502  503 -0.00000000000E+00 -0.00000000000E+00 -0.13959800017E+03  0.13959800017E+03  0.00000000000E+00 0.  1.
         -6    2    1    2    0  503 -0.80469227608E+02 -0.11825609213E+03 -0.42909182388E+01  0.22317944454E+03  0.17126252529E+03 0.  0.
        -24    2    3    3    0    0  0.15304652104E+02 -0.32552451520E+02 -0.16209165098E+01  0.94544422259E+02  0.87419253794E+02 0.  0.
          6    2    1    2  501    0  0.80469227608E+02  0.11825609213E+03  0.45932533385E+03  0.51105097140E+03  0.17243414145E+03 0.  0.
         24    2    5    5    0    0 -0.24626990349E+01  0.62393026439E+01  0.11764341514E+03  0.14200613787E+03  0.79251348776E+02 0.  0.
          5    1    5    5  501    0  0.82931926643E+02  0.11201678948E+03  0.34168191871E+03  0.36904483353E+03  0.47000000000E+01 0. -1.
        -11    1    6    6    0    0 -0.32014162255E+02  0.12766417974E+02  0.10255124054E+03  0.10818800742E+03  0.00000000000E+00 0.  1.
         12    1    6    6    0    0  0.29551463220E+02 -0.65271153301E+01  0.15092174596E+02  0.33818130448E+02  0.00000000000E+00 0. -1.
         -5    1    3    3    0  503 -0.95773879711E+02 -0.85703640607E+02 -0.26700017290E+01  0.12863502228E+03  0.47000000000E+01 0.  1.
         11    1    4    4    0    0 -0.35907200799E+02 -0.16424492865E+02  0.71908136248E+01  0.40134758448E+02  0.00000000000E+00 0. -1.
        -12    1    4    4    0    0  0.51211852902E+02 -0.16127958656E+02 -0.88117301346E+01  0.54409663811E+02  0.00000000000E+00 0.  1.
</event>
<event>
12    1  0.8313893E-002  0.1873862E+03  0.7818608E-02  0.1160894E+00
         21   -1    0    0  503  502  0.00000000000E+00  0.00000000000E+00  0.21648031485E+02  0.21648031485E+02  0.00000000000E+00 0. -1.
         21   -1    0    0  501  503 -0.00000000000E+00 -0.00000000000E+00 -0.16555660391E+04  0.16555660391E+04  0.00000000000E+00 0. -1.
          6    2    1    2  501    0 -0.33373324550E+01  0.72703262138E+02 -0.69352612142E+03  0.71833425709E+03  0.17242018937E+03 0.  0.
         24    2    3    3    0    0 -0.50643319857E+01  0.53591972751E+02 -0.69175379890E+03  0.69849855603E+03  0.80493275998E+02 0.  0.
         -6    2    1    2    0  502  0.33373324550E+01 -0.72703262138E+02 -0.94039188623E+03  0.95887981353E+03  0.17267511400E+03 0.  0.
        -24    2    5    5    0    0  0.27209267611E+02 -0.56907222770E+02 -0.28633602662E+03  0.30418099603E+03  0.80987541991E+02 0.  0.
          5    1    3    3  501    0  0.17269995307E+01  0.19111289387E+02 -0.17723225201E+01  0.19835701060E+02  0.47000000000E+01 0. -1.
        -13    1    4    4    0    0  0.25503969374E+02  0.39013925398E+02 -0.19115961241E+03  0.19676009820E+03  0.00000000000E+00 0.  1.
         14    1    4    4    0    0 -0.30568301360E+02  0.14578047354E+02 -0.50059418649E+03  0.50173845782E+03  0.00000000000E+00 0. -1.
         -5    1    5    5    0  502 -0.23871935156E+02 -0.15796039368E+02 -0.65405585961E+03  0.65469881750E+03  0.47000000000E+01 0.  1.
         11    1    6    6    0    0 -0.10914756018E+02  0.98754167384E+01 -0.11186213146E+02  0.18487485476E+02  0.00000000000E+00 0. -1.
        -12    1    6    6    0    0  0.38124023629E+02 -0.66782639508E+02 -0.27514981348E+03  0.28569351055E+03  0.00000000000E+00 0.  1.
</event>
<event>
12    1  0.8313893E-002  0.1864123E+03  0.7818608E-02  0.1161903E+00
         21   -1    0    0  503  502  0.00000000000E+00  0.00000000000E+00  0.47414422223E+03  0.47414422223E+03  0.00000000000E+00 0. -1.
         21   -1    0    0  501  503 -0.00000000000E+00 -0.00000000000E+00 -0.88529966397E+02  0.88529966397E+02  0.00000000000E+00 0. -1.
          6    2    1    2  501    0  0.28493486542E+02  0.66602031410E+02  0.75311611815E+02  0.20105066024E+03  0.17176093778E+03 0.  0.
         24    2    3    3    0    0 -0.25561707095E+02  0.44930913774E+02  0.88142044299E+02  0.14123167248E+03  0.97494499626E+02 0.  0.
         -6    2    1    2    0  502 -0.28493486542E+02 -0.66602031410E+02  0.31030264402E+03  0.36162352838E+03  0.17098577729E+03 0.  0.
        -24    2    5    5    0    0 -0.63238196824E+02 -0.14911863427E+02  0.10421057864E+03  0.14627474671E+03  0.79467122859E+02 0.  0.
          5    1    3    3  501    0  0.54055193638E+02  0.21671117636E+02 -0.12830432483E+02  0.59818987759E+02  0.47000000000E+01 0. -1.
        -13    1    4    4    0    0 -0.24888277917E+02 -0.27025905412E+02  0.18682107160E+02  0.41217072542E+02  0.00000000000E+00 0.  1.
         14    1    4    4    0    0 -0.67342917835E+00  0.71956819186E+02  0.69459937139E+02  0.10001459994E+03  0.00000000000E+00 0. -1.
         -5    1    5    5    0  502  0.34744710282E+02 -0.51690167983E+02  0.20609206537E+03  0.21534878167E+03  0.47000000000E+01 0.  1.
         11    1    6    6    0    0 -0.37066998199E+02 -0.24777405961E+02  0.10912083816E+03  0.11787807058E+03  0.00000000000E+00 0. -1.
        -12    1    6    6    0    0 -0.26171198626E+02  0.98655425346E+01 -0.49102595167E+01  0.28396676135E+02  0.00000000000E+00 0.  1.
</event>
<event>
12    1  0.8313893E-002  0.2025571E+03  0.7818608E-02  0.1148033E+00
         21   -1    0    0  501  502  0.00000000000E+00  0.00000000000E+00  0.15626754820E+03  0.15626754820E+03  0.00000000000E+00 0. -1.
         21   -1    0    0  502  503 -0.00000000000E+00 -0.00000000000E+00 -0.49772921085E+03  0.49772921085E+03  0.00000000000E+00 0. -1.
         -6    2    1    2    0  503  0.23286487617E+01 -0.10402805566E+03 -0.39632045070E+03  0.44414238798E+03  0.17136307125E+03 0.  0.
        -24    2    3    3    0    0  0.39936028587E+02 -0.21210502489E+02 -0.27724430433E+03  0.29422814328E+03  0.87527276997E+02 0.  0.
          6    2    1    2  501    0 -0.23286487617E+01  0.10402805566E+03  0.54858788054E+02  0.20985437106E+03  0.17378754691E+03 0.  0.
         24    2    5    5    0    0  0.37310487988E+02  0.12170878355E+03  0.14942266835E+02  0.15069959131E+03  0.79259037201E+02 0.  0.
          5    1    5    5  501    0 -0.39639136750E+02 -0.17680727891E+02  0.39916521219E+02  0.59154779749E+02  0.47000000000E+01 0. -1.
        -11    1    6    6    0    0 -0.20844072887E+01  0.82998127046E+02  0.37422816711E+02  0.91068661226E+02  0.00000000000E+00 0.  1.
         12    1    6    6    0    0  0.39394895277E+02  0.38710656500E+02 -0.22480549876E+02  0.59630930089E+02  0.00000000000E+00 0. -1.
         -5    1    3    3    0  503 -0.37607379825E+02 -0.82817553167E+02 -0.11907614637E+03  0.14991424470E+03  0.47000000000E+01 0.  1.
         13    1    4    4    0    0  0.44299112538E+02  0.25288551794E+02 -0.16338885795E+03  0.17116612143E+03  0.00000000000E+00 0. -1.
        -14    1    4    4    0    0 -0.43630839507E+01 -0.46499054283E+02 -0.11385544638E+03  0.12306202185E+03  0.00000000000E+00 0.  1.
</event>
<event>
12    1  0.8313893E-002  0.1744017E+03  0.7818608E-02  0.1173492E+00
         21   -1    0    0  503  502  0.00000000000E+00  0.00000000000E+00  0.21283336359E+04  0.21283336359E+04  0.00000000000E+00 0.  1.
         21   -1    0    0  501  503 -0.00000000000E+00 -0.00000000000E+00 -0.15696541629E+02  0.15696541629E+02  0.00000000000E+00 0.  1.
          6    2    1    2  501    0  0.14001613487E+02  0.35567677485E+02  0.73145740184E+03  0.75196134742E+03  0.17016119547E+03 0.  0.
         24    2    3    3    0    0  0.67671006364E+02  0.35528831005E+02  0.57208836754E+03  0.58373238340E+03  0.87273891987E+02 0.  0.
         -6    2    1    2    0  502 -0.14001613487E+02 -0.35567677485E+02  0.13811796925E+04  0.13920688301E+04  0.16952044158E+03 0.  0.
        -24    2    5    5    0    0  0.26605061605E+02  0.25083591347E+02  0.50570039071E+03  0.51353961818E+03  0.81566159749E+02 0.  0.
          5    1    3    3  501    0 -0.53669392878E+02  0.38846479075E-01  0.15936903430E+03  0.16822896402E+03  0.47000000000E+01 0. -1.
        -11    1    4    4    0    0  0.24677659009E+02  0.58281661790E+02  0.39697124155E+03  0.40198495690E+03  0.00000000000E+00 0.  1.
         12    1    4    4    0    0  0.42993347355E+02 -0.22752830785E+02  0.17511712599E+03  0.18174742650E+03  0.00000000000E+00 0. -1.
         -5    1    5    5    0  502 -0.40606675092E+02 -0.60651268832E+02  0.87547930176E+03  0.87852921197E+03  0.47000000000E+01 0.  1.
         11    1    6    6    0    0 -0.42363694476E+01  0.43388758007E+02  0.38945502429E+03  0.39188741635E+03  0.00000000000E+00 0. -1.
        -12    1    6    6    0    0  0.30841431053E+02 -0.18305166660E+02  0.11624536642E+03  0.12165220183E+03  0.00000000000E+00 0.  1.
</event>
<event>
12    1  0.8313893E-002  0.2208135E+03  0.7818608E-02  0.1133813E+00
         21   -1    0    0  503  502  0.00000000000E+00  0.00000000000E+00  0.19304054787E+03  0.19304054787E+03  0.00000000000E+00 0.  1.
         21   -1    0    0  501  503 -0.00000000000E+00 -0.00000000000E+00 -0.38845692376E+03  0.38845692376E+03  0.00000000000E+00 0. -1.
          6    2    1    2  501    0 -0.13862947267E+03  0.13374517260E+01 -0.27212531544E+03  0.35044372967E+03  0.17186826610E+03 0.  0.
         24    2    3    3    0    0 -0.12382010264E+03 -0.34609775284E+02 -0.11982603484E+03  0.19319017187E+03  0.80217887768E+02 0.  0.
         -6    2    1    2    0  502  0.13862947267E+03 -0.13374517260E+01  0.76708939543E+02  0.23105374196E+03  0.16817149222E+03 0.  0.
        -24    2    5    5    0    0  0.14503612886E+03 -0.69615770574E+01  0.10753592081E+03  0.19872621803E+03  0.82729639427E+02 0.  0.
          5    1    3    3  501    0 -0.14809370031E+02  0.35947227010E+02 -0.15229928059E+03  0.15725355780E+03  0.47000000000E+01 0. -1.
        -11    1    4    4    0    0 -0.71710690124E+02 -0.51571429360E+02 -0.10337826619E+03  0.13597463486E+03  0.00000000000E+00 0.  1.
         12    1    4    4    0    0 -0.52109412518E+02  0.16961654076E+02 -0.16447768652E+02  0.57215537012E+02  0.00000000000E+00 0. -1.
         -5    1    5    5    0  502 -0.64066561905E+01  0.56241253314E+01 -0.30826981263E+02  0.32327523924E+02  0.47000000000E+01 0.  1.
         13    1    6    6    0    0 -0.69150413659E+01  0.88640435717E+01 -0.10554309012E+01  0.11291722629E+02  0.00000000000E+00 0. -1.
        -14    1    6    6    0    0  0.15195117023E+03 -0.15825620629E+02  0.10859135171E+03  0.18743449541E+03  0.00000000000E+00 0.  1.
</event>
<event>
12    1  0.8313893E-002  0.2022428E+03  0.7818608E-02  0.1147953E+00
         21   -1    0    0  503  502  0.00000000000E+00  0.00000000000E+00  0.27406026760E+03  0.27406026760E+03  0.00000000000E+00 0.  1.
         21   -1    0    0  501  503 -0.00000000000E+00 -0.00000000000E+00 -0.16893146730E+03  0.16893146730E+03  0.00000000000E+00 0. -1.
          6    2    1    2  501    0 -0.25952130059E+02  0.10283000148E+03  0.12875179257E+03  0.23937398478E+03  0.17168389046E+03 0.  0.
         24    2    3    3    0    0 -0.76766881112E+02  0.78268998520E+02  0.10321412327E+03  0.17724794882E+03  0.93511977598E+02 0.  0.
         -6    2    1    2    0  502  0.25952130059E+02 -0.10283000148E+03 -0.23622992271E+02  0.20361775012E+03  0.17220516874E+03 0.  0.
        -24    2    5    5    0    0  0.56347067285E+02 -0.32315006839E+02  0.33361668896E+02  0.10788082785E+03  0.79410455277E+02 0.  0.
          5    1    3    3  501    0  0.50814751053E+02  0.24561002955E+02  0.25537669303E+02  0.62126035960E+02  0.47000000000E+01 0. -1.
        -13    1    4    4    0    0 -0.57757756491E+02  0.83115805535E+02  0.36314034022E+02  0.10753094732E+03  0.00000000000E+00 0.  1.
         14    1    4    4    0    0 -0.19009124621E+02 -0.48468070151E+01  0.66900089247E+02  0.69717001502E+02  0.00000000000E+00 0. -1.
         -5    1    5    5    0  502 -0.30394937226E+02 -0.70514994637E+02 -0.56984661167E+02  0.95736922271E+02  0.47000000000E+01 0.  1.
         11    1    6    6    0    0  0.54097615578E+02  0.11597974500E+02  0.49899833341E+01  0.55551462244E+02  0.00000000000E+00 0. -1.
        -12    1    6    6    0    0  0.22494517070E+01 -0.43912981339E+02  0.28371685562E+02  0.52329365606E+02  0.00000000000E+00 0.  1.
</event>
<event>
12    1  0.8313893E-002  0.2385181E+03  0.7818608E-02  0.1120852E+00
         21   -1    0    0  501  502  0.00000000000E+00  0.00000000000E+00  0.84285849707E+03  0.84285849707E+03  0.00000000000E+00 0. -1.
         21   -1    0    0  502  503 -0.00000000000E+00 -0.00000000000E+00 -0.11836494234E+03  0.11836494234E+03  0.00000000000E+00 0. -1.
         -6    2    1    2    0  503 -0.56392887019E+02 -0.15534046443E+03  0.46650727916E+02  0.24264027329E+03  0.17142693549E+03 0.  0.
        -24    2    3    3    0    0 -0.67008172112E+02 -0.11819950392E+03 -0.28502731576E+02  0.15801009133E+03  0.75455718119E+02 0.  0.
          6    2    1    2  501    0  0.56392887019E+02  0.15534046443E+03  0.67784282681E+03  0.71858316612E+03  0.17198852050E+03 0.  0.
         24    2    5    5    0    0  0.71766440555E+01  0.84132471811E+02  0.19123456399E+03  0.22431349456E+03  0.81339463632E+02 0.  0.
          5    1    5    5  501    0  0.49216242963E+02  0.71207992615E+02  0.48660826282E+03  0.49426967156E+03  0.47000000000E+01 0. -1.
        -13    1    6    6    0    0 -0.67120720628E+01  0.90940973805E+02  0.18735293337E+03  0.20836610634E+03  0.00000000000E+00 0.  1.
         14    1    6    6    0    0  0.13888716118E+02 -0.68085019933E+01  0.38816306194E+01  0.15947388221E+02  0.00000000000E+00 0. -1.
         -5    1    3    3    0  503  0.10615285093E+02 -0.37140960507E+02  0.75153459492E+02  0.84630181960E+02  0.47000000000E+01 0.  1.
         13    1    4    4    0    0  0.73708560702E+01 -0.47051374942E+02 -0.27666503450E+02  0.55078097428E+02  0.00000000000E+00 0. -1.
        -14    1    4    4    0    0 -0.74379028182E+02 -0.71148128977E+02 -0.83622812604E+00  0.10293199390E+03  0.00000000000E+00 0.  1.
</event>
<event>
12    1  0.8313893E-002  0.1900756E+03  0.7818608E-02  0.1159255E+00
         21   -1    0    0  503  502  0.00000000000E+00  0.00000000000E+00  0.70765479559E+02  0.70765479559E+02  0.00000000000E+00 0. -1.
         21   -1    0    0  501  503 -0.00000000000E+00 -0.00000000000E+00 -0.12000859061E+04  0.12000859061E+04  0.00000000000E+00 0. -1.
          6    2    1    2  501    0 -0.63425188271E+02 -0.37973705900E+02 -0.10474610276E+04  0.10638980108E+04  0.17099595374E+03 0.  0.
         24    2    3    3    0    0 -0.83785179777E+02 -0.73475548235E+02 -0.64908613444E+03  0.66339887776E+03  0.79791281188E+02 0.  0.
         -6    2    1    2    0  502  0.63425188271E+02  0.37973705900E+02 -0.81859398864E+02  0.20695337478E+03  0.17511133974E+03 0.  0.
        -24    2    5    5    0    0 -0.16071630396E+02  0.66933645656E+02 -0.21211117442E+02  0.10274816221E+03  0.73272526294E+02 0.  0.
          5    1    3    3  501    0  0.20359991506E+02  0.35501842336E+02 -0.39837489320E+03  0.40049913308E+03  0.47000000000E+01 0. -1.
        -13    1    4    4    0    0  0.13684072436E+02 -0.15163555954E+02 -0.57801915235E+02  0.61304556702E+02  0.00000000000E+00 0.  1.
         14    1    4    4    0    0 -0.97469252213E+02 -0.58311992282E+02 -0.59128421921E+03  0.60209432106E+03  0.00000000000E+00 0. -1.
         -5    1    5    5    0  502  0.79496818667E+02 -0.28959939757E+02 -0.60648281421E+02  0.10420521258E+03  0.47000000000E+01 0.  1.
         13    1    6    6    0    0  0.12258060418E+02 -0.10954482584E+02  0.22950524897E+01  0.16599036111E+02  0.00000000000E+00 0. -1.
        -14    1    6    6    0    0 -0.28329690814E+02  0.77888128240E+02 -0.23506169932E+02  0.86149126096E+02  0.00000000000E+00 0.  1.
</event>
<event>
12    1  0.8313893E-002  0.1961204E+03  0.7818608E-02  0.1153458E+00
         21   -1    0    0  503  502  0.00000000000E+00  0.00000000000E+00  0.14944244843E+03  0.14944244843E+03  0.00000000000E+00 0.  1.
         21   -1    0    0  501  503 -0.00000000000E+00 -0.00000000000E+00 -0.40286697395E+03  0.40286697395E+03  0.00000000000E+00 0. -1.
          6    2    1    2  501    0 -0.22992570148E+02 -0.87586379948E+02 -0.29366485362E+03  0.35210329378E+03  0.17186521172E+03 0.  0.
         24    2    3    3    0    0  0.16642925649E+02 -0.59591497834E+02 -0.72816464798E+02  0.12593789678E+03  0.82036471835E+02 0.  0.
         -6    2    1    2    0  502  0.22992570148E+02  0.87586379948E+02  0.40240328109E+02  0.20020612860E+03  0.17396315038E+03 0.  0.
        -24    2    5    5    0    0  0.73542956295E+01  0.81860439814E+02  0.90951967937E+02  0.14662345944E+03  0.80442284381E+02 0.  0.
          5    1    3    3  501    0 -0.39635495797E+02 -0.27994882114E+02 -0.22084838883E+03  0.22616539700E+03  0.47000000000E+01 0. -1.
        -11    1    4    4    0    0  0.38302642789E+02 -0.51337505678E+02 -0.79235203181E+02  0.10188645326E+03  0.00000000000E+00 0.  1.
         12    1    4    4    0    0 -0.21659717140E+02 -0.82539921559E+01  0.64187383835E+01  0.24051443523E+02  0.00000000000E+00 0. -1.
         -5    1    5    5    0  502  0.15638274519E+02  0.57259401344E+01 -0.50711639828E+02  0.53582669160E+02  0.47000000000E+01 0.  1.
         11    1    6    6    0    0  0.27367060989E+01 -0.47348745116E+01 -0.11298049913E+02  0.12552072687E+02  0.00000000000E+00 0. -1.
        -12    1    6    6    0    0  0.46175895306E+01  0.86595314325E+02  0.10225001785E+03  0.13407138676E+03  0.00000000000E+00 0.  1.
</event>
<event>
12    1  0.8313893E-002  0.2343304E+03  0.7818608E-02  0.1124096E+00
         21   -1    0    0  501  502  0.00000000000E+00  0.00000000000E+00  0.18860850590E+03  0.18860850590E+03  0.00000000000E+00 0.  1.
         21   -1    0    0  502  503 -0.00000000000E+00 -0.00000000000E+00 -0.82870228685E+03  0.82870228685E+03  0.00000000000E+00 0. -1.
         -6    2    1    2    0  503 -0.46937327578E+02  0.15232364851E+03 -0.73164142960E+03  0.76825120677E+03  0.17177056962E+03 0.  0.
        -24    2    3    3    0    0 -0.22522799768E+02  0.17519079492E+03 -0.67647925632E+03  0.70356789429E+03  0.78641633413E+02 0.  0.
          6    2    1    2  501    0  0.46937327578E+02 -0.15232364851E+03  0.91547648651E+02  0.24905958598E+03  0.16805980715E+03 0.  0.
         24    2    5    5    0    0  0.46282822686E+02 -0.14818424824E+03  0.18772551629E+02  0.17601256169E+03  0.80791967890E+02 0.  0.
          5    1    5    5  501    0  0.65450489209E+00 -0.41394002687E+01  0.72775097023E+02  0.73047024292E+02  0.47000000000E+01 0. -1.
        -13    1    6    6    0    0  0.57421634151E+02 -0.61228790353E+02  0.26451928707E+02  0.88010870743E+02  0.00000000000E+00 0.  1.
         14    1    6    6    0    0 -0.11138811465E+02 -0.86955457883E+02 -0.76793770781E+01  0.88001690943E+02  0.00000000000E+00 0. -1.
         -5    1    3    3    0  503 -0.24414527810E+02 -0.22867146414E+02 -0.55162173275E+02  0.64683312482E+02  0.47000000000E+01 0.  1.
         11    1    4    4    0    0 -0.32103182561E+02  0.42724389041E+02 -0.29058176393E+03  0.29545515612E+03  0.00000000000E+00 0. -1.
        -12    1    4    4    0    0  0.95803827932E+01  0.13246640588E+03 -0.38589749239E+03  0.40811273817E+03  0.00000000000E+00 0.  1.
</event>
<event>
12    1  0.8313893E-002  0.2482736E+03  0.7818608E-02  0.1114480E+00
         21   -1    0    0  503  502  0.00000000000E+00  0.00000000000E+00  0.82886591226E+02  0.82886591226E+02  0.00000000000E+00 0. -1.
         21   -1    0    0  501  503 -0.00000000000E+00 -0.00000000000E+00 -0.74674559643E+03  0.74674559643E+03  0.00000000000E+00 0.  1.
          6    2    1    2  501    0 -0.17357205389E+03  0.42910963836E+02 -0.36403266532E+03  0.44035646267E+03  0.17153840411E+03 0.  0.
         24    2    3    3    0    0 -0.16286335277E+02 -0.44421517121E+01 -0.13641548385E+03  0.15962031228E+03  0.81144823810E+02 0.  0.
         -6    2    1    2    0  502  0.17357205389E+03 -0.42910963836E+02 -0.29982633988E+03  0.38927572499E+03  0.17225314880E+03 0.  0.
        -24    2    5    5    0    0  0.43227412998E+02  0.81827287601E+01 -0.51069667452E+02  0.10378971323E+03  0.78921653266E+02 0.  0.
          5    1    3    3  501    0 -0.15728571861E+03  0.47353115548E+02 -0.22761718147E+03  0.28073615038E+03  0.47000000000E+01 0. -1.
        -13    1    4    4    0    0  0.20307348721E+02  0.14907210599E+02 -0.10888089005E+02  0.27443830311E+02  0.00000000000E+00 0.  1.
         14    1    4    4    0    0 -0.36593683999E+02 -0.19349362311E+02 -0.12552739484E+03  0.13217648197E+03  0.00000000000E+00 0. -1.
         -5    1    5    5    0  502  0.13034464089E+03 -0.51093692596E+02 -0.24875667243E+03  0.28548601176E+03  0.47000000000E+01 0.  1.
         11    1    6    6    0    0  0.44486901961E+02 -0.26538838398E+02 -0.15509338585E+02  0.54073412810E+02  0.00000000000E+00 0. -1.
        -12    1    6    6    0    0 -0.12594889628E+01  0.34721567158E+02 -0.35560328867E+02  0.49716300420E+02  0.00000000000E+00 0.  1.
</event>
<event>
12    1  0.8313893E-002  0.1727684E+03  0.7818608E-02  0.1175508E+00
         21   -1    0    0  503  502  0.00000000000E+00  0.00000000000E+00  0.26888249074E+03  0.26888249074E+03  0.00000000000E+00 0.  1.
         21   -1    0    0  501  503 -0.00000000000E+00 -0.00000000000E+00 -0.12103519727E+03  0.12103519727E+03  0.00000000000E+00 0.  1.
          6    2    1    2  501    0 -0.30041955745E+01 -0.68255268100E+01  0.13391642982E+03  0.21859217746E+03  0.17260740675E+03 0.  0.
         24    2    3    3    0    0  0.16562506785E+02  0.19530196799E+02  0.15627899958E+03  0.17859649601E+03  0.82570197174E+02 0.  0.
         -6    2    1    2    0  502  0.30041955745E+01  0.68255268100E+01  0.13930863650E+02  0.17132551054E+03  0.17059527717E+03 0.  0.
        -24    2    5    5    0    0 -0.43642728644E+02  0.22783898174E+02  0.54565076638E+02  0.10726433337E+03  0.78131273156E+02 0.  0.
          5    1    3    3  501    0 -0.19566702360E+02 -0.26355723609E+02 -0.22362569757E+02  0.39995681446E+02  0.47000000000E+01 0. -1.
        -13    1    4    4    0    0  0.19196756131E+02  0.21462085220E+02  0.74649964401E+01  0.29746642160E+02  0.00000000000E+00 0.  1.
         14    1    4    4    0    0 -0.26342493455E+01 -0.19318884208E+01  0.14881400314E+03  0.14884985385E+03  0.00000000000E+00 0. -1.
         -5    1    5    5    0  502  0.46646924218E+02 -0.15958371364E+02 -0.40634212988E+02  0.64061177173E+02  0.47000000000E+01 0.  1.
         11    1    6    6    0    0  0.19760865512E+02  0.15421229177E+02  0.29445678838E+02  0.38669808861E+02  0.00000000000E+00 0. -1.
        -12    1    6    6    0    0 -0.63403594156E+02  0.73626689977E+01  0.25119397801E+02  0.68594524508E+02  0.00000000000E+00 0.  1.
</event>
<event>
12    1  0.8313893E-002  0.2139777E+03  0.7818608E-02  0.1138998E+00
         21   -1    0    0  503  502  0.00000000000E+00  0.00000000000E+00  0.23305055646E+03  0.23305055646E+03  0.00000000000E+00 0. -1.
         21   -1    0    0  501  503 -0.00000000000E+00 -0.00000000000E+00 -0.21749697295E+03  0.21749697295E+03  0.00000000000E+00 0. -1.
          6    2    1    2  501    0  0.11807165938E+03 -0.42608353040E+02 -0.66456731562E+02  0.22139223299E+03  0.16982825195E+03 0.  0.
         24    2    3    3    0    0  0.84954689785E+02 -0.79975955037E+02 -0.85224872866E+02  0.16784408193E+03  0.85410211230E+02 0.  0.
         -6    2    1    2    0  502 -0.11807165938E+03  0.42608353040E+02  0.82010315069E+02  0.22915529642E+03  0.17329186248E+03 0.  0.
        -24    2    5    5    0    0  0.76394646965E+01  0.21245053601E+02  0.54314800578E+02  0.98584209257E+02  0.79114063412E+02 0.  0.
          5    1    3    3  501    0  0.33116969598E+02  0.37367601997E+02  0.18768141304E+02  0.53548151064E+02  0.47000000000E+01 0. -1.
        -13    1    4    4    0    0  0.27317619786E+02 -0.69462393925E+02 -0.14555634051E+02  0.76046978922E+02  0.00000000000E+00 0.  1.
         14    1    4    4    0    0  0.57637069998E+02 -0.10513561112E+02 -0.70669238816E+02  0.91797103004E+02  0.00000000000E+00 0. -1.
         -5    1    5    5    0  502 -0.12571112408E+03  0.21363299439E+02  0.27695514491E+02  0.13057108716E+03  0.47000000000E+01 0.  1.
         13    1    6    6    0    0 -0.31258345642E+02  0.15293419461E+01  0.43615558526E+02  0.53681840548E+02  0.00000000000E+00 0. -1.
        -14    1    6    6    0    0  0.38897810339E+02  0.19715711655E+02  0.10699242053E+02  0.44902368709E+02  0.00000000000E+00 0.  1.
</event>
<event>
12    1  0.8313893E-002  0.2294743E+03  0.7818608E-02  0.1127227E+00
         21   -1    0    0  503  502  0.00000000000E+00  0.00000000000E+00  0.27162634598E+03  0.27162634598E+03  0.00000000000E+00 0.  1.
         21   -1    0    0  501  503 -0.00000000000E+00 -0.00000000000E+00 -0.19942588923E+03  0.19942588923E+03  0.00000000000E+00 0. -1.
          6    2    1    2  501    0 -0.81155777044E+01 -0.14966786269E+03  0.78837001047E+02  0.24148203324E+03  0.17213938514E+03 0.  0.
         24    2    3    3    0    0 -0.20501712826E+02 -0.14309451818E+03  0.28031050928E+01  0.16402321492E+03  0.77455769769E+02 0.  0.
         -6    2    1    2    0  502  0.81155777044E+01  0.14966786269E+03 -0.66365442961E+01  0.22957020198E+03  0.17375874710E+03 0.  0.
        -24    2    5    5    0    0 -0.37992634834E+02  0.84087668761E+02 -0.57955819940E+02  0.13426811831E+03  0.78453006250E+02 0.  0.
          5    1    3    3  501    0  0.12386135122E+02 -0.65733445091E+01  0.76033895954E+02  0.77458818319E+02  0.47000000000E+01 0. -1.
        -11    1    4    4    0    0 -0.34220997418E+02 -0.25079983729E+02  0.14024379986E+02  0.44685181908E+02  0.00000000000E+00 0.  1.
         12    1    4    4    0    0  0.13719284592E+02 -0.11801453446E+03 -0.11221274893E+02  0.11933803301E+03  0.00000000000E+00 0. -1.
         -5    1    5    5    0  502  0.46108212538E+02  0.65580193932E+02  0.51319275643E+02  0.95302083672E+02  0.47000000000E+01 0.  1.
         11    1    6    6    0    0  0.11585138851E+02  0.49949754207E+02 -0.53197295640E+02  0.73886031501E+02  0.00000000000E+00 0. -1.
        -12    1    6    6    0    0 -0.49577773685E+02  0.34137914554E+02 -0.47585242995E+01  0.60382086807E+02  0.00000000000E+00 0.  1.
</event>
<event>
12    1  0.8313893E-002  0.1742835E+03  0.7818608E-02  0.1173569E+00
         21   -1    0    0  503  502  0.00000000000E+00  0.00000000000E+00  0.34033183828E+02  0.34033183828E+02  0.00000000000E+00 0. -1.
         21   -1    0    0  501  503 -0.00000000000E+00 -0.00000000000E+00 -0.10063894555E+04  0.10063894555E+04  0.00000000000E+00 0. -1.
          6    2    1    2  501    0  0.11120692835E+02 -0.17268534359E+02 -0.66240490729E+03  0.68483217998E+03  0.17260643510E+03 0.  0.
         24    2    3    3    0    0  0.52874207067E+02 -0.55860877464E+02 -0.51176849349E+03  0.52375411176E+03  0.80593171256E+02 0.  0.
         -6    2    1    2    0  502 -0.11120692835E+02  0.17268534359E+02 -0.30995136435E+03  0.35559045932E+03  0.17306892965E+03 0.  0.
        -24    2    5    5    0    0 -0.44306753018E+02  0.50154501534E+02 -0.28155702309E+03  0.30071669471E+03  0.81716649691E+02 0.  0.
          5    1    3    3  501    0 -0.41753514231E+02  0.38592343105E+02 -0.15063641380E+03  0.16107806822E+03  0.47000000000E+01 0. -1.
        -13    1    4    4    0    0 -0.21272333910E+02 -0.79366299191E+01 -0.87547646475E+02  0.90443864843E+02  0.00000000000E+00 0.  1.
         14    1    4    4    0    0  0.74146540977E+02 -0.47924247545E+02 -0.42422084702E+03  0.43331024692E+03  0.00000000000E+00 0. -1.
         -5    1    5    5    0  502  0.33186060183E+02 -0.32885967175E+02 -0.28394341260E+02  0.54873764615E+02  0.47000000000E+01 0.  1.
         11    1    6    6    0    0 -0.27624117543E+02  0.40550982639E+02 -0.56472417356E+02  0.74810480450E+02  0.00000000000E+00 0. -1.
        -12    1    6    6    0    0 -0.16682635475E+02  0.96035188950E+01 -0.22508460573E+03  0.22590621426E+03  0.00000000000E+00 0.  1.
</event>
<event>
12    1  0.8313893E-002  0.1989123E+03  0.7818608E-02  0.1150676E+00
         21   -1    0    0  501  502  0.00000000000E+00  0.00000000000E+00  0.10412539254E+04  0.10412539254E+04  0.00000000000E+00 0. -1.
         21   -1    0    0  502  503 -0.00000000000E+00 -0.00000000000E+00 -0.40869697888E+02  0.40869697888E+02  0.00000000000E+00 0. -1.
         -6    2    1    2    0  503 -0.70294401213E+02  0.71156242866E+02  0.64405797435E+03  0.67407474469E+03  0.17193479391E+03 0.  0.
        -24    2    3    3    0    0 -0.47681448009E+02  0.10884427184E+03  0.36685645534E+03  0.39337115489E+03  0.77695628453E+02 0.  0.
          6    2    1    2  501    0  0.70294401213E+02 -0.71156242866E+02  0.35632625316E+03  0.40804887861E+03  0.17184578813E+03 0.  0.
         24    2    5    5    0    0  0.46020325146E+02  0.25654028818E+02  0.21138550162E+03  0.23200521660E+03  0.79790918759E+02 0.  0.
          5    1    5    5  501    0  0.24274076067E+02 -0.96810271684E+02  0.14494075155E+03  0.17604366200E+03  0.47000000000E+01 0. -1.
        -11    1    6    6    0    0  0.77264100970E+01  0.21660574968E+02  0.70205086336E+01  0.24045071479E+02  0.00000000000E+00 0.  1.
         12    1    6    6    0    0  0.38293915049E+02  0.39934538496E+01  0.20436499298E+03  0.20796014513E+03  0.00000000000E+00 0. -1.
         -5    1    3    3    0  503 -0.22612953204E+02 -0.37688028969E+02  0.27720151902E+03  0.28070358980E+03  0.47000000000E+01 0.  1.
         11    1    4    4    0    0 -0.37996472000E+01  0.90920552782E+02  0.28007842488E+03  0.29449093080E+03  0.00000000000E+00 0. -1.
        -12    1    4    4    0    0 -0.43881800809E+02  0.17923719053E+02  0.86778030456E+02  0.98880224094E+02  0.00000000000E+00 0.  1.
</event>
<event>
12    1  0.8313893E-002  0.1880131E+03  0.7818608E-02  0.1161467E+00
         21   -1    0    0  501  502  0.00000000000E+00  0.00000000000E+00  0.38283626428E+02  0.38283626428E+02  0.00000000000E+00 0.  1.
         21   -1    0    0  502  503 -0.00000000000E+00 -0.00000000000E+00 -0.16203834286E+04  0.16203834286E+04  0.00000000000E+00 0.  1.
         -6    2    1    2    0  503 -0.74332839556E+02  0.17435431472E+02 -0.13508402761E+04  0.13638615703E+04  0.17181259030E+03 0.  0.
        -24    2    3    3    0    0 -0.57252578505E+02 -0.53102934409E+02 -0.71989018716E+03  0.72873362959E+03  0.81933155295E+02 0.  0.
          6    2    1    2  501    0  0.74332839556E+02 -0.17435431472E+02 -0.23125952607E+03  0.29480548469E+03  0.16613229698E+03 0.  0.
         24    2    5    5    0    0  0.49533437152E+02 -0.73726308296E+02 -0.17678609940E+03  0.21250653338E+03  0.77566564056E+02 0.  0.
          5    1    5    5  501    0  0.24799402404E+02  0.56290876824E+02 -0.54473426670E+02  0.82298951308E+02  0.47000000000E+01 0. -1.
        -11    1    6    6    0    0 -0.12441469749E+02 -0.14432838231E+02 -0.38087573839E+01  0.19432025672E+02  0.00000000000E+00 0.  1.
         12    1    6    6    0    0  0.61974906901E+02 -0.59293470066E+02 -0.17297734201E+03  0.19307450771E+03  0.00000000000E+00 0. -1.
         -5    1    3    3    0  503 -0.17080261051E+02  0.70538365881E+02 -0.63095008890E+03  0.63512794070E+03  0.47000000000E+01 0.  1.
         13    1    4    4    0    0  0.30089574786E+01 -0.44808032777E+02 -0.18396141989E+03  0.18936371784E+03  0.00000000000E+00 0. -1.
        -14    1    4    4    0    0 -0.60261535984E+02 -0.82949016321E+01 -0.53592876727E+03  0.53936991175E+03  0.00000000000E+00 0.  1.
</event>
<event>
12    1  0.8313893E-002  0.2055152E+03  0.7818608E-02  0.1145571E+00
         21   -1    0    0  501  502  0.00000000000E+00  0.00000000000E+00  0.74086931828E+02  0.74086931828E+02  0.00000000000E+00 0.  1.
         21   -1    0    0  502  503 -0.00000000000E+00 -0.00000000000E+00 -0.10379338278E+04  0.10379338278E+04  0.00000000000E+00 0.  1.
         -6    2    1    2    0  503  0.88797629789E+02  0.67750203598E+02 -0.85864352418E+03  0.88289591181E+03  0.17251486990E+03 0.  0.
        -24    2    3    3    0    0  0.35351427826E+02  0.73327095697E+02 -0.26792181110E+03  0.28971648657E+03  0.74343522338E+02 0.  0.
          6    2    1    2  501    0 -0.88797629789E+02 -0.67750203598E+02 -0.10520337183E+03  0.22912484785E+03  0.17016267897E+03 0.  0.
         24    2    5    5    0    0 -0.97945381641E+01 -0.80764620018E+02 -0.97959794907E+02  0.14859272427E+03  0.76582109298E+02 0.  0.
          5    1    5    5  501    0 -0.79003091625E+02  0.13014416419E+02 -0.72435769194E+01  0.80532123575E+02  0.47000000000E+01 0. -1.
        -13    1    6    6    0    0 -0.38364833913E+02 -0.23505062732E+02 -0.24723698946E+02  0.51338189925E+02  0.00000000000E+00 0.  1.
         14    1    6    6    0    0  0.28570295749E+02 -0.57259557286E+02 -0.73236095961E+02  0.97254534349E+02  0.00000000000E+00 0. -1.
         -5    1    3    3    0  503  0.53446201962E+02 -0.55768920985E+01 -0.59072171307E+03  0.59317942524E+03  0.47000000000E+01 0.  1.
         13    1    4    4    0    0  0.27928277576E+02  0.29495391120E+01 -0.28325777759E+02  0.39887819632E+02  0.00000000000E+00 0. -1.
        -14    1    4    4    0    0  0.74231502505E+01  0.70377556585E+02 -0.23959603334E+03  0.24982866694E+03  0.00000000000E+00 0.  1.
</event>
<event>
12    1  0.8313893E-002  0.2974227E+03  0.7818608E-02  0.1087053E+00
         21   -1    0    0  503  502  0.00000000000E+00  0.00000000000E+00  0.48380254785E+03  0.48380254785E+03  0.00000000000E+00 0. -1.
         21   -1    0    0  501  503 -0.00000000000E+00 -0.00000000000E+00 -0.18113508274E+03  0.18113508274E+03  0.00000000000E+00 0.  1.
          6    2    1    2  501    0 -0.17195770093E+03  0.16417860116E+03  0.12850471607E+03  0.32027411111E+03  0.17186616947E+03 0.  0.
         24    2    3    3    0    0 -0.18118521096E+03  0.16244017795E+03  0.76501108940E+02  0.26722098480E+03  0.79622502887E+02 0.  0.
         -6    2    1    2    0  502  0.17195770093E+03 -0.16417860116E+03  0.17416274903E+03  0.34466351948E+03  0.17870706345E+03 0.  0.
        -24    2    5    5    0    0  0.68443511786E+02 -0.22241155020E+01  0.44902578236E+02  0.11298545722E+03  0.77846072583E+02 0.  0.
          5    1    3    3  501    0  0.92275100323E+01  0.17384232100E+01  0.52003607127E+02  0.53053126306E+02  0.47000000000E+01 0. -1.
        -13    1    4    4    0    0 -0.66314080172E+02  0.87005569541E+02 -0.10951464264E+01  0.10940167140E+03  0.00000000000E+00 0.  1.
         14    1    4    4    0    0 -0.11487113079E+03  0.75434608406E+02  0.77596255367E+02  0.15781931340E+03  0.00000000000E+00 0. -1.
         -5    1    5    5    0  502  0.10351418914E+03 -0.16195448566E+03  0.12926017080E+03  0.23167806226E+03  0.47000000000E+01 0.  1.
         13    1    6    6    0    0  0.72238036704E+02  0.21781389668E+02  0.46501613550E+02  0.88629357131E+02  0.00000000000E+00 0. -1.
        -14    1    6    6    0    0 -0.37945249175E+01 -0.24005505170E+02 -0.15990353142E+01  0.24356100094E+02  0.00000000000E+00 0.  1.
</event>
<event>
12    1  0.8313893E-002  0.2751445E+03  0.7818608E-02  0.1098509E+00
         21   -1    0    0  503  502  0.00000000000E+00  0.00000000000E+00  0.76872683772E+02  0.76872683772E+02  0.00000000000E+00 0. -1.
         21   -1    0    0  501  503 -0.00000000000E+00 -0.00000000000E+00 -0.13273531204E+04  0.13273531204E+04  0.00000000000E+00 0.  1.
          6    2    1    2  501    0  0.17906027163E+02 -0.21324202620E+03 -0.98291655384E+03  0.10204355688E+04  0.17137972683E+03 0.  0.
         24    2    3    3    0    0 -0.56008856655E+02 -0.12811035598E+03 -0.59101827957E+03  0.61261556111E+03  0.80286758473E+02 0.  0.
         -6    2    1    2    0  502 -0.17906027163E+02  0.21324202620E+03 -0.26756388282E+03  0.38379023538E+03  0.17295006747E+03 0.  0.
        -24    2    5    5    0    0 -0.22417116701E+02  0.30012502161E+02 -0.11728503146E+03  0.14672646427E+03  0.79809769486E+02 0.  0.
          5    1    3    3  501    0  0.73914883819E+02 -0.85131670217E+02 -0.39189827427E+03  0.40782000772E+03  0.47000000000E+01 0. -1.
        -13    1    4    4    0    0 -0.48818599073E+02 -0.31745554869E+02 -0.14514266572E+03  0.15638871213E+03  0.00000000000E+00 0.  1.
         14    1    4    4    0    0 -0.71902575818E+01 -0.96364801109E+02 -0.44587561385E+03  0.45622684897E+03  0.00000000000E+00 0. -1.
         -5    1    5    5    0  502  0.45110895372E+01  0.18322952403E+03 -0.15027885136E+03  0.23706377111E+03  0.47000000000E+01 0.  1.
         13    1    6    6    0    0 -0.23006987067E+02  0.79286100191E+01  0.29189420643E+01  0.24509274439E+02  0.00000000000E+00 0. -1.
        -14    1    6    6    0    0  0.58987036670E+00  0.22083892141E+02 -0.12020397352E+03  0.12221718983E+03  0.00000000000E+00 0.  1.
</event>
<event>
12    1  0.8313893E-002  0.2130352E+03  0.7818608E-02  0.1139253E+00
         21   -1    0    0  501  502  0.00000000000E+00  0.00000000000E+00  0.49516394753E+02  0.49516394753E+02  0.00000000000E+00 0.  1.
         21   -1    0    0  502  503 -0.00000000000E+00 -0.00000000000E+00 -0.92660308965E+03  0.92660308965E+03  0.00000000000E+00 0. -1.
         -6    2    1    2    0  503 -0.12490684718E+03  0.19229043476E+01 -0.49345808290E+03  0.53748012089E+03  0.17256472041E+03 0.  0.
        -24    2    3    3    0    0 -0.46386615891E+02  0.29601468252E+02 -0.41567621706E+03  0.42344662460E+03  0.59096204599E+02 0.  0.
          6    2    1    2  501    0  0.12490684718E+03 -0.19229043476E+01 -0.38362861200E+03  0.43863936352E+03  0.17212832787E+03 0.  0.
         24    2    5    5    0    0  0.79282720648E+02 -0.59652188463E+02 -0.17082588569E+03  0.21342541748E+03  0.80776186000E+02 0.  0.
          5    1    5    5  501    0  0.45624126530E+02  0.57729284115E+02 -0.21280272631E+03  0.22521394604E+03  0.47000000000E+01 0. -1.
        -13    1    6    6    0    0  0.32862842854E+02 -0.27126358343E+01 -0.67563685792E+01  0.33659669487E+02  0.00000000000E+00 0.  1.
         14    1    6    6    0    0  0.46419877794E+02 -0.56939552629E+02 -0.16406951711E+03  0.17976574800E+03  0.00000000000E+00 0. -1.
         -5    1    3    3    0  503 -0.78520231287E+02 -0.27678563905E+02 -0.77781865846E+02  0.11403349629E+03  0.47000000000E+01 0.  1.
         13    1    4    4    0    0  0.12373854137E+02 -0.12282490406E+01 -0.37926562147E+02  0.39912967545E+02  0.00000000000E+00 0. -1.
        -14    1    4    4    0    0 -0.58760470028E+02  0.30829717293E+02 -0.37774965491E+03  0.38353365705E+03  0.00000000000E+00 0.  1.
</event>
<event>
12    1  0.8313893E-002  0.2317616E+03  0.7818608E-02  0.1126302E+00
         21   -1    0    0  501  502  0.00000000000E+00  0.00000000000E+00  0.75165807734E+02  0.75165807734E+02  0.00000000000E+00 0.  1.
         21   -1    0    0  502  503 -0.00000000000E+00 -0.00000000000E+00 -0.69922822360E+03  0.69922822360E+03  0.00000000000E+00 0.  1.
         -6    2    1    2    0  503 -0.12860977422E+03  0.84890420983E+02 -0.32224188773E+03  0.39692981962E+03  0.17310860724E+03 0.  0.
        -24    2    3    3    0    0 -0.11155323134E+03  0.12109735347E+03 -0.21656728372E+03  0.28383216470E+03  0.80935881429E+02 0.  0.
          6    2    1    2  501    0  0.12860977422E+03 -0.84890420983E+02 -0.30182052814E+03  0.37746421171E+03  0.16624302187E+03 0.  0.
         24    2    5    5    0    0  0.39519299795E+02  0.18200783394E+02 -0.12029021695E+03  0.15043942687E+03  0.79178540595E+02 0.  0.
          5    1    5    5  501    0  0.89090474420E+02 -0.10309120438E+03 -0.18153031118E+03  0.22702478484E+03  0.47000000000E+01 0. -1.
        -11    1    6    6    0    0 -0.43976293381E+01 -0.26004052043E+02 -0.23490040939E+02  0.35317586127E+02  0.00000000000E+00 0.  1.
         12    1    6    6    0    0  0.43916929133E+02  0.44204835437E+02 -0.96800176014E+02  0.11512184075E+03  0.00000000000E+00 0. -1.
         -5    1    3    3    0  503 -0.17056542878E+02 -0.36206932492E+02 -0.10567460401E+03  0.11309765492E+03  0.47000000000E+01 0.  1.
         13    1    4    4    0    0 -0.58390967904E+02  0.25582336015E+02 -0.12854795509E+03  0.14348706495E+03  0.00000000000E+00 0. -1.
        -14    1    4    4    0    0 -0.53162263434E+02  0.95515017459E+02 -0.88019328624E+02  0.14034509975E+03  0.00000000000E+00 0.  1.
</event>
<event>
12    1  0.8313893E-002  0.2548678E+03  0.7818608E-02  0.1110585E+00
         21   -1    0    0  503  502  0.00000000000E+00  0.00000000000E+00  0.13885578760E+03  0.13885578760E+03  0.00000000000E+00 0. -1.
         21   -1    0    0  501  503 -0.00000000000E+00 -0.00000000000E+00 -0.50697398149E+03  0.50697398149E+03  0.00000000000E+00 0. -1.
          6    2    1    2  501    0  0.11055005184E+03  0.15070774151E+03 -0.90766979354E+02  0.27054803884E+03  0.17327278917E+03 0.  0.
         24    2    3    3    0    0  0.33360526240E+02  0.34726290924E+02  0.17487901779E+02  0.94051214419E+02  0.78873089408E+02 0.  0.
         -6    2    1    2    0  502 -0.11055005184E+03 -0.15070774151E+03 -0.27735121454E+03  0.37528173025E+03  0.17023085365E+03 0.  0.
        -24    2    5    5    0    0 -0.20485469291E+02 -0.50181560682E+02 -0.18080087321E+03  0.20926606691E+03  0.90363087162E+02 0.  0.
          5    1    3    3  501    0  0.77189525601E+02  0.11598145058E+03 -0.10825488113E+03  0.17649682442E+03  0.47000000000E+01 0. -1.
        -13    1    4    4    0    0 -0.23949754034E+02 -0.66806030627E+00  0.11052631335E+02  0.26385558214E+02  0.00000000000E+00 0.  1.
         14    1    4    4    0    0  0.57310280273E+02  0.35394351230E+02  0.64352704443E+01  0.67665656205E+02  0.00000000000E+00 0. -1.
         -5    1    5    5    0  502 -0.90064582551E+02 -0.10052618083E+03 -0.96550341330E+02  0.16601566333E+03  0.47000000000E+01 0.  1.
         11    1    6    6    0    0 -0.38141715822E+01 -0.73804058190E+02 -0.14877812040E+03  0.16612199138E+03  0.00000000000E+00 0. -1.
        -12    1    6    6    0    0 -0.16671297708E+02  0.23622497508E+02 -0.32022752815E+02  0.43144075533E+02  0.00000000000E+00 0.  1.
</event>
<event>
12    1  0.8313893E-002  0.2717545E+03  0.7818608E-02  0.1100399E+00
         21   -1    0    0  501  502  0.00000000000E+00  0.00000000000E+00  0.72554822912E+03  0.72554822912E+03  0.00000000000E+00 0. -1.
         21   -1    0    0  502  503 -0.00000000000E+00 -0.00000000000E+00 -0.37178652614E+03  0.37178652614E+03  0.00000000000E+00 0.  1.
         -6    2    1    2    0  503 -0.20875159724E+03 -0.30870953544E+02 -0.29103281943E+03  0.39761304972E+03  0.16989935313E+03 0.  0.
        -24    2    3    3    0    0 -0.80585179171E+02  0.40070311749E+02 -0.16296344120E+03  0.20297710884E+03  0.80888952009E+02 0.  0.
          6    2    1    2  501    0  0.20875159724E+03  0.30870953544E+02  0.64479452242E+03  0.69972170555E+03  0.17123155069E+03 0.  0.
         24    2    5    5    0    0  0.45351939674E+02 -0.20990585596E+02  0.16321977709E+03  0.18852175184E+03  0.80014699695E+02 0.  0.
          5    1    5    5  501    0  0.16339965756E+03  0.51861539140E+02  0.48157474533E+03  0.51119995371E+03  0.47000000000E+01 0. -1.
        -11    1    6    6    0    0  0.55905737011E+02 -0.37234678269E+02  0.87192852996E+02  0.11006573631E+03  0.00000000000E+00 0.  1.
         12    1    6    6    0    0 -0.10553797337E+02  0.16244092673E+02  0.76026924096E+02  0.78456015527E+02  0.00000000000E+00 0. -1.
         -5    1    3    3    0  503 -0.12816641807E+03 -0.70941265293E+02 -0.12806937823E+03  0.19463594088E+03  0.47000000000E+01 0.  1.
         11    1    4    4    0    0 -0.47547150949E+02  0.15757174934E+02 -0.19478991711E+02  0.53744313591E+02  0.00000000000E+00 0. -1.
        -12    1    4    4    0    0 -0.33038028222E+02  0.24313136815E+02 -0.14348444949E+03  0.14923279525E+03  0.00000000000E+00 0.  1.
</event>
<event>
12    1  0.8313893E-002  0.2023808E+03  0.7818608E-02  0.1147790E+00
         21   -1    0    0  501  502  0.00000000000E+00  0.00000000000E+00  0.38766709140E+03  0.38766709140E+03  0.00000000000E+00 0.  1.
         21   -1    0    0  502  503 -0.00000000000E+00 -0.00000000000E+00 -0.19021106372E+03  0.19021106372E+03  0.00000000000E+00 0. -1.
         -6    2    1    2    0  503 -0.11494492952E+02 -0.10576979149E+03 -0.94019522295E+02  0.22315387082E+03  0.17215866905E+03 0.  0.
        -24    2    3    3    0    0  0.11004595586E+02 -0.20593783001E+02 -0.10567177558E+03  0.13416495908E+03  0.79300107610E+02 0.  0.
          6    2    1    2  501    0  0.11494492952E+02  0.10576979149E+03  0.29147554998E+03  0.35472428430E+03  0.17190680464E+03 0.  0.
         24    2    5    5    0    0  0.41812357339E+02  0.12909958437E+03  0.26504691246E+03  0.30799083784E+03  0.78698884858E+02 0.  0.
          5    1    5    5  501    0 -0.30317864387E+02 -0.23329792887E+02  0.26428637514E+02  0.46733446459E+02  0.47000000000E+01 0. -1.
        -13    1    6    6    0    0  0.15270509805E+02 -0.77018787744E+01  0.36541473410E+02  0.40345838513E+02  0.00000000000E+00 0.  1.
         14    1    6    6    0    0  0.26541847534E+02  0.13680146315E+03  0.22850543905E+03  0.26764499933E+03  0.00000000000E+00 0. -1.
         -5    1    3    3    0  503 -0.22499088538E+02 -0.85176008486E+02  0.11652253286E+02  0.88988911743E+02  0.47000000000E+01 0.  1.
         11    1    4    4    0    0  0.27292015048E+02 -0.45249477258E+02 -0.62440889075E+02  0.81799962751E+02  0.00000000000E+00 0. -1.
        -12    1    4    4    0    0 -0.16287419462E+02  0.24655694257E+02 -0.43230886506E+02  0.52364996325E+02  0.00000000000E+00 0.  1.
</event>
<event>
12    1  0.8313893E-002  0.1799458E+03  0.7818608E-02  0.1168368E+00
         21   -1    0    0  503  502  0.00000000000E+00  0.00000000000E+00  0.12756189347E+04  0.12756189347E+04  0.00000000000E+00 0. -1.
         21   -1    0    0  501  503 -0.00000000000E+00 -0.00000000000E+00 -0.11807609810E+03  0.11807609810E+03  0.00000000000E+00 0. -1.
          6    2    1    2  501    0 -0.24189293024E+02 -0.36237334900E+02 -0.40349617830E+02  0.18236236751E+03  0.17242295406E+03 0.  0.
         24    2    3    3    0    0 -0.57146346406E+02 -0.76754535912E+02 -0.19357506921E+02  0.12587723968E+03  0.79456923574E+02 0.  0.
         -6    2    1    2    0  502  0.24189293024E+02  0.36237334900E+02  0.11978924545E+04  0.12113326653E+04  0.17459160141E+03 0.  0.
        -24    2    5    5    0    0 -0.52125658649E+02  0.36812761689E+02  0.69059373107E+03  0.69830402312E+03  0.81464983885E+02 0.  0.
          5    1    3    3  501    0  0.32957053383E+02  0.40517201012E+02 -0.20992110910E+02  0.56485127830E+02  0.47000000000E+01 0. -1.
        -11    1    4    4    0    0 -0.12457573152E+02  0.12963512913E+02  0.11088440723E+02  0.21123383099E+02  0.00000000000E+00 0.  1.
         12    1    4    4    0    0 -0.44688773255E+02 -0.89718048825E+02 -0.30445947644E+02  0.10475385658E+03  0.00000000000E+00 0. -1.
         -5    1    5    5    0  502  0.76314951673E+02 -0.57542678918E+00  0.50729872339E+03  0.51302864220E+03  0.47000000000E+01 0.  1.
         13    1    6    6    0    0 -0.20840069535E+02 -0.21521248751E+02  0.35386049753E+03  0.35512634985E+03  0.00000000000E+00 0. -1.
        -14    1    6    6    0    0 -0.31285589114E+02  0.58334010440E+02  0.33673323355E+03  0.34317767327E+03  0.00000000000E+00 0.  1.
</event>
<event>
12    1  0.8313893E-002  0.1819460E+03  0.7818608E-02  0.1166291E+00
         21   -1    0    0  501  502  0.00000000000E+00  0.00000000000E+00  0.28199926883E+03  0.28199926883E+03  0.00000000000E+00 0. -1.
         21   -1    0    0  502  503 -0.00000000000E+00 -0.00000000000E+00 -0.23434985834E+03  0.23434985834E+03  0.00000000000E+00 0. -1.
         -6    2    1    2    0  503  0.24846569283E+02 -0.51669418669E+02 -0.15936009917E+03  0.24074564456E+03  0.17110155854E+03 0.  0.
        -24    2    3    3    0    0 -0.66963300267E+01 -0.92189369870E+02 -0.13959915399E+03  0.18552421849E+03  0.79922406750E+02 0.  0.
          6    2    1    2  501    0 -0.24846569283E+02  0.51669418669E+02  0.20700950965E+03  0.27560348262E+03  0.17267675499E+03 0.  0.
         24    2    5    5    0    0  0.19393820856E+02 -0.29059580162E+02  0.13943243545E+03  0.16130941308E+03  0.73203437132E+02 0.  0.
          5    1    5    5  501    0 -0.44240390139E+02  0.80728998832E+02  0.67577074207E+02  0.11429406953E+03  0.47000000000E+01 0. -1.
        -13    1    6    6    0    0  0.42507504469E+02 -0.36599857542E+02  0.87014289270E+02  0.10352740722E+03  0.00000000000E+00 0.  1.
         14    1    6    6    0    0 -0.23113683613E+02  0.75402773793E+01  0.52418146176E+02  0.57782005863E+02  0.00000000000E+00 0. -1.
         -5    1    3    3    0  503  0.31542899310E+02  0.40519951200E+02 -0.19760945180E+02  0.55221426064E+02  0.47000000000E+01 0.  1.
         13    1    4    4    0    0  0.15733134684E+02 -0.12585166260E+02 -0.82747063035E+02  0.85164513606E+02  0.00000000000E+00 0. -1.
        -14    1    4    4    0    0 -0.22429464711E+02 -0.79604203609E+02 -0.56852090954E+02  0.10035970489E+03  0.00000000000E+00 0.  1.
</event>
<event>
12    1  0.8313893E-002  0.2462081E+03  0.7818608E-02  0.1116130E+00
         21   -1    0    0  501  502  0.00000000000E+00  0.00000000000E+00  0.17626697605E+04  0.17626697605E+04  0.00000000000E+00 0.  1.
         21   -1    0    0  502  503 -0.00000000000E+00 -0.00000000000E+00 -0.34199113312E+02  0.34199113312E+02  0.00000000000E+00 0.  1.
         -6    2    1    2    0  503 -0.57035817988E+02 -0.16371394505E+03  0.92078571795E+03  0.95249137165E+03  0.17128378310E+03 0.  0.
        -24    2    3    3    0    0 -0.32437238490E+02 -0.24341079031E+02  0.22357699607E+03  0.24104778445E+03  0.80453083537E+02 0.  0.
          6    2    1    2  501    0  0.57035817988E+02  0.16371394505E+03  0.80768492921E+03  0.84437750213E+03  0.17482299876E+03 0.  0.
         24    2    5    5    0    0 -0.80470377725E+01  0.26529100137E+02  0.19079432013E+03  0.20905744628E+03  0.80833132334E+02 0.  0.
          5    1    5    5  501    0  0.65082855761E+02  0.13718484491E+03  0.61689060908E+03  0.63532005585E+03  0.47000000000E+01 0. -1.
        -13    1    6    6    0    0 -0.43373772146E+02  0.89950813490E+01  0.12154044601E+03  0.12936102819E+03  0.00000000000E+00 0.  1.
         14    1    6    6    0    0  0.35326734373E+02  0.17534018788E+02  0.69253874114E+02  0.79696418088E+02  0.00000000000E+00 0. -1.
         -5    1    3    3    0  503 -0.24598579498E+02 -0.13937286602E+03  0.69720872188E+03  0.71144358720E+03  0.47000000000E+01 0.  1.
         13    1    4    4    0    0 -0.41169441684E+02 -0.39293506142E+00  0.20602581768E+03  0.21009929766E+03  0.00000000000E+00 0. -1.
        -14    1    4    4    0    0  0.87322031936E+01 -0.23948143969E+02  0.17551178392E+02  0.30948486799E+02  0.00000000000E+00 0.  1.
</event>
<event>
12    1  0.8313893E-002  0.1770810E+03  0.7818608E-02  0.1170731E+00
         21   -1    0    0  503  502  0.00000000000E+00  0.00000000000E+00  0.13475105892E+03  0.13475105892E+03  0.00000000000E+00 0. -1.
         21   -1    0    0  501  503 -0.00000000000E+00 -0.00000000000E+00 -0.30960591419E+03  0.30960591419E+03  0.00000000000E+00 0. -1.
          6    2    1    2  501    0  0.15880553235E+02 -0.41902812618E+02 -0.19837793579E+03  0.26572043523E+03  0.17101317672E+03 0.  0.
         24    2    3    3    0    0  0.16664943971E+02  0.30000698058E+02 -0.16499379274E+03  0.18630179054E+03  0.79420672842E+02 0.  0.
         -6    2    1    2    0  502 -0.15880553235E+02  0.41902812618E+02  0.23523080516E+02  0.17863653789E+03  0.17131736537E+03 0.  0.
        -24    2    5    5    0    0  0.15135470527E+02  0.81857135012E+02  0.42052770568E+02  0.12456453939E+03  0.82572489013E+02 0.  0.
          5    1    3    3  501    0 -0.78439073627E+00 -0.71903510675E+02 -0.33384143047E+02  0.79418644683E+02  0.47000000000E+01 0. -1.
        -11    1    4    4    0    0 -0.27481590435E+02  0.60518364573E+01 -0.10159395198E+03  0.10541913306E+03  0.00000000000E+00 0.  1.
         12    1    4    4    0    0  0.44146534406E+02  0.23948861600E+02 -0.63399840765E+02  0.80882657480E+02  0.00000000000E+00 0. -1.
         -5    1    5    5    0  502 -0.31016023761E+02 -0.39954322394E+02 -0.18529690052E+02  0.54071998496E+02  0.47000000000E+01 0.  1.
         13    1    6    6    0    0 -0.22918208358E+02  0.74886356907E+02  0.24294138930E+02  0.81996438407E+02  0.00000000000E+00 0. -1.
        -14    1    6    6    0    0  0.38053678885E+02  0.69707781051E+01  0.17758631638E+02  0.42568100988E+02  0.00000000000E+00 0.  1.
</event>
<event>
12    1  0.8313893E-002  0.2731783E+03  0.7818608E-02  0.1099774E+00
         21   -1    0    0  503  502  0.00000000000E+00  0.00000000000E+00  0.10390728600E+03  0.10390728600E+03  0.00000000000E+00 0.  1.
         21   -1    0    0  501  503 -0.00000000000E+00 -0.00000000000E+00 -0.71281990469E+03  0.71281990469E+03  0.00000000000E+00 0. -1.
          6    2    1    2  501    0 -0.17961722069E+03 -0.10842686454E+03 -0.29671888421E+03  0.40188827847E+03  0.17161981587E+03 0.  0.
         24    2    3    3    0    0 -0.16895195679E+03 -0.11225530653E+03 -0.31283066499E+03  0.38163774016E+03  0.81475899541E+02 0.  0.
         -6    2    1    2    0  502  0.17961722069E+03  0.10842686454E+03 -0.31219373447E+03  0.41483891222E+03  0.17495046249E+03 0.  0.
        -24    2    5    5    0    0  0.55850690261E+02  0.10970311056E+03 -0.19893970898E+03  0.24700462744E+03  0.79247751375E+02 0.  0.
          5    1    3    3  501    0 -0.10665263896E+02  0.38284419953E+01  0.16111780776E+02  0.20250538310E+02  0.47000000000E+01 0. -1.
        -13    1    4    4    0    0 -0.26407969160E+02 -0.21855348459E+02 -0.11327767260E+02  0.36102013829E+02  0.00000000000E+00 0.  1.
         14    1    4    4    0    0 -0.14254398763E+03 -0.90399958074E+02 -0.30150289773E+03  0.34553572633E+03  0.00000000000E+00 0. -1.
         -5    1    5    5    0  502  0.12376653043E+03 -0.12762460194E+01 -0.11325402550E+03  0.16783428478E+03  0.47000000000E+01 0.  1.
         13    1    6    6    0    0  0.75084817822E+02  0.84888424676E+02 -0.16995084003E+03  0.20427203073E+03  0.00000000000E+00 0. -1.
        -14    1    6    6    0    0 -0.19234127561E+02  0.24814685882E+02 -0.28988868946E+02  0.42732596706E+02  0.00000000000E+00 0.  1.
</event>
<event>
12    1  0.8313893E-002  0.1727806E+03  0.7818608E-02  0.1175141E+00
         21   -1    0    0  501  502  0.00000000000E+00  0.00000000000E+00  0.60494860777E+02  0.60494860777E+02  0.00000000000E+00 0.  1.
         21   -1    0    0  502  503 -0.00000000000E+00 -0.00000000000E+00 -0.50813410304E+03  0.50813410304E+03  0.00000000000E+00 0.  1.
         -6    2    1    2    0  503 -0.30350331577E+01  0.26560650776E+02 -0.27539005134E+03  0.32510431870E+03  0.17069990644E+03 0.  0.
        -24    2    3    3    0    0 -0.33947168503E+02  0.20317574739E+02 -0.60337167363E+02  0.10770061813E+03  0.79960210656E+02 0.  0.
          6    2    1    2  501    0  0.30350331577E+01 -0.26560650776E+02 -0.17224919092E+03  0.24352464513E+03  0.17005819420E+03 0.  0.
         24    2    5    5    0    0  0.35435217136E+01 -0.68277587295E+02 -0.17234110208E+03  0.20154060291E+03  0.79011225031E+02 0.  0.
          5    1    5    5  501    0 -0.50848855588E+00  0.41716936520E+02  0.91911158711E-01  0.41984042217E+02  0.47000000000E+01 0. -1.
        -13    1    6    6    0    0  0.81826780657E+01 -0.36722826535E+02 -0.14197754839E+02  0.40213162665E+02  0.00000000000E+00 0.  1.
         14    1    6    6    0    0 -0.46391563521E+01 -0.31554760760E+02 -0.15814334724E+03  0.16132744024E+03  0.00000000000E+00 0. -1.
         -5    1    3    3    0  503  0.30912135345E+02  0.62430760365E+01 -0.21505288398E+03  0.21740370056E+03  0.47000000000E+01 0.  1.
         13    1    4    4    0    0  0.39118426995E+01 -0.27556385378E+02 -0.23376563101E+02  0.36347222601E+02  0.00000000000E+00 0. -1.
        -14    1    4    4    0    0 -0.37859011202E+02  0.47873960117E+02 -0.36960604261E+02  0.71353395531E+02  0.00000000000E+00 0.  1.
</event>
<event>
12    1  0.8313893E-002  0.1840271E+03  0.7818608E-02  0.1164130E+00
         21   -1    0    0  501  502  0.00000000000E+00  0.00000000000E+00  0.13839705900E+04  0.13839705900E+04  0.00000000000E+00 0.  1.
         21   -1    0    0  502  503 -0.00000000000E+00 -0.00000000000E+00 -0.30134802969E+02  0.30134802969E+02  0.00000000000E+00 0.  1.
         -6    2    1    2    0  503  0.60429465222E+02  0.23704242430E+02  0.36673903923E+03  0.41000083574E+03  0.17143380950E+03 0.  0.
        -24    2    3    3    0    0  0.11307213994E+02 -0.15448671630E+02  0.32346282406E+03  0.33357527035E+03  0.79232240294E+02 0.  0.
          6    2    1    2  501    0 -0.60429465222E+02 -0.23704242430E+02  0.98709674785E+03  0.10041045573E+04  0.17219860903E+03 0.  0.
         24    2    5    5    0    0 -0.12552944516E+02  0.50502639971E+02  0.45423559515E+03  0.46395465152E+03  0.78840660237E+02 0.  0.
          5    1    5    5  501    0 -0.47876520706E+02 -0.74206882401E+02  0.53286115270E+03  0.54014990576E+03  0.47000000000E+01 0. -1.
        -13    1    6    6    0    0 -0.36325440417E+02  0.51604929405E+02  0.39675132193E+03  0.40173899215E+03  0.00000000000E+00 0.  1.
         14    1    6    6    0    0  0.23772495901E+02 -0.11022894340E+01  0.57484273219E+02  0.62215659370E+02  0.00000000000E+00 0. -1.
         -5    1    3    3    0  503  0.49122251228E+02  0.39152914059E+02  0.43276215171E+02  0.76425565386E+02  0.47000000000E+01 0.  1.
         13    1    4    4    0    0 -0.99472125925E+00  0.44405593925E+01  0.30136780770E+03  0.30140216249E+03  0.00000000000E+00 0. -1.
        -14    1    4    4    0    0  0.12301935253E+02 -0.19889231022E+02  0.22095016357E+02  0.32173107861E+02  0.00000000000E+00 0.  1.
</event>
<event>
12    1  0.8313893E-002  0.2474597E+03  0.7818608E-02  0.1115372E+00
         21   -1    0    0  503  502  0.00000000000E+00  0.00000000000E+00  0.41182456550E+03  0.41182456550E+03  0.00000000000E+00 0. -1.
         21   -1    0    0  501  503 -0.00000000000E+00 -0.00000000000E+00 -0.20753790358E+03  0.20753790358E+03  0.00000000000E+00 0.  1.
          6    2    1    2  501    0 -0.13988118298E+03 -0.11119048866E+03 -0.65496029641E+02  0.25327638434E+03  0.16712009707E+03 0.  0.
         24    2    3    3    0    0 -0.38352049125E+02 -0.44889079529E+02 -0.84421952719E+02  0.13045813472E+03  0.80039675675E+02 0.  0.
         -6    2    1    2    0  502  0.13988118298E+03  0.11119048866E+03  0.26978269155E+03  0.36608608474E+03  0.17119068507E+03 0.  0.
        -24    2    5    5    0    0  0.15249776978E+03  0.42163552440E+02  0.20276619351E+03  0.26894084709E+03  0.78623883542E+02 0.  0.
          5    1    3    3  501    0 -0.10152913386E+03 -0.66301409132E+02  0.18925923077E+02  0.12281824962E+03  0.47000000000E+01 0. -1.
        -11    1    4    4    0    0  0.45677962735E+01  0.17559898580E+02 -0.36608870115E+02  0.40858587495E+02  0.00000000000E+00 0.  1.
         12    1    4    4    0    0 -0.42919845398E+02 -0.62448978109E+02 -0.47813082603E+02  0.89599547230E+02  0.00000000000E+00 0. -1.
         -5    1    5    5    0  502 -0.12616586796E+02  0.69026936221E+02  0.67016498047E+02  0.97145237643E+02  0.47000000000E+01 0.  1.
         11    1    6    6    0    0  0.15371928888E+03  0.40102721691E+02  0.20884870548E+03  0.26240356293E+03  0.00000000000E+00 0. -1.
        -12    1    6    6    0    0 -0.12215191020E+01  0.20608307493E+01 -0.60825119700E+01  0.65372841577E+01  0.00000000000E+00 0.  1.
</event>
<event>
12    1  0.8313893E-002  0.4098052E+03  0.7818608E-02  0.1040517E+00
         21   -1    0    0  503  502  0.00000000000E+00  0.00000000000E+00  0.50244512247E+03  0.50244512247E+03  0.00000000000E+00 0. -1.
         21   -1    0    0  501  503 -0.00000000000E+00 -0.00000000000E+00 -0.33773344468E+03  0.33773344468E+03  0.00000000000E+00 0.  1.
          6    2    1    2  501    0  0.29411406638E+03 -0.22648794360E+03  0.12946537222E+03  0.42886045862E+03  0.17134800180E+03 0.  0.
         24    2    3    3    0    0  0.68246021511E+02 -0.59853205076E+02  0.90546924912E+02  0.14545219247E+03  0.68685290087E+02 0.  0.
         -6    2    1    2    0  502 -0.29411406638E+03  0.22648794360E+03  0.35246305578E+02  0.41131810853E+03  0.17360994128E+03 0.  0.
        -24    2    5    5    0    0 -0.19053548972E+03  0.16629145128E+03 -0.42189652468E+02  0.26859264889E+03  0.80033896897E+02 0.  0.
          5    1    3    3  501    0  0.22586804487E+03 -0.16663473853E+03  0.38918447306E+02  0.28340826614E+03  0.47000000000E+01 0. -1.
        -13    1    4    4    0    0  0.39047726923E+02  0.75589761786E+01  0.24850828698E+02  0.46898046715E+02  0.00000000000E+00 0.  1.
         14    1    4    4    0    0  0.29198294588E+02 -0.67412181254E+02  0.65696096215E+02  0.98554145759E+02  0.00000000000E+00 0. -1.
         -5    1    5    5    0  502 -0.10357857666E+03  0.60196492321E+02  0.77435958047E+02  0.14272545964E+03  0.47000000000E+01 0.  1.
         13    1    6    6    0    0 -0.12689592261E+02  0.38019566446E+02  0.13605302253E+02  0.42327502098E+02  0.00000000000E+00 0. -1.
        -14    1    6    6    0    0 -0.17784589746E+03  0.12827188483E+03 -0.55794954722E+02  0.22626514679E+03  0.00000000000E+00 0.  1.
</event>
<event>
12    1  0.8313893E-002  0.1911014E+03  0.7818608E-02  0.1157839E+00
         21   -1    0    0  503  502  0.00000000000E+00  0.00000000000E+00  0.83037216880E+02  0.83037216880E+02  0.00000000000E+00 0.  1.
         21   -1    0    0  501  503 -0.00000000000E+00 -0.00000000000E+00 -0.72041649349E+03  0.72041649349E+03  0.00000000000E+00 0.  1.
          6    2    1    2  501    0  0.82740451756E+02 -0.14101450419E+02 -0.57190997975E+03  0.60299318797E+03  0.17168263318E+03 0.  0.
         24    2    3    3    0    0  0.30485578134E+02 -0.55663597041E+02 -0.18718510394E+03  0.21248927773E+03  0.78010406360E+02 0.  0.
         -6    2    1    2    0  502 -0.82740451756E+02  0.14101450419E+02 -0.65469296855E+02  0.20046052240E+03  0.16986276505E+03 0.  0.
        -24    2    5    5    0    0  0.12448245823E+01 -0.38770853922E+02 -0.36811835409E+02  0.97056715387E+02  0.80994852142E+02 0.  0.
          5    1    3    3  501    0  0.52254873621E+02  0.41562146622E+02 -0.38472487581E+03  0.39050391025E+03  0.47000000000E+01 0. -1.
        -11    1    4    4    0    0 -0.19579172430E+02 -0.45160993375E+02 -0.98298610993E+02  0.10993396308E+03  0.00000000000E+00 0.  1.
         12    1    4    4    0    0  0.50064750564E+02 -0.10502603667E+02 -0.88886492951E+02  0.10255531465E+03  0.00000000000E+00 0. -1.
         -5    1    5    5    0  502 -0.83985276338E+02  0.52872304341E+02 -0.28657461446E+02  0.10340380701E+03  0.47000000000E+01 0.  1.
         11    1    6    6    0    0 -0.11298159310E+02 -0.35898311208E+02  0.17311381624E+02  0.41424884853E+02  0.00000000000E+00 0. -1.
        -12    1    6    6    0    0  0.12542983892E+02 -0.28725427138E+01 -0.54123217033E+02  0.55631830534E+02  0.00000000000E+00 0.  1.
</event>
<event>
12    1  0.8313893E-002  0.2305318E+03  0.7818608E-02  0.1126981E+00
         21   -1    0    0  501  502  0.00000000000E+00  0.00000000000E+00  0.17347750561E+04  0.17347750561E+04  0.00000000000E+00 0. -1.
         21   -1    0    0  502  503 -0.00000000000E+00 -0.00000000000E+00 -0.38753394918E+02  0.38753394918E+02  0.00000000000E+00 0. -1.
         -6    2    1    2    0  503 -0.12597266965E+03  0.78307353307E+02  0.43483588231E+03  0.49216578832E+03  0.17647595747E+03 0.  0.
        -24    2    3    3    0    0  0.68750651104E+01  0.55394039367E+02  0.19382795526E+03  0.21597662942E+03  0.77206619544E+02 0.  0.
          6    2    1    2  501    0  0.12597266965E+03 -0.78307353307E+02  0.12611857789E+04  0.12813626627E+04  0.17117111161E+03 0.  0.
         24    2    5    5    0    0  0.13676726363E+03 -0.34364279397E+02  0.72514779007E+03  0.74339767086E+03  0.83154022760E+02 0.  0.
          5    1    5    5  501    0 -0.10794593978E+02 -0.43943073910E+02  0.53603798880E+03  0.53796499183E+03  0.47000000000E+01 0. -1.
        -11    1    6    6    0    0  0.37212658673E+02 -0.98046577887E+01  0.66631642406E+02  0.76946013864E+02  0.00000000000E+00 0.  1.
         12    1    6    6    0    0  0.99554604957E+02 -0.24559621608E+02  0.65851614766E+03  0.66645165699E+03  0.00000000000E+00 0. -1.
         -5    1    3    3    0  503 -0.13284773476E+03  0.22913313940E+02  0.24100792706E+03  0.27618915890E+03  0.47000000000E+01 0.  1.
         11    1    4    4    0    0  0.14615902355E+02  0.71166810316E+02  0.12167275124E+03  0.14171308297E+03  0.00000000000E+00 0. -1.
        -12    1    4    4    0    0 -0.77408372445E+01 -0.15772770949E+02  0.72155204018E+02  0.74263546451E+02  0.00000000000E+00 0.  1.
</event>
<event>
12    1  0.8313893E-002  0.2176585E+03  0.7818608E-02  0.1136510E+00
         21   -1    0    0  503  502  0.00000000000E+00  0.00000000000E+00  0.41938196449E+03  0.41938196449E+03  0.00000000000E+00 0. -1.
         21   -1    0    0  501  503 -0.00000000000E+00 -0.00000000000E+00 -0.19544877593E+03  0.19544877593E+03  0.00000000000E+00 0. -1.
          6    2    1    2  501    0 -0.26282369130E+02  0.13009252217E+03  0.31515990400E+03  0.38301564693E+03  0.17251200959E+03 0.  0.
         24    2    3    3    0    0 -0.35841994547E+02  0.13944338123E+03  0.32598805708E+03  0.36517849743E+03  0.79737171289E+02 0.  0.
         -6    2    1    2    0  502  0.26282369130E+02 -0.13009252217E+03 -0.91226715449E+02  0.23181509349E+03  0.16673660877E+03 0.  0.
        -24    2    5    5    0    0  0.44850103672E+02 -0.14948889567E+03 -0.10205476840E+03  0.20248393596E+03  0.78905683219E+02 0.  0.
          5    1    3    3  501    0  0.95596254174E+01 -0.93508590598E+01 -0.10828153078E+02  0.17837149502E+02  0.47000000000E+01 0. -1.
        -13    1    4    4    0    0  0.99274834279E+01  0.12958623399E+01  0.22903247468E+01  0.10270334652E+02  0.00000000000E+00 0.  1.
         14    1    4    4    0    0 -0.45769477975E+02  0.13814751889E+03  0.32369773233E+03  0.35490816278E+03  0.00000000000E+00 0. -1.
         -5    1    5    5    0  502 -0.18567734542E+02  0.19396373496E+02  0.10828052950E+02  0.29331157521E+02  0.47000000000E+01 0.  1.
         11    1    6    6    0    0  0.26620883883E+02 -0.50363087971E+01 -0.51296306426E+01  0.27574426115E+02  0.00000000000E+00 0. -1.
        -12    1    6    6    0    0  0.18229219789E+02 -0.14445258687E+03 -0.96925137756E+02  0.17490950985E+03  0.00000000000E+00 0.  1.
</event>
<event>
12    1  0.8313893E-002  0.2022419E+03  0.7818608E-02  0.1148524E+00
         21   -1    0    0  503  502  0.00000000000E+00  0.00000000000E+00  0.50730684903E+03  0.50730684903E+03  0.00000000000E+00 0.  1.
         21   -1    0    0  501  503 -0.00000000000E+00 -0.00000000000E+00 -0.18761576637E+03  0.18761576637E+03  0.00000000000E+00 0.  1.
          6    2    1    2  501    0  0.29207014260E+02 -0.85835939083E+02 -0.10460738434E+03  0.22488966682E+03  0.17723374188E+03 0.  0.
         24    2    3    3    0    0  0.70651694875E+02 -0.99224871863E+02 -0.10670264628E+03  0.18103302314E+03  0.80933698529E+02 0.  0.
         -6    2    1    2    0  502 -0.29207014260E+02  0.85835939083E+02  0.42429846700E+03  0.47003294858E+03  0.18077866449E+03 0.  0.
        -24    2    5    5    0    0  0.46922700461E+02  0.59656695119E+02  0.16687596158E+03  0.20027468165E+03  0.80633122648E+02 0.  0.
          5    1    3    3  501    0 -0.41444680615E+02  0.13388932780E+02  0.20952619420E+01  0.43856643680E+02  0.47000000000E+01 0. -1.
        -11    1    4    4    0    0  0.47829095433E+02 -0.81461237167E+02 -0.30086456294E+02  0.99140054383E+02  0.00000000000E+00 0.  1.
         12    1    4    4    0    0  0.22822599442E+02 -0.17763634696E+02 -0.76616189991E+02  0.81892968755E+02  0.00000000000E+00 0. -1.
         -5    1    5    5    0  502 -0.76129714721E+02  0.26179243964E+02  0.25742250542E+03  0.26975826693E+03  0.47000000000E+01 0.  1.
         11    1    6    6    0    0  0.16567995128E+02 -0.50390935086E+01 -0.14789220064E+01  0.17380395169E+02  0.00000000000E+00 0. -1.
        -12    1    6    6    0    0  0.30354705333E+02  0.64695788627E+02  0.16835488358E+03  0.18289428648E+03  0.00000000000E+00 0.  1.
</event>
<event>
12    1  0.8313893E-002  0.2412210E+03  0.7818608E-02  0.1119248E+00
         21   -1    0    0  503  502  0.00000000000E+00  0.00000000000E+00  0.40053767762E+02  0.40053767762E+02  0.00000000000E+00 0. -1.
         21   -1    0    0  501  503 -0.00000000000E+00 -0.00000000000E+00 -0.15314896586E+04  0.15314896586E+04  0.00000000000E+00 0. -1.
          6    2    1    2  501    0 -0.74548387454E+02  0.14903608095E+03 -0.93682219889E+03  0.96737966741E+03  0.17440863824E+03 0.  0.
         24    2    3    3    0    0  0.15643214966E+02  0.50786678193E+02 -0.25056791757E+03  0.26826987710E+03  0.79752421810E+02 0.  0.
         -6    2    1    2    0  502  0.74548387454E+02 -0.14903608095E+03 -0.55461369194E+03  0.60416375894E+03  0.17218677311E+03 0.  0.
        -24    2    5    5    0    0  0.69435102223E+02 -0.25958432675E+02 -0.18466931292E+03  0.21422121605E+03  0.79327804850E+02 0.  0.
          5    1    3    3  501    0 -0.90191602419E+02  0.98249402759E+02 -0.68625428131E+03  0.69910979031E+03  0.47000000000E+01 0. -1.
        -11    1    4    4    0    0  0.20299423459E+02  0.69195254898E+02 -0.15663781451E+03  0.17243971360E+03  0.00000000000E+00 0.  1.
         12    1    4    4    0    0 -0.46562084930E+01 -0.18408576705E+02 -0.93930103062E+02  0.95830163493E+02  0.00000000000E+00 0. -1.
         -5    1    5    5    0  502  0.51132852305E+01 -0.12307764828E+03 -0.36994437901E+03  0.38994254289E+03  0.47000000000E+01 0.  1.
         11    1    6    6    0    0  0.26826285118E+02 -0.11103572436E+02 -0.56187052421E+01  0.29572093985E+02  0.00000000000E+00 0. -1.
        -12    1    6    6    0    0  0.42608817105E+02 -0.14854860239E+02 -0.17905060768E+03  0.18464912206E+03  0.00000000000E+00 0.  1.
</event>
<event>
12    1  0.8313893E-002  0.1826658E+03  0.7818608E-02  0.1165320E+00
         21   -1    0    0  503  502  0.00000000000E+00  0.00000000000E+00  0.41005966871E+02  0.41005966871E+02  0.00000000000E+00 0.  1.
         21   -1    0    0  501  503 -0.00000000000E+00 -0.00000000000E+00 -0.81319814836E+03  0.81319814836E+03  0.00000000000E+00 0.  1.
          6    2    1    2  501    0  0.16459880886E+01 -0.61091682059E+02 -0.40026217116E+03  0.43997338976E+03  0.17213911568E+03 0.  0.
         24    2    3    3    0    0  0.29197625963E+02  0.24330715886E+02 -0.15341106106E+03  0.17726891820E+03  0.80279702345E+02 0.  0.
         -6    2    1    2    0  502 -0.16459880886E+01  0.61091682059E+02 -0.37193001033E+03  0.41423072547E+03  0.17181460486E+03 0.  0.
        -24    2    5    5    0    0 -0.22514294788E+02  0.51809485245E+00 -0.32311184665E+03  0.33354647176E+03  0.79654387734E+02 0.  0.
          5    1    3    3  501    0 -0.27551637874E+02 -0.85422397944E+02 -0.24685111010E+03  0.26270447156E+03  0.47000000000E+01 0. -1.
        -11    1    4    4    0    0  0.16184373169E+02 -0.27940229616E+02 -0.37723046519E+02  0.49654995766E+02  0.00000000000E+00 0.  1.
         12    1    4    4    0    0  0.13013252794E+02  0.52270945501E+02 -0.11568801454E+03  0.12761392244E+03  0.00000000000E+00 0. -1.
         -5    1    5    5    0  502  0.20868306699E+02  0.60573587206E+02 -0.48818163687E+02  0.80684253713E+02  0.47000000000E+01 0.  1.
         13    1    6    6    0    0  0.20032645873E+02 -0.24732803480E+02 -0.15832731621E+03  0.16149476006E+03  0.00000000000E+00 0. -1.
        -14    1    6    6    0    0 -0.42546940660E+02  0.25250898333E+02 -0.16478453043E+03  0.17205171169E+03  0.00000000000E+00 0.  1.
</event>
<event>
12    1  0.8313893E-002  0.1797750E+03  0.7818608E-02  0.1168076E+00
         21   -1    0    0  503  502  0.00000000000E+00  0.00000000000E+00  0.14241735284E+03  0.14241735284E+03  0.00000000000E+00 0. -1.
         21   -1    0    0  501  503 -0.00000000000E+00 -0.00000000000E+00 -0.23024449694E+03  0.23024449694E+03  0.00000000000E+00 0. -1.
          6    2    1    2  501    0  0.50610057131E+02  0.68820849933E+00 -0.67240878308E+02  0.19193852467E+03  0.17250278265E+03 0.  0.
         24    2    3    3    0    0  0.13476081649E+02  0.65519630533E+02 -0.41793924297E+02  0.11287094037E+03  0.80738406666E+02 0.  0.
         -6    2    1    2    0  502 -0.50610057131E+02 -0.68820849933E+00 -0.20586265791E+02  0.18072332511E+03  0.17226512817E+03 0.  0.
        -24    2    5    5    0    0 -0.53249344538E+02 -0.52007213419E+02 -0.53797711021E+02  0.11935805644E+03  0.76235877286E+02 0.  0.
          5    1    3    3  501    0  0.37133975482E+02 -0.64831422034E+02 -0.25446954011E+02  0.79067584296E+02  0.47000000000E+01 0. -1.
        -13    1    4    4    0    0 -0.21685150117E+02  0.13343095866E+02 -0.42963975306E+02  0.49941837341E+02  0.00000000000E+00 0.  1.
         14    1    4    4    0    0  0.35161231766E+02  0.52176534667E+02  0.11700510091E+01  0.62929103033E+02  0.00000000000E+00 0. -1.
         -5    1    5    5    0  502  0.26392874068E+01  0.51319004920E+02  0.33211445230E+02  0.61365268664E+02  0.47000000000E+01 0.  1.
         11    1    6    6    0    0 -0.72702664954E+02 -0.43832447133E+02 -0.38063471336E+02  0.93036491568E+02  0.00000000000E+00 0. -1.
        -12    1    6    6    0    0  0.19453320416E+02 -0.81747662865E+01 -0.15734239685E+02  0.26321564876E+02  0.00000000000E+00 0.  1.
</event>
<event>
12    1  0.8313893E-002  0.1892455E+03  0.7818608E-02  0.1159683E+00
         21   -1    0    0  503  502  0.00000000000E+00  0.00000000000E+00  0.92660390222E+03  0.92660390222E+03  0.00000000000E+00 0. -1.
         21   -1    0    0  501  503 -0.00000000000E+00 -0.00000000000E+00 -0.60931767151E+02  0.60931767151E+02  0.00000000000E+00 0. -1.
          6    2    1    2  501    0 -0.39945828503E+02 -0.63517085853E+02  0.12934650105E+03  0.22727960435E+03  0.17115902492E+03 0.  0.
         24    2    3    3    0    0 -0.15927360014E+02  0.26755487991E+02  0.92308489735E+02  0.12668174802E+03  0.80980683308E+02 0.  0.
         -6    2    1    2    0  502  0.39945828503E+02  0.63517085853E+02  0.73632563401E+03  0.76025606502E+03  0.17373472790E+03 0.  0.
        -24    2    5    5    0    0  0.39052829714E+02  0.74196476464E+02  0.27198848602E+03  0.29577148633E+03  0.80453682142E+02 0.  0.
          5    1    3    3  501    0 -0.24018468489E+02 -0.90272573844E+02  0.37038011320E+02  0.10059785634E+03  0.47000000000E+01 0. -1.
        -11    1    4    4    0    0 -0.76948402201E+01 -0.21889560571E+02  0.67665175445E+02  0.71532785463E+02  0.00000000000E+00 0.  1.
         12    1    4    4    0    0 -0.82325197941E+01  0.48645048562E+02  0.24643314290E+02  0.55148962555E+02  0.00000000000E+00 0. -1.
         -5    1    5    5    0  502  0.89299878897E+00 -0.10679390611E+02  0.46433714799E+03  0.46448457868E+03  0.47000000000E+01 0.  1.
         11    1    6    6    0    0 -0.30001014666E+00  0.12899378192E+02  0.16974013886E+03  0.17022984082E+03  0.00000000000E+00 0. -1.
        -12    1    6    6    0    0  0.39352839861E+02  0.61297098273E+02  0.10224834716E+03  0.12554164552E+03  0.00000000000E+00 0.  1.
</event>
<event>
12    1  0.8313893E-002  0.1816945E+03  0.7818608E-02  0.1166175E+00
         21   -1    0    0  503  502  0.00000000000E+00  0.00000000000E+00  0.17117851807E+04  0.17117851807E+04  0.00000000000E+00 0.  1.
         21   -1    0    0  501  503 -0.00000000000E+00 -0.00000000000E+00 -0.25335117761E+02  0.25335117761E+02  0.00000000000E+00 0. -1.
          6    2    1    2  501    0  0.36274492391E+01  0.58550384544E+02  0.41878910961E+03  0.45650544995E+03  0.17196395433E+03 0.  0.
         24    2    3    3    0    0 -0.58376773698E+01  0.84492287076E+02  0.41107158415E+03  0.42744996634E+03  0.80997539335E+02 0.  0.
         -6    2    1    2    0  502 -0.36274492391E+01 -0.58550384544E+02  0.12676609533E+04  0.12806148485E+04  0.17195578418E+03 0.  0.
        -24    2    5    5    0    0 -0.22726997343E+02 -0.10138060951E+03  0.10310458994E+04  0.10393515180E+04  0.80008667538E+02 0.  0.
          5    1    3    3  501    0  0.94651266088E+01 -0.25941902532E+02  0.77175254672E+01  0.29055483614E+02  0.47000000000E+01 0. -1.
        -11    1    4    4    0    0  0.26163884624E+02  0.52628106508E+02  0.12863435464E+03  0.14142511675E+03  0.00000000000E+00 0.  1.
         12    1    4    4    0    0 -0.32001561994E+02  0.31864180569E+02  0.28243722950E+03  0.28602484959E+03  0.00000000000E+00 0. -1.
         -5    1    5    5    0  502  0.19099548104E+02  0.42830224968E+02  0.23661505385E+03  0.24126333045E+03  0.47000000000E+01 0.  1.
         11    1    6    6    0    0 -0.15130606618E+02  0.42595572467E+01  0.45657878395E+02  0.48287896455E+02  0.00000000000E+00 0. -1.
        -12    1    6    6    0    0 -0.75963907251E+01 -0.10564016676E+03  0.98538802105E+03  0.99106362158E+03  0.00000000000E+00 0.  1.
</event>
<event>
12    1  0.8313893E-002  0.2162682E+03  0.7818608E-02  0.1136776E+00
         21   -1    0    0  501  502  0.00000000000E+00  0.00000000000E+00  0.27446396655E+03  0.27446396655E+03  0.00000000000E+00 0. -1.
         21   -1    0    0  502  503 -0.00000000000E+00 -0.00000000000E+00 -0.17427423577E+03  0.17427423577E+03  0.00000000000E+00 0.  1.
         -6    2    1    2    0  503 -0.12119860983E+03 -0.23119984407E+02  0.15344007473E+02  0.21681188275E+03  0.17761845972E+03 0.  0.
        -24    2    3    3    0    0 -0.11825543163E+03  0.42320692084E+02  0.15466886299E+02  0.15113654844E+03  0.82629556542E+02 0.  0.
          6    2    1    2  501    0  0.12119860983E+03  0.23119984407E+02  0.84845723308E+02  0.23192631957E+03  0.17710839687E+03 0.  0.
         24    2    5    5    0    0  0.13541879568E+03 -0.26922118449E+02  0.78540394182E+02  0.17931194018E+03  0.83193315151E+02 0.  0.
          5    1    5    5  501    0 -0.14220185851E+02  0.50042102856E+02  0.63053291257E+01  0.52614379397E+02  0.47000000000E+01 0. -1.
        -13    1    6    6    0    0  0.21588926372E+02 -0.33558949130E+02 -0.16117804376E+01  0.39935981830E+02  0.00000000000E+00 0.  1.
         14    1    6    6    0    0  0.11382986931E+03  0.66368306805E+01  0.80152174619E+02  0.13937595835E+03  0.00000000000E+00 0. -1.
         -5    1    3    3    0  503 -0.29431781994E+01 -0.65440676492E+02 -0.12287882594E+00  0.65675334311E+02  0.47000000000E+01 0.  1.
         13    1    4    4    0    0 -0.40742437384E+02  0.30458924307E+02  0.44432822773E+02  0.67542342376E+02  0.00000000000E+00 0. -1.
        -14    1    4    4    0    0 -0.77512994248E+02  0.11861767777E+02 -0.28965936475E+02  0.83594206067E+02  0.00000000000E+00 0.  1.
</event>
<event>
12    1  0.8313893E-002  0.2002970E+03  0.7818608E-02  0.1149634E+00
         21   -1    0    0  503  502  0.00000000000E+00  0.00000000000E+00  0.20876755489E+03  0.20876755489E+03  0.00000000000E+00 0.  1.
         21   -1    0    0  501  503 -0.00000000000E+00 -0.00000000000E+00 -0.19353118163E+03  0.19353118163E+03  0.00000000000E+00 0.  1.
          6    2    1    2  501    0  0.77200463672E+02  0.65524540606E+02 -0.12916913378E+02  0.20071304495E+03  0.17281638450E+03 0.  0.
         24    2    3    3    0    0  0.73150782614E+02  0.10656104690E+02  0.55943109505E+02  0.11244788802E+03  0.63642018004E+02 0.  0.
         -6    2    1    2    0  502 -0.77200463672E+02 -0.65524540606E+02  0.28153286645E+02  0.20158569157E+03  0.17201978515E+03 0.  0.
        -24    2    5    5    0    0 -0.22583961205E+02 -0.11492296383E+02  0.74280103856E+02  0.11185153406E+03  0.79693937431E+02 0.  0.
          5    1    3    3  501    0  0.40496810585E+01  0.54868435916E+02 -0.68860022883E+02  0.88265156930E+02  0.47000000000E+01 0. -1.
        -11    1    4    4    0    0  0.12807615200E+02 -0.22185235420E+02  0.31594019984E+01  0.25810879465E+02  0.00000000000E+00 0.  1.
         12    1    4    4    0    0  0.60343167414E+02  0.32841340110E+02  0.52783707506E+02  0.86637008558E+02  0.00000000000E+00 0. -1.
         -5    1    5    5    0  502 -0.54616502467E+02 -0.54032244223E+02 -0.46126817211E+02  0.89734157507E+02  0.47000000000E+01 0.  1.
         11    1    6    6    0    0 -0.25004401552E+02 -0.29969637212E+02  0.82665562882E+02  0.91416598811E+02  0.00000000000E+00 0. -1.
        -12    1    6    6    0    0  0.24204403471E+01  0.18477340830E+02 -0.83854590261E+01  0.20434935250E+02  0.00000000000E+00 0.  1.
</event>
<event>
12    1  0.8313893E-002  0.2015787E+03  0.7818608E-02  0.1148849E+00
         21   -1    0    0  503  502  0.00000000000E+00  0.00000000000E+00  0.57279010567E+03  0.57279010567E+03  0.00000000000E+00 0. -1.
         21   -1    0    0  501  503 -0.00000000000E+00 -0.00000000000E+00 -0.15217754905E+03  0.15217754905E+03  0.00000000000E+00 0.  1.
          6    2    1    2  501    0 -0.33132192198E+01  0.10060310760E+03 -0.56219723854E+02  0.20727759387E+03  0.17225382692E+03 0.  0.
         24    2    3    3    0    0 -0.55053602053E+02  0.90097375403E+02 -0.77003158667E+01  0.13541897868E+03  0.84442695183E+02 0.  0.
         -6    2    1    2    0  502  0.33132192198E+01 -0.10060310760E+03  0.47683228048E+03  0.51769006085E+03  0.17464825427E+03 0.  0.
        -24    2    5    5    0    0 -0.24669317370E+02 -0.93429905721E+02  0.17748630515E+03  0.21691675731E+03  0.78827460846E+02 0.  0.
          5    1    3    3  501    0  0.51740382833E+02  0.10505732198E+02 -0.48519407988E+02  0.71858615185E+02  0.47000000000E+01 0. -1.
        -13    1    4    4    0    0 -0.24665407313E+02  0.60242004242E+02 -0.44723328372E+02  0.78978842063E+02  0.00000000000E+00 0.  1.
         14    1    4    4    0    0 -0.30388194740E+02  0.29855371161E+02  0.37023012506E+02  0.56440136620E+02  0.00000000000E+00 0. -1.
         -5    1    5    5    0  502  0.27982536590E+02 -0.71732018801E+01  0.29934597533E+03  0.30077330354E+03  0.47000000000E+01 0.  1.
         13    1    6    6    0    0  0.41868952993E+00 -0.87558890239E+02  0.16802145254E+03  0.18946752512E+03  0.00000000000E+00 0. -1.
        -14    1    6    6    0    0 -0.25088006900E+02 -0.58710154816E+01  0.94648526111E+01  0.27449232192E+02  0.00000000000E+00 0.  1.
</event>
<event>
12    1  0.8313893E-002  0.1742039E+03  0.7818608E-02  0.1173566E+00
         21   -1    0    0  503  502  0.00000000000E+00  0.00000000000E+00  0.12335589412E+03  0.12335589412E+03  0.00000000000E+00 0.  1.
         21   -1    0    0  501  503 -0.00000000000E+00 -0.00000000000E+00 -0.36405411520E+03  0.36405411520E+03  0.00000000000E+00 0.  1.
          6    2    1    2  501    0  0.18753291427E+02 -0.20557449250E+02 -0.25925975848E+03  0.31235018066E+03  0.17196720133E+03 0.  0.
         24    2    3    3    0    0 -0.47344716921E+02 -0.15682966126E+02 -0.91828210373E+02  0.13221656193E+03  0.81001983819E+02 0.  0.
         -6    2    1    2    0  502 -0.18753291427E+02  0.20557449250E+02  0.18561537403E+02  0.17505982867E+03  0.17183456661E+03 0.  0.
        -24    2    5    5    0    0  0.89660631527E+01  0.43439948613E+02 -0.45625790212E+02  0.10134365390E+03  0.78875877364E+02 0.  0.
          5    1    3    3  501    0  0.66098008349E+02 -0.48744831246E+01 -0.16743154811E+03  0.18013361873E+03  0.47000000000E+01 0. -1.
        -11    1    4    4    0    0  0.11267807446E+02 -0.33001035200E+01 -0.65903731833E+02  0.66941437372E+02  0.00000000000E+00 0.  1.
         12    1    4    4    0    0 -0.58612524368E+02 -0.12382862606E+02 -0.25924478540E+02  0.65275124562E+02  0.00000000000E+00 0. -1.
         -5    1    5    5    0  502 -0.27719354580E+02 -0.22882499362E+02  0.64187327615E+02  0.73716174763E+02  0.47000000000E+01 0.  1.
         13    1    6    6    0    0 -0.15378707235E+02  0.43112681682E+02  0.41208985640E+01  0.45958565720E+02  0.00000000000E+00 0. -1.
        -14    1    6    6    0    0  0.24344770387E+02  0.32726693037E+00 -0.49746688776E+02  0.55385088183E+02  0.00000000000E+00 0.  1.
</event>
<event>
12    1  0.8313893E-002  0.2151190E+03  0.7818608E-02  0.1137583E+00
         21   -1    0    0  503  502  0.00000000000E+00  0.00000000000E+00  0.10579725810E+03  0.10579725810E+03  0.00000000000E+00 0. -1.
         21   -1    0    0  501  503 -0.00000000000E+00 -0.00000000000E+00 -0.12318082801E+04  0.12318082801E+04  0.00000000000E+00 0. -1.
          6    2    1    2  501    0  0.12699772462E+03  0.13901869809E+02 -0.11001048515E+04  0.11209322843E+04  0.17302259286E+03 0.  0.
         24    2    3    3    0    0  0.12281081788E+03 -0.34329461950E+02 -0.98249671029E+03  0.99366266329E+03  0.76188540764E+02 0.  0.
         -6    2    1    2    0  502 -0.12699772462E+03 -0.13901869809E+02 -0.25906170559E+02  0.21667325396E+03  0.17307364116E+03 0.  0.
        -24    2    5    5    0    0 -0.12262658470E+03  0.19804526811E+02  0.30030750893E+02  0.15105117522E+03  0.80530199171E+02 0.  0.
          5    1    3    3  501    0  0.41869067388E+01  0.48231331759E+02 -0.11760814119E+03  0.12726962099E+03  0.47000000000E+01 0. -1.
        -13    1    4    4    0    0 -0.28762498679E+01 -0.21786245310E+02 -0.16766099494E+03  0.16909501034E+03  0.00000000000E+00 0.  1.
         14    1    4    4    0    0  0.12568706775E+03 -0.12543216640E+02 -0.81483571534E+03  0.82456765294E+03  0.00000000000E+00 0. -1.
         -5    1    5    5    0  502 -0.43711399241E+01 -0.33706396620E+02 -0.55936921452E+02  0.65622078745E+02  0.47000000000E+01 0.  1.
         13    1    6    6    0    0 -0.93873927027E+02 -0.64459824588E+01 -0.10705294026E+02  0.94701996734E+02  0.00000000000E+00 0. -1.
        -14    1    6    6    0    0 -0.28752657670E+02  0.26250509269E+02  0.40736044918E+02  0.56349178482E+02  0.00000000000E+00 0.  1.
</event>
<event>
12    1  0.8313893E-002  0.2233775E+03  0.7818608E-02  0.1132248E+00
         21   -1    0    0  501  502  0.00000000000E+00  0.00000000000E+00  0.13312090089E+04  0.13312090089E+04  0.00000000000E+00 0.  1.
         21   -1    0    0  502  503 -0.00000000000E+00 -0.00000000000E+00 -0.51366803898E+02  0.51366803898E+02  0.00000000000E+00 0.  1.
         -6    2    1    2    0  503 -0.11568816136E+03 -0.80526028172E+02  0.26583872934E+03  0.34425959610E+03  0.16726101637E+03 0.  0.
        -24    2    3    3    0    0 -0.80045204698E+02 -0.13350107738E+02  0.85429915620E+02  0.14842176851E+03  0.90251264333E+02 0.  0.
          6    2    1    2  501    0  0.11568816136E+03  0.80526028172E+02  0.10140034757E+04  0.10383162167E+04  0.17328971498E+03 0.  0.
         24    2    5    5    0    0 -0.46060926887E+01  0.11019741254E+02  0.33737471827E+03  0.34755547896E+03  0.82646594836E+02 0.  0.
          5    1    5    5  501    0  0.12029425405E+03  0.69506286919E+02  0.67662875742E+03  0.69076073777E+03  0.47000000000E+01 0. -1.
        -13    1    6    6    0    0 -0.15662424871E+02  0.15025683978E+02  0.33481841026E+03  0.33552116265E+03  0.00000000000E+00 0.  1.
         14    1    6    6    0    0  0.11056332182E+02 -0.40059427243E+01  0.25563080057E+01  0.12034316310E+02  0.00000000000E+00 0. -1.
         -5    1    3    3    0  503 -0.35642956659E+02 -0.67175920434E+02  0.18040881372E+03  0.19583782759E+03  0.47000000000E+01 0.  1.
         11    1    4    4    0    0 -0.56980210315E+01 -0.21780554959E+02  0.67951269030E+02  0.71583761991E+02  0.00000000000E+00 0. -1.
        -12    1    4    4    0    0 -0.74347183666E+02  0.84304472207E+01  0.17478646590E+02  0.76838006521E+02  0.00000000000E+00 0.  1.
</event>
<event>
12    1  0.8313893E-002  0.2452576E+03  0.7818608E-02  0.1116840E+00
         21   -1    0    0  503  502  0.00000000000E+00  0.00000000000E+00  0.15047897897E+04  0.15047897897E+04  0.00000000000E+00 0. -1.
         21   -1    0    0  501  503 -0.00000000000E+00 -0.00000000000E+00 -0.39683357205E+02  0.39683357205E+02  0.00000000000E+00 0.  1.
          6    2    1    2  501    0  0.15537861613E+03  0.79177459247E+02  0.68101076700E+03  0.72382800315E+03  0.17245210633E+03 0.  0.
         24    2    3    3    0    0  0.12774368056E+02  0.44327440488E+02  0.34212797185E+03  0.35448516212E+03  0.80498910426E+02 0.  0.
         -6    2    1    2    0  502 -0.15537861613E+03 -0.79177459247E+02  0.78409566548E+03  0.82064514373E+03  0.16805015594E+03 0.  0.
        -24    2    5    5    0    0 -0.13616596184E+03 -0.59362924643E+02  0.77193200335E+03  0.79011996490E+03  0.79658114227E+02 0.  0.
          5    1    3    3  501    0  0.14260424807E+03  0.34850018759E+02  0.33888279515E+03  0.36934284104E+03  0.47000000000E+01 0. -1.
        -11    1    4    4    0    0  0.75617703267E+01  0.15663760112E+02  0.80965061436E+01  0.19185597802E+02  0.00000000000E+00 0.  1.
         12    1    4    4    0    0  0.52125977298E+01  0.28663680376E+02  0.33403146570E+03  0.33529956431E+03  0.00000000000E+00 0. -1.
         -5    1    5    5    0  502 -0.19212654285E+02 -0.19814534603E+02  0.12163662132E+02  0.30525178832E+02  0.47000000000E+01 0.  1.
         13    1    6    6    0    0 -0.39947289985E+02 -0.56915316851E+02  0.39621529277E+03  0.40227067690E+03  0.00000000000E+00 0. -1.
        -14    1    6    6    0    0 -0.96218671859E+02 -0.24476077926E+01  0.37571671057E+03  0.38784928800E+03  0.00000000000E+00 0.  1.
</event>
<event>
12    1  0.8313893E-002  0.2255125E+03  0.7818608E-02  0.1129862E+00
         21   -1    0    0  501  502  0.00000000000E+00  0.00000000000E+00  0.29722612705E+03  0.29722612705E+03  0.00000000000E+00 0. -1.
         21   -1    0    0  502  503 -0.00000000000E+00 -0.00000000000E+00 -0.18544714409E+03  0.18544714409E+03  0.00000000000E+00 0.  1.
         -6    2    1    2    0  503 -0.69464980589E+02  0.12743769421E+03  0.12325309657E+03  0.25699653781E+03  0.17259821898E+03 0.  0.
        -24    2    3    3    0    0 -0.90820828370E+01  0.32873873459E+02  0.11547751441E+03  0.14443117807E+03  0.79762980632E+02 0.  0.
          6    2    1    2  501    0  0.69464980589E+02 -0.12743769421E+03 -0.11474113613E+02  0.22567673333E+03  0.17243138709E+03 0.  0.
         24    2    5    5    0    0 -0.67109406396E+00 -0.31133948898E+02 -0.49717756608E+02  0.10046432757E+03  0.81556438437E+02 0.  0.
          5    1    5    5  501    0  0.70136074653E+02 -0.96303745309E+02  0.38243642995E+02  0.12521240577E+03  0.47000000000E+01 0. -1.
        -13    1    6    6    0    0  0.88487837783E+01  0.21362717858E+02  0.54093317099E+01  0.23747158949E+02  0.00000000000E+00 0.  1.
         14    1    6    6    0    0 -0.95198778423E+01 -0.52496666755E+02 -0.55127088318E+02  0.76717168619E+02  0.00000000000E+00 0. -1.
         -5    1    3    3    0  503 -0.60382897752E+02  0.94563820747E+02  0.77755821672E+01  0.11256535974E+03  0.47000000000E+01 0.  1.
         13    1    4    4    0    0 -0.41335077022E+02  0.27913549703E+02  0.46802797642E+02  0.68397782980E+02  0.00000000000E+00 0. -1.
        -14    1    4    4    0    0  0.32252994185E+02  0.49603237560E+01  0.68674716764E+02  0.76033395086E+02  0.00000000000E+00 0.  1.
</event>
<event>
12    1  0.8313893E-002  0.2089981E+03  0.7818608E-02  0.1142557E+00
         21   -1    0    0  503  502  0.00000000000E+00  0.00000000000E+00  0.98058497418E+03  0.98058497418E+03  0.00000000000E+00 0. -1.
         21   -1    0    0  501  503 -0.00000000000E+00 -0.00000000000E+00 -0.91123076610E+02  0.91123076610E+02  0.00000000000E+00 0. -1.
          6    2    1    2  501    0 -0.28808131362E+02 -0.11488279281E+03  0.61273975544E+02  0.21779514151E+03  0.17219831320E+03 0.  0.
         24    2    3    3    0    0 -0.50695697340E+02 -0.94540075994E+02  0.10072584147E+03  0.16808164840E+03  0.81227247221E+02 0.  0.
         -6    2    1    2    0  502  0.28808131362E+02  0.11488279281E+03  0.82818792203E+03  0.85391290928E+03  0.17100894109E+03 0.  0.
        -24    2    5    5    0    0 -0.27794340943E+02  0.88002583044E+02  0.70538934454E+03  0.71597101506E+03  0.80767487333E+02 0.  0.
          5    1    3    3  501    0  0.21887565978E+02 -0.20342716819E+02 -0.39451865925E+02  0.49713493108E+02  0.47000000000E+01 0. -1.
        -11    1    4    4    0    0  0.20610913645E+02 -0.35413563512E+02  0.40377215627E+02  0.57526079161E+02  0.00000000000E+00 0.  1.
         12    1    4    4    0    0 -0.71306610985E+02 -0.59126512482E+02  0.60348625842E+02  0.11055556924E+03  0.00000000000E+00 0. -1.
         -5    1    5    5    0  502  0.56602472305E+02  0.26880209768E+02  0.12279857749E+03  0.13794189422E+03  0.47000000000E+01 0.  1.
         13    1    6    6    0    0  0.21211901894E+00  0.11866330491E+02  0.39428630627E+03  0.39446488577E+03  0.00000000000E+00 0. -1.
        -14    1    6    6    0    0 -0.28006459962E+02  0.76136252553E+02  0.31110303826E+03  0.32150612929E+03  0.00000000000E+00 0.  1.
</event>
<event>
12    1  0.8313893E-002  0.2035574E+03  0.7818608E-02  0.1147067E+00
         21   -1    0    0  503  502  0.00000000000E+00  0.00000000000E+00  0.14458027239E+03  0.14458027239E+03  0.00000000000E+00 0. -1.
         21   -1    0    0  501  503 -0.00000000000E+00 -0.00000000000E+00 -0.43290656275E+03  0.43290656275E+03  0.00000000000E+00 0.  1.
          6    2    1    2  501    0 -0.84583137804E+02 -0.63251694175E+02 -0.31350610892E+03  0.37379368032E+03  0.17401307738E+03 0.  0.
         24    2    3    3    0    0 -0.11260246345E+03 -0.44744614728E+01 -0.21762443462E+03  0.25779699433E+03  0.79997250969E+02 0.  0.
         -6    2    1    2    0  502  0.84583137804E+02  0.63251694175E+02  0.25179818560E+02  0.20369315482E+03  0.17234208436E+03 0.  0.
        -24    2    5    5    0    0  0.30961473250E+02  0.10361340153E+03  0.14736521325E+02  0.13560862803E+03  0.80487173722E+02 0.  0.
          5    1    3    3  501    0  0.28019325641E+02 -0.58777232703E+02 -0.95881674300E+02  0.11599668599E+03  0.47000000000E+01 0. -1.
        -13    1    4    4    0    0 -0.11560254324E+03 -0.21488259641E+02 -0.16650557637E+03  0.20383768118E+03  0.00000000000E+00 0.  1.
         14    1    4    4    0    0  0.30000797975E+01  0.17013798168E+02 -0.51118858247E+02  0.53959313147E+02  0.00000000000E+00 0. -1.
         -5    1    5    5    0  502  0.53621664554E+02 -0.40361707356E+02  0.10443297235E+02  0.68084526784E+02  0.47000000000E+01 0.  1.
         11    1    6    6    0    0 -0.34693235576E+01  0.75488018241E+02 -0.21152681635E+02  0.78472371216E+02  0.00000000000E+00 0. -1.
        -12    1    6    6    0    0  0.34430796808E+02  0.28125383291E+02  0.35889202960E+02  0.57136256818E+02  0.00000000000E+00 0.  1.
</event>
<event>
12    1  0.8313893E-002  0.2340609E+03  0.7818608E-02  0.1123954E+00
         21   -1    0    0  501  502  0.00000000000E+00  0.00000000000E+00  0.13306789659E+04  0.13306789659E+04  0.00000000000E+00 0. -1.
         21   -1    0    0  502  503 -0.00000000000E+00 -0.00000000000E+00 -0.42385898391E+02  0.42385898391E+02  0.00000000000E+00 0.  1.
         -6    2    1    2    0  503  0.11328487576E+03  0.11177969258E+03  0.76596095616E+03  0.80068793393E+03  0.17051926116E+03 0.  0.
        -24    2    3    3    0    0  0.80562678186E-01  0.50070427242E+02  0.43390999631E+03  0.44445320813E+03  0.82180990153E+02 0.  0.
          6    2    1    2  501    0 -0.11328487576E+03 -0.11177969258E+03  0.52233211131E+03  0.57237693033E+03  0.17162853234E+03 0.  0.
         24    2    5    5    0    0 -0.13113725118E+02 -0.59792232751E+02  0.13349421803E+03  0.16746465260E+03  0.80477467276E+02 0.  0.
          5    1    5    5  501    0 -0.10017115064E+03 -0.51987459833E+02  0.38883789329E+03  0.40491227773E+03  0.47000000000E+01 0. -1.
        -11    1    6    6    0    0 -0.15076651126E+02  0.16162366661E+02  0.15031820647E+02  0.26729817381E+02  0.00000000000E+00 0.  1.
         12    1    6    6    0    0  0.19629260085E+01 -0.75954599412E+02  0.11846239738E+03  0.14073483522E+03  0.00000000000E+00 0. -1.
         -5    1    3    3    0  503  0.11320431308E+03  0.61709265343E+02  0.33205095985E+03  0.35623472580E+03  0.47000000000E+01 0.  1.
         13    1    4    4    0    0  0.26808102558E+02  0.24298702471E+00  0.53263080917E+02  0.59629599984E+02  0.00000000000E+00 0. -1.
        -14    1    4    4    0    0 -0.26727539879E+02  0.49827440217E+02  0.38064691540E+03  0.38482360815E+03  0.00000000000E+00 0.  1.
</event>
<event>
12    1  0.8313893E-002  0.2091272E+03  0.7818608E-02  0.1143630E+00
         21   -1    0    0  503  502  0.00000000000E+00  0.00000000000E+00  0.12551092137E+03  0.12551092137E+03  0.00000000000E+00 0.  1.
         21   -1    0    0  501  503 -0.00000000000E+00 -0.00000000000E+00 -0.33983899719E+03  0.33983899719E+03  0.00000000000E+00 0. -1.
          6    2    1    2  501    0 -0.76745505724E+02 -0.74171459707E+02 -0.12564899789E+03  0.23819764191E+03  0.17192779839E+03 0.  0.
         24    2    3    3    0    0 -0.22146243285E+01 -0.80166370852E+02 -0.92669554930E+02  0.15634090793E+03  0.97073588085E+02 0.  0.
         -6    2    1    2    0  502  0.76745505724E+02  0.74171459707E+02 -0.88679077934E+02  0.22715227664E+03  0.17984131849E+03 0.  0.
        -24    2    5    5    0    0 -0.20839178160E+02  0.14364551967E+02 -0.21503010872E+01  0.83594079506E+02  0.79641287246E+02 0.  0.
          5    1    3    3  501    0 -0.74530881396E+02  0.59949111450E+01 -0.32979442956E+02  0.81856733987E+02  0.47000000000E+01 0. -1.
        -13    1    4    4    0    0  0.32899557889E+02 -0.24046846226E+01 -0.52576744860E+02  0.62068329424E+02  0.00000000000E+00 0.  1.
         14    1    4    4    0    0 -0.35114182218E+02 -0.77761686229E+02 -0.40092810070E+02  0.94272578502E+02  0.00000000000E+00 0. -1.
         -5    1    5    5    0  502  0.97584683885E+02  0.59806907740E+02 -0.86528776847E+02  0.14355819714E+03  0.47000000000E+01 0.  1.
         11    1    6    6    0    0 -0.13851536771E+02 -0.32947622173E+02 -0.84595970301E+00  0.35750895452E+02  0.00000000000E+00 0. -1.
        -12    1    6    6    0    0 -0.69876413894E+01  0.47312174140E+02 -0.13043413842E+01  0.47843184055E+02  0.00000000000E+00 0.  1.
</event>
<event>
12    1  0.8313893E-002  0.2497271E+03  0.7818608E-02  0.1114664E+00
         21   -1    0    0  501  502  0.00000000000E+00  0.00000000000E+00  0.56203684385E+03  0.56203684385E+03  0.00000000000E+00 0. -1.
         21   -1    0    0  502  503 -0.00000000000E+00 -0.00000000000E+00 -0.14913251248E+03  0.14913251248E+03  0.00000000000E+00 0. -1.
         -6    2    1    2    0  503  0.45059210683E+02  0.16319233585E+03  0.21290263294E+02  0.25063301739E+03  0.18357985496E+03 0.  0.
        -24    2    3    3    0    0  0.99783601322E+02  0.14097662961E+03  0.10661662916E+02  0.19043871799E+03  0.79511364365E+02 0.  0.
          6    2    1    2  501    0 -0.45059210683E+02 -0.16319233585E+03  0.39161406807E+03  0.46053633894E+03  0.17340723810E+03 0.  0.
         24    2    5    5    0    0 -0.67394493486E+02 -0.32850033581E+02  0.19146218231E+03  0.22059707997E+03  0.79900951059E+02 0.  0.
          5    1    5    5  501    0  0.22335282802E+02 -0.13034230227E+03  0.20015188576E+03  0.23993925897E+03  0.47000000000E+01 0. -1.
        -13    1    6    6    0    0 -0.33771032782E+02  0.11334774188E+02  0.21071060190E+02  0.41387792145E+02  0.00000000000E+00 0.  1.
         14    1    6    6    0    0 -0.33623460703E+02 -0.44184807769E+02  0.17039112212E+03  0.17920928783E+03  0.00000000000E+00 0. -1.
         -5    1    3    3    0  503 -0.54724390638E+02  0.22215706240E+02  0.10628600378E+02  0.60194299402E+02  0.47000000000E+01 0.  1.
         11    1    4    4    0    0  0.22648018374E+02  0.75114677236E+02 -0.25904017347E+02  0.82620612363E+02  0.00000000000E+00 0. -1.
        -12    1    4    4    0    0  0.77135582948E+02  0.65861952378E+02  0.36565680263E+02  0.10781810563E+03  0.00000000000E+00 0.  1.
</event>
<event>
12    1  0.8313893E-002  0.1826700E+03  0.7818608E-02  0.1166690E+00
         21   -1    0    0  503  502  0.00000000000E+00  0.00000000000E+00  0.37611045927E+02  0.37611045927E+02  0.00000000000E+00 0.  1.
         21   -1    0    0  501  503 -0.00000000000E+00 -0.00000000000E+00 -0.11683417581E+04  0.11683417581E+04  0.00000000000E+00 0.  1.
          6    2    1    2  501    0  0.38453213265E+02 -0.38596639016E+02 -0.24789155563E+03  0.30441339258E+03  0.16807421004E+03 0.  0.
         24    2    3    3    0    0  0.43260194343E+02 -0.74329546111E+02 -0.24049127640E+03  0.26730811197E+03  0.78874881055E+02 0.  0.
         -6    2    1    2    0  502 -0.38453213265E+02  0.38596639016E+02 -0.88283915655E+03  0.90153941145E+03  0.17435591157E+03 0.  0.
        -24    2    5    5    0    0 -0.50123157912E+02  0.44007731982E+02 -0.88134884592E+03  0.88776339748E+03  0.83060521671E+02 0.  0.
          5    1    3    3  501    0 -0.48069810778E+01  0.35732907095E+02 -0.74002792230E+01  0.37105280610E+02  0.47000000000E+01 0. -1.
        -11    1    4    4    0    0  0.34752832272E+02 -0.29277374352E+02 -0.36664482949E+02  0.58388426163E+02  0.00000000000E+00 0.  1.
         12    1    4    4    0    0  0.85073620706E+01 -0.45052171759E+02 -0.20382679345E+03  0.20891968581E+03  0.00000000000E+00 0. -1.
         -5    1    5    5    0  502  0.11669944648E+02 -0.54110929652E+01 -0.14903106302E+01  0.13776013971E+02  0.47000000000E+01 0.  1.
         13    1    6    6    0    0 -0.19168289143E+02 -0.78753324411E+01 -0.58251763538E+03  0.58288612927E+03  0.00000000000E+00 0. -1.
        -14    1    6    6    0    0 -0.30954868769E+02  0.51883064423E+02 -0.29883121055E+03  0.30487726821E+03  0.00000000000E+00 0.  1.
</event>
<event>
12    1  0.8313893E-002  0.2314131E+03  0.7818608E-02  0.1126447E+00
         21   -1    0    0  503  502  0.00000000000E+00  0.00000000000E+00  0.50683970174E+02  0.50683970174E+02  0.00000000000E+00 0. -1.
         21   -1    0    0  501  503 -0.00000000000E+00 -0.00000000000E+00 -0.10371821713E+04  0.10371821713E+04  0.00000000000E+00 0. -1.
          6    2    1    2  501    0 -0.24713889062E+02  0.14584975564E+03 -0.47996574749E+03  0.53284063978E+03  0.17795814423E+03 0.  0.
         24    2    3    3    0    0 -0.11786889148E+02  0.10259225048E+03 -0.14718137387E+03  0.19697482073E+03  0.80452610715E+02 0.  0.
         -6    2    1    2    0  502  0.24713889062E+02 -0.14584975564E+03 -0.50653245364E+03  0.55502550170E+03  0.17203271031E+03 0.  0.
        -24    2    5    5    0    0  0.38199266621E+02 -0.70195998770E+02 -0.43609297977E+03  0.45067438376E+03  0.80892836280E+02 0.  0.
          5    1    3    3  501    0 -0.12926999914E+02  0.43257505157E+02 -0.33278437362E+03  0.33586581905E+03  0.47000000000E+01 0. -1.
        -11    1    4    4    0    0  0.16778165739E+02  0.13256869633E+02 -0.76777324164E+02  0.79699491490E+02  0.00000000000E+00 0.  1.
         12    1    4    4    0    0 -0.28565054886E+02  0.89335380850E+02 -0.70404049705E+02  0.11727532924E+03  0.00000000000E+00 0. -1.
         -5    1    5    5    0  502 -0.13485377560E+02 -0.75653756870E+02 -0.70439473872E+02  0.10435111794E+03  0.47000000000E+01 0.  1.
         11    1    6    6    0    0  0.28843392636E+01 -0.70307321851E+02 -0.35963816218E+03  0.36645742811E+03  0.00000000000E+00 0. -1.
        -12    1    6    6    0    0  0.35314927358E+02  0.11132308058E+00 -0.76454817588E+02  0.84216955653E+02  0.00000000000E+00 0.  1.
</event>
<event>
12    1  0.8313893E-002  0.1748084E+03  0.7818608E-02  0.1173243E+00
         21   -1    0    0  503  502  0.00000000000E+00  0.00000000000E+00  0.32614753380E+03  0.32614753380E+03  0.00000000000E+00 0.  1.
         21   -1    0    0  501  503 -0.00000000000E+00 -0.00000000000E+00 -0.22267539734E+03  0.22267539734E+03  0.00000000000E+00 0.  1.
          6    2    1    2  501    0 -0.52959335568E+01  0.28696426123E+02 -0.15757949916E+03  0.23534927681E+03  0.17235559682E+03 0.  0.
         24    2    3    3    0    0 -0.35153854477E+02  0.27256711140E+02 -0.18382281092E+02  0.92900957272E+02  0.79460416669E+02 0.  0.
         -6    2    1    2    0  502  0.52959335568E+01 -0.28696426123E+02  0.26105163561E+03  0.31347365433E+03  0.17107379611E+03 0.  0.
        -24    2    5    5    0    0 -0.34653429557E+02  0.38622721258E+02  0.14245692531E+03  0.17129554585E+03  0.79722102852E+02 0.  0.
          5    1    3    3  501    0  0.29857920920E+02  0.14397149827E+01 -0.13919721807E+03  0.14244831954E+03  0.47000000000E+01 0. -1.
        -11    1    4    4    0    0  0.16920108888E+02  0.20492988495E+02  0.15155751640E+02  0.30593291258E+02  0.00000000000E+00 0.  1.
         12    1    4    4    0    0 -0.52073963365E+02  0.67637226447E+01 -0.33538032732E+02  0.62307666014E+02  0.00000000000E+00 0. -1.
         -5    1    5    5    0  502  0.39949363114E+02 -0.67319147381E+02  0.11859471031E+03  0.14217810848E+03  0.47000000000E+01 0.  1.
         13    1    6    6    0    0  0.10258016950E+02  0.38703347664E+02  0.10645320105E+03  0.11373416393E+03  0.00000000000E+00 0. -1.
        -14    1    6    6    0    0 -0.44911446507E+02 -0.80626405682E-01  0.36003724263E+02  0.57561381922E+02  0.00000000000E+00 0.  1.
</event>
<event>
12    1  0.8313893E-002  0.1753402E+03  0.7818608E-02  0.1172855E+00
         21   -1    0    0  503  502  0.00000000000E+00  0.00000000000E+00  0.92207400428E+02  0.92207400428E+02  0.00000000000E+00 0. -1.
         21   -1    0    0  501  503 -0.00000000000E+00 -0.00000000000E+00 -0.37047663421E+03  0.37047663421E+03  0.00000000000E+00 0. -1.
          6    2    1    2  501    0  0.13608259146E+02 -0.19682777978E+02 -0.21632545974E+03  0.27846163304E+03  0.17369968359E+03 0.  0.
         24    2    3    3    0    0  0.31859466741E+02 -0.70572041520E+02 -0.18480876795E+03  0.21570642940E+03  0.79872049610E+02 0.  0.
         -6    2    1    2    0  502 -0.13608259146E+02  0.19682777978E+02 -0.61943774039E+02  0.18422240159E+03  0.17183790513E+03 0.  0.
        -24    2    5    5    0    0 -0.66420356329E+02 -0.14004691530E+02 -0.59136826335E+02  0.12134210129E+03  0.81356906264E+02 0.  0.
          5    1    3    3  501    0 -0.18251207595E+02  0.50889263541E+02 -0.31516691791E+02  0.62755203640E+02  0.47000000000E+01 0. -1.
        -13    1    4    4    0    0  0.25627378012E+02 -0.46001728070E+02 -0.33772878531E+02  0.62558203407E+02  0.00000000000E+00 0.  1.
         14    1    4    4    0    0  0.62320887288E+01 -0.24570313449E+02 -0.15103588942E+03  0.15314822599E+03  0.00000000000E+00 0. -1.
         -5    1    5    5    0  502  0.52812097183E+02  0.33687469508E+02 -0.28069477040E+01  0.62880300303E+02  0.47000000000E+01 0.  1.
         13    1    6    6    0    0 -0.13201204759E+02  0.31942511978E+01  0.20158314650E+02  0.24307050362E+02  0.00000000000E+00 0. -1.
        -14    1    6    6    0    0 -0.53219151571E+02 -0.17198942727E+02 -0.79295140985E+02  0.97035050928E+02  0.00000000000E+00 0.  1.
</event>
<event>
12    1  0.8313893E-002  0.2525855E+03  0.7818608E-02  0.1111817E+00
         21   -1    0    0  503  502  0.00000000000E+00  0.00000000000E+00  0.33449846920E+03  0.33449846920E+03  0.00000000000E+00 0.  1.
         21   -1    0    0  501  503 -0.00000000000E+00 -0.00000000000E+00 -0.20839348638E+03  0.20839348638E+03  0.00000000000E+00 0. -1.
          6    2    1    2  501    0  0.15033957261E+03 -0.10840932743E+03 -0.17514529711E+02  0.25233039110E+03  0.17032116179E+03 0.  0.
         24    2    3    3    0    0  0.12954817377E+03 -0.54222566019E+02 -0.67269670214E+02  0.17573958627E+03  0.81463965395E+02 0.  0.
         -6    2    1    2    0  502 -0.15033957261E+03  0.10840932743E+03  0.14361951253E+03  0.29056156448E+03  0.17159513108E+03 0.  0.
        -24    2    5    5    0    0 -0.93574723672E+02 -0.47546331617E+01  0.89967064757E+02  0.15297884317E+03  0.80806053424E+02 0.  0.
          5    1    3    3  501    0  0.20791398838E+02 -0.54186761412E+02  0.49755140504E+02  0.76590804830E+02  0.47000000000E+01 0. -1.
        -13    1    4    4    0    0  0.22649039826E+02  0.54129532259E+01 -0.45914647545E+02  0.51482365202E+02  0.00000000000E+00 0.  1.
         14    1    4    4    0    0  0.10689913394E+03 -0.59635519245E+02 -0.21355022670E+02  0.12425722106E+03  0.00000000000E+00 0. -1.
         -5    1    5    5    0  502 -0.56764848935E+02  0.11316396059E+03  0.53652447773E+02  0.13758272131E+03  0.47000000000E+01 0.  1.
         13    1    6    6    0    0  0.56112219798E+01  0.20107684911E+01 -0.10223568943E+02  0.11834287641E+02  0.00000000000E+00 0. -1.
        -14    1    6    6    0    0 -0.99185945652E+02 -0.67654016528E+01  0.10019063370E+03  0.14114455553E+03  0.00000000000E+00 0.  1.
</event>
<event>
12    1  0.8313893E-002  0.1881906E+03  0.7818608E-02  0.1160378E+00
         21   -1    0    0  503  502  0.00000000000E+00  0.00000000000E+00  0.69820068352E+03  0.69820068352E+03  0.00000000000E+00 0. -1.
         21   -1    0    0  501  503 -0.00000000000E+00 -0.00000000000E+00 -0.98313721620E+02  0.98313721620E+02  0.00000000000E+00 0. -1.
          6    2    1    2  501    0 -0.38831505976E+02  0.64149267043E+02  0.22413702265E+02  0.18952060802E+03  0.17260554017E+03 0.  0.
         24    2    3    3    0    0  0.25171961779E+02  0.60905595449E+02  0.55035744333E+02  0.11745638029E+03  0.80149540859E+02 0.  0.
         -6    2    1    2    0  502  0.38831505976E+02 -0.64149267043E+02  0.57747325963E+03  0.60699379711E+03  0.17129824817E+03 0.  0.
        -24    2    5    5    0    0  0.50583600955E+01 -0.59256950378E+02  0.55924537529E+03  0.56802065363E+03  0.79718881078E+02 0.  0.
          5    1    3    3  501    0 -0.64003467755E+02  0.32436715935E+01 -0.32622042068E+02  0.72064227733E+02  0.47000000000E+01 0. -1.
        -13    1    4    4    0    0  0.46710022628E+02  0.11182074279E+02  0.35994061708E+02  0.60020308874E+02  0.00000000000E+00 0.  1.
         14    1    4    4    0    0 -0.21538060849E+02  0.49723521170E+02  0.19041682625E+02  0.57436071417E+02  0.00000000000E+00 0. -1.
         -5    1    5    5    0  502  0.33773145880E+02 -0.48923166648E+01  0.18227884345E+02  0.38973143480E+02  0.47000000000E+01 0.  1.
         13    1    6    6    0    0 -0.21933353856E+02 -0.47336229398E+02  0.17415345804E+03  0.18179993832E+03  0.00000000000E+00 0. -1.
        -14    1    6    6    0    0  0.26991713952E+02 -0.11920720979E+02  0.38509191724E+03  0.38622071531E+03  0.00000000000E+00 0.  1.
</event>
<event>
12    1  0.8313893E-002  0.2512916E+03  0.7818608E-02  0.1112577E+00
         21   -1    0    0  501  502  0.00000000000E+00  0.00000000000E+00  0.38949185403E+03  0.38949185403E+03  0.00000000000E+00 0. -1.
         21   -1    0    0  502  503 -0.00000000000E+00 -0.00000000000E+00 -0.28446693961E+03  0.28446693961E+03  0.00000000000E+00 0. -1.
         -6    2    1    2    0  503 -0.17794289057E+03 -0.43089648255E+02 -0.16876261061E+03  0.30270163154E+03  0.17212515477E+03 0.  0.
        -24    2    3    3    0    0 -0.60628827900E+02 -0.70282783506E+02 -0.12327712416E+03  0.17388751980E+03  0.80150457090E+02 0.  0.
          6    2    1    2  501    0  0.17794289057E+03  0.43089648255E+02  0.27378752503E+03  0.37125716210E+03  0.17132390801E+03 0.  0.
         24    2    5    5    0    0  0.36279466613E+02  0.30644092156E+02  0.49831694564E+02  0.10592393472E+03  0.80507279676E+02 0.  0.
          5    1    5    5  501    0  0.14166342396E+03  0.12445556099E+02  0.22395583047E+03  0.26533322738E+03  0.47000000000E+01 0. -1.
        -11    1    6    6    0    0  0.25398975562E+01 -0.26572120387E+02  0.10198751234E+02  0.28575219827E+02  0.00000000000E+00 0.  1.
         12    1    6    6    0    0  0.33739569057E+02  0.57216212543E+02  0.39632943331E+02  0.77348714889E+02  0.00000000000E+00 0. -1.
         -5    1    3    3    0  503 -0.11731406267E+03  0.27193135251E+02 -0.45485486451E+02  0.12881411174E+03  0.47000000000E+01 0.  1.
         13    1    4    4    0    0 -0.78376587814E+02 -0.57796993507E+02 -0.82225632097E+02  0.12745366432E+03  0.00000000000E+00 0. -1.
        -14    1    4    4    0    0  0.17747759915E+02 -0.12485790000E+02 -0.41051492065E+02  0.46433855479E+02  0.00000000000E+00 0.  1.
</event>
<event>
12    1  0.8313893E-002  0.2863026E+03  0.7818608E-02  0.1092389E+00
         21   -1    0    0  501  502  0.00000000000E+00  0.00000000000E+00  0.18561341817E+03  0.18561341817E+03  0.00000000000E+00 0. -1.
         21   -1    0    0  502  503 -0.00000000000E+00 -0.00000000000E+00 -0.45572333664E+03  0.45572333664E+03  0.00000000000E+00 0.  1.
         -6    2    1    2    0  503 -0.21364319835E+03  0.80664291607E+02 -0.19344010840E+03  0.34494610661E+03  0.17151850276E+03 0.  0.
        -24    2    3    3    0    0 -0.72915774047E+02  0.40572588520E+02 -0.17197215670E+02  0.11582779690E+03  0.78469670984E+02 0.  0.
          6    2    1    2  501    0  0.21364319835E+03 -0.80664291607E+02 -0.76669810065E+02  0.29639064820E+03  0.17268182424E+03 0.  0.
         24    2    5    5    0    0  0.67702446372E+02 -0.91126742448E+02 -0.23656292155E+02  0.14069643172E+03  0.79675349420E+02 0.  0.
          5    1    5    5  501    0  0.14594075197E+03  0.10462450841E+02 -0.53013517910E+02  0.15569421648E+03  0.47000000000E+01 0. -1.
        -13    1    6    6    0    0  0.25262128966E+02 -0.63182581249E+02 -0.49058806353E+02  0.83886710592E+02  0.00000000000E+00 0.  1.
         14    1    6    6    0    0  0.42440317406E+02 -0.27944161199E+02  0.25402514198E+02  0.56809721124E+02  0.00000000000E+00 0. -1.
         -5    1    3    3    0  503 -0.14072742430E+03  0.40091703087E+02 -0.17624289273E+03  0.22911830971E+03  0.47000000000E+01 0.  1.
         11    1    4    4    0    0 -0.42956031363E+02 -0.58240988643E+01  0.21503085797E+02  0.48389290724E+02  0.00000000000E+00 0. -1.
        -12    1    4    4    0    0 -0.29959742685E+02  0.46396687384E+02 -0.38700301467E+02  0.67438506179E+02  0.00000000000E+00 0.  1.
</event>
<event>
12    1  0.8313893E-002  0.1926396E+03  0.7818608E-02  0.1157306E+00
         21   -1    0    0  503  502  0.00000000000E+00  0.00000000000E+00  0.12186509183E+04  0.12186509183E+04  0.00000000000E+00 0.  1.
         21   -1    0    0  501  503 -0.00000000000E+00 -0.00000000000E+00 -0.35160575914E+02  0.35160575914E+02  0.00000000000E+00 0. -1.
          6    2    1    2  501    0 -0.80590088947E+02  0.78746892004E-01  0.33568770867E+03  0.38439828304E+03  0.16905926064E+03 0.  0.
         24    2    3    3    0    0 -0.65579870188E+02  0.52397955387E+02  0.13740252689E+03  0.17872448898E+03  0.77567541307E+02 0.  0.
         -6    2    1    2    0  502  0.80590088947E+02 -0.78746892004E-01  0.84780263372E+03  0.86941321118E+03  0.17497216180E+03 0.  0.
        -24    2    5    5    0    0  0.51573995570E+02  0.84886958812E+01  0.20908861201E+03  0.22996577294E+03  0.80213926939E+02 0.  0.
          5    1    3    3  501    0 -0.15010218759E+02 -0.52319208495E+02  0.19828518178E+03  0.20567379405E+03  0.47000000000E+01 0. -1.
        -11    1    4    4    0    0 -0.12077236088E+02 -0.15892529217E+02  0.57182420296E+02  0.60566172963E+02  0.00000000000E+00 0.  1.
         12    1    4    4    0    0 -0.53502634100E+02  0.68290484604E+02  0.80220106594E+02  0.11815831602E+03  0.00000000000E+00 0. -1.
         -5    1    5    5    0  502  0.29016093377E+02 -0.85674427732E+01  0.63871402171E+03  0.63944743824E+03  0.47000000000E+01 0.  1.
         11    1    6    6    0    0 -0.18497499319E+02  0.15957519209E+02  0.68058629045E+02  0.72310282034E+02  0.00000000000E+00 0. -1.
        -12    1    6    6    0    0  0.70071494888E+02 -0.74688233278E+01  0.14102998296E+03  0.15765549091E+03  0.00000000000E+00 0.  1.
</event>
<event>
12    1  0.8313893E-002  0.2328004E+03  0.7818608E-02  0.1126478E+00
         21   -1    0    0  503  502  0.00000000000E+00  0.00000000000E+00  0.52376119620E+03  0.52376119620E+03  0.00000000000E+00 0. -1.
         21   -1    0    0  501  503 -0.00000000000E+00 -0.00000000000E+00 -0.11425094202E+03  0.11425094202E+03  0.00000000000E+00 0. -1.
          6    2    1    2  501    0  0.93433842765E+02 -0.10529610709E+03  0.84400771770E+02  0.23814689714E+03  0.17254941669E+03 0.  0.
         24    2    3    3    0    0  0.35945664747E+02 -0.80533127135E+01  0.91078765194E+02  0.12488729593E+03  0.77100898540E+02 0.  0.
         -6    2    1    2    0  502 -0.93433842765E+02  0.10529610709E+03  0.32510948241E+03  0.39986524108E+03  0.18541543173E+03 0.  0.
        -24    2    5    5    0    0  0.16304412832E+02  0.71322158318E+02  0.10405943072E+03  0.15070278545E+03  0.80810149595E+02 0.  0.
          5    1    3    3  501    0  0.57488178018E+02 -0.97242794380E+02 -0.66779934233E+01  0.11325960121E+03  0.47000000000E+01 0. -1.
        -11    1    4    4    0    0  0.40903285890E+02 -0.10071739772E+02  0.10329253010E+03  0.11155207534E+03  0.00000000000E+00 0.  1.
         12    1    4    4    0    0 -0.49576211428E+01  0.20184270588E+01 -0.12213764901E+02  0.13335220593E+02  0.00000000000E+00 0. -1.
         -5    1    5    5    0  502 -0.10973825560E+03  0.33973948775E+02  0.22105005170E+03  0.24916245562E+03  0.47000000000E+01 0.  1.
         13    1    6    6    0    0 -0.11381311259E+02  0.59261019261E+02  0.23656032470E+02  0.64815202862E+02  0.00000000000E+00 0. -1.
        -14    1    6    6    0    0  0.27685724091E+02  0.12061139056E+02  0.80403398246E+02  0.85887582591E+02  0.00000000000E+00 0.  1.
</event>
<event>
12    1  0.8313893E-002  0.2189285E+03  0.7818608E-02  0.1134880E+00
         21   -1    0    0  503  502  0.00000000000E+00  0.00000000000E+00  0.13609785071E+03  0.13609785071E+03  0.00000000000E+00 0.  1.
         21   -1    0    0  501  503 -0.00000000000E+00 -0.00000000000E+00 -0.17434525912E+04  0.17434525912E+04  0.00000000000E+00 0. -1.
          6    2    1    2  501    0 -0.81150157324E+02  0.10783391494E+03 -0.16433074475E+04  0.16576895258E+04  0.17106050265E+03 0.  0.
         24    2    3    3    0    0 -0.45099222347E+01  0.11504235582E+03 -0.10100600524E+04  0.10197631659E+04  0.80252862651E+02 0.  0.
         -6    2    1    2    0  502  0.81150157324E+02 -0.10783391494E+03  0.35952707035E+02  0.22186091612E+03  0.17238378030E+03 0.  0.
        -24    2    5    5    0    0  0.11081666100E+03 -0.38389937662E+02  0.10378745401E+02  0.14199424638E+03  0.79375865224E+02 0.  0.
          5    1    3    3  501    0 -0.76640235089E+02 -0.72084408767E+01 -0.63324739515E+03  0.63792635995E+03  0.47000000000E+01 0. -1.
        -11    1    4    4    0    0  0.25634027522E+02  0.38828673573E+02 -0.18983508460E+03  0.19545364822E+03  0.00000000000E+00 0.  1.
         12    1    4    4    0    0 -0.30143949756E+02  0.76213682244E+02 -0.82022496780E+03  0.82430951764E+03  0.00000000000E+00 0. -1.
         -5    1    5    5    0  502 -0.29666503679E+02 -0.69443977279E+02  0.25573961634E+02  0.79866669734E+02  0.47000000000E+01 0.  1.
         11    1    6    6    0    0  0.38099806429E+02 -0.10043768913E+02  0.42177557581E+02  0.57718445123E+02  0.00000000000E+00 0. -1.
        -12    1    6    6    0    0  0.72716854573E+02 -0.28346168749E+02 -0.31798812180E+02  0.84275801259E+02  0.00000000000E+00 0.  1.
</event>
<event>
12    1  0.8313893E-002  0.3546155E+03  0.7818608E-02  0.1060888E+00
         21   -1    0    0  501  502  0.00000000000E+00  0.00000000000E+00  0.20077340312E+03  0.20077340312E+03  0.00000000000E+00 0. -1.
         21   -1    0    0  502  503 -0.00000000000E+00 -0.00000000000E+00 -0.98476790372E+03  0.98476790372E+03  0.00000000000E+00 0.  1.
         -6    2    1    2    0  503 -0.24795238095E+02 -0.30837389228E+03 -0.75146090949E+03  0.83093059278E+03  0.17332885004E+03 0.  0.
        -24    2    3    3    0    0  0.35150119683E+02 -0.76870189858E+02 -0.23147927042E+03  0.25857545379E+03  0.78320212386E+02 0.  0.
          6    2    1    2  501    0  0.24795238095E+02  0.30837389228E+03 -0.32533591111E+02  0.35461071406E+03  0.17023825277E+03 0.  0.
         24    2    5    5    0    0  0.27941587568E+02  0.15496094654E+03  0.42915091627E+02  0.18355509398E+03  0.84006786440E+02 0.  0.
          5    1    5    5  501    0 -0.31463494737E+01  0.15341294574E+03 -0.75448682738E+02  0.17105562009E+03  0.47000000000E+01 0. -1.
        -13    1    6    6    0    0  0.30964402714E+02  0.55146754962E+02 -0.19025495639E+02  0.66044896113E+02  0.00000000000E+00 0.  1.
         14    1    6    6    0    0 -0.30228151461E+01  0.99814191577E+02  0.61940587265E+02  0.11751019787E+03  0.00000000000E+00 0. -1.
         -5    1    3    3    0  503 -0.59945357777E+02 -0.23150370242E+03 -0.51998163907E+03  0.57235513899E+03  0.47000000000E+01 0.  1.
         13    1    4    4    0    0  0.22834417740E+02 -0.90772222065E+02 -0.16663249204E+03  0.19112141255E+03  0.00000000000E+00 0. -1.
        -14    1    4    4    0    0  0.12315701942E+02  0.13902032207E+02 -0.64846778372E+02  0.67454041236E+02  0.00000000000E+00 0.  1.
</event>
<event>
12    1  0.8313893E-002  0.2357443E+03  0.7818608E-02  0.1122794E+00
         21   -1    0    0  501  502  0.00000000000E+00  0.00000000000E+00  0.54754430116E+03  0.54754430116E+03  0.00000000000E+00 0.  1.
         21   -1    0    0  502  503 -0.00000000000E+00 -0.00000000000E+00 -0.10472519813E+03  0.10472519813E+03  0.00000000000E+00 0. -1.
         -6    2    1    2    0  503 -0.61420540942E+02 -0.14899566780E+03  0.28119875736E+03  0.36644344545E+03  0.17098498677E+03 0.  0.
        -24    2    3    3    0    0  0.20034594098E+02 -0.25125552470E+02  0.10120494290E+03  0.13320835431E+03  0.80432250014E+02 0.  0.
          6    2    1    2  501    0  0.61420540942E+02  0.14899566780E+03  0.16162034566E+03  0.28582605384E+03  0.17205581958E+03 0.  0.
         24    2    5    5    0    0  0.51004151332E+01  0.42326166953E+02  0.11894005309E+02  0.93497153317E+02  0.82357341340E+02 0.  0.
          5    1    5    5  501    0  0.56320125809E+02  0.10666950084E+03  0.14972634036E+03  0.19232890053E+03  0.47000000000E+01 0. -1.
        -13    1    6    6    0    0  0.60386638663E+01  0.67328984725E+02  0.65807372247E+01  0.67918802609E+02  0.00000000000E+00 0.  1.
         14    1    6    6    0    0 -0.93824873317E+00 -0.25002817772E+02  0.53132680842E+01  0.25578350708E+02  0.00000000000E+00 0. -1.
         -5    1    3    3    0  503 -0.81455135040E+02 -0.12387011533E+03  0.17999381446E+03  0.23323509114E+03  0.47000000000E+01 0.  1.
         11    1    4    4    0    0 -0.12393236586E+02 -0.46079868566E+02  0.50509651690E+02  0.69485045254E+02  0.00000000000E+00 0. -1.
        -12    1    4    4    0    0  0.32427830683E+02  0.20954316096E+02  0.50695291207E+02  0.63723309051E+02  0.00000000000E+00 0.  1.
</event>
<event>
12    1  0.8313893E-002  0.1843532E+03  0.7818608E-02  0.1165138E+00
         21   -1    0    0  503  502  0.00000000000E+00  0.00000000000E+00  0.69734092923E+02  0.69734092923E+02  0.00000000000E+00 0.  1.
         21   -1    0    0  501  503 -0.00000000000E+00 -0.00000000000E+00 -0.57960440856E+03  0.57960440856E+03  0.00000000000E+00 0.  1.
          6    2    1    2  501    0 -0.48515735513E+02 -0.19913302390E+02 -0.11092740996E+03  0.20985977459E+03  0.17025251395E+03 0.  0.
         24    2    3    3    0    0 -0.42634340917E+02  0.51633595940E+02 -0.80492802187E+02  0.13174508447E+03  0.79962246231E+02 0.  0.
         -6    2    1    2    0  502  0.48515735513E+02  0.19913302390E+02 -0.39894290568E+03  0.43947872689E+03  0.17673650781E+03 0.  0.
        -24    2    5    5    0    0  0.55854753951E+02 -0.46478004595E+02 -0.29587529075E+03  0.31656945107E+03  0.85988785463E+02 0.  0.
          5    1    3    3  501    0 -0.58813945959E+01 -0.71546898330E+02 -0.30434607770E+02  0.78114690124E+02  0.47000000000E+01 0. -1.
        -13    1    4    4    0    0 -0.27536457394E+02 -0.10955711770E+02 -0.12758777498E+01  0.29663310170E+02  0.00000000000E+00 0.  1.
         14    1    4    4    0    0 -0.15097883523E+02  0.62589307710E+02 -0.79216924437E+02  0.10208177430E+03  0.00000000000E+00 0. -1.
         -5    1    5    5    0  502 -0.73390184375E+01  0.66391306985E+02 -0.10306761493E+03  0.12290927582E+03  0.47000000000E+01 0.  1.
         13    1    6    6    0    0 -0.23210183141E+02 -0.13094197785E+02 -0.76094096710E+02  0.80625567726E+02  0.00000000000E+00 0. -1.
        -14    1    6    6    0    0  0.79064937092E+02 -0.33383806810E+02 -0.21978119404E+03  0.23594388335E+03  0.00000000000E+00 0.  1.
</event>
<event>
12    1  0.8313893E-002  0.1827409E+03  0.7818608E-02  0.1165964E+00
         21   -1    0    0  501  502  0.00000000000E+00  0.00000000000E+00  0.58694031091E+03  0.58694031091E+03  0.00000000000E+00 0. -1.
         21   -1    0    0  502  503 -0.00000000000E+00 -0.00000000000E+00 -0.38059900514E+03  0.38059900514E+03  0.00000000000E+00 0. -1.
         -6    2    1    2    0  503 -0.55029774076E+02  0.71069315564E+01 -0.34381385565E+03  0.38782822479E+03  0.17065749354E+03 0.  0.
        -24    2    3    3    0    0 -0.25991757723E+02  0.60184191239E+02 -0.28458857988E+03  0.30303361895E+03  0.80876486545E+02 0.  0.
          6    2    1    2  501    0  0.55029774076E+02 -0.71069315564E+01  0.55015516142E+03  0.57971109125E+03  0.17411336301E+03 0.  0.
         24    2    5    5    0    0 -0.17085568178E+02  0.44682379903E+02  0.30118226162E+03  0.31533947742E+03  0.80248361913E+02 0.  0.
          5    1    5    5  501    0  0.72115342254E+02 -0.51789311460E+02  0.24897289979E+03  0.26437161384E+03  0.47000000000E+01 0. -1.
        -13    1    6    6    0    0 -0.47427558429E+02  0.26907044151E+02  0.22371186867E+03  0.23026150896E+03  0.00000000000E+00 0.  1.
         14    1    6    6    0    0  0.30341990251E+02  0.17775335753E+02  0.77470392952E+02  0.85077968462E+02  0.00000000000E+00 0. -1.
         -5    1    3    3    0  503 -0.29038016353E+02 -0.53077259683E+02 -0.59225275769E+02  0.84794605837E+02  0.47000000000E+01 0.  1.
         11    1    4    4    0    0  0.27490692004E+02  0.10712493589E+02 -0.10919272196E+03  0.11310855934E+03  0.00000000000E+00 0. -1.
        -12    1    4    4    0    0 -0.53482449727E+02  0.49471697651E+02 -0.17539585791E+03  0.18992505962E+03  0.00000000000E+00 0.  1.
</event>
<event>
12    1  0.8313893E-002  0.2182270E+03  0.7818608E-02  0.1135482E+00
         21   -1    0    0  501  502  0.00000000000E+00  0.00000000000E+00  0.65714594010E+03  0.65714594010E+03  0.00000000000E+00 0.  1.
         21   -1    0    0  502  503 -0.00000000000E+00 -0.00000000000E+00 -0.72147277396E+02  0.72147277396E+02  0.00000000000E+00 0.  1.
         -6    2    1    2    0  503  0.13325480130E+03 -0.16303645157E+02  0.27479555827E+03  0.35001890534E+03  0.17022921116E+03 0.  0.
        -24    2    3    3    0    0  0.14630554947E+03  0.10915270992E+02  0.27238756635E+03  0.31937449559E+03  0.79250395453E+02 0.  0.
          6    2    1    2  501    0 -0.13325480130E+03  0.16303645157E+02  0.31020310443E+03  0.37927431215E+03  0.17204762988E+03 0.  0.
         24    2    5    5    0    0 -0.16834231710E+01 -0.19031454103E+02  0.11934729902E+03  0.14473726766E+03  0.79624548391E+02 0.  0.
          5    1    5    5  501    0 -0.13157137813E+03  0.35335099260E+02  0.19085580541E+03  0.23453704450E+03  0.47000000000E+01 0. -1.
        -11    1    6    6    0    0 -0.16215873423E+02  0.24941670162E+02  0.74709842022E+02  0.80415184861E+02  0.00000000000E+00 0.  1.
         12    1    6    6    0    0  0.14532450252E+02 -0.43973124265E+02  0.44637457001E+02  0.64322082798E+02  0.00000000000E+00 0. -1.
         -5    1    3    3    0  503 -0.13050748171E+02 -0.27218916149E+02  0.24079919218E+01  0.30644409755E+02  0.47000000000E+01 0.  1.
         13    1    4    4    0    0  0.33819583104E+02  0.70182155865E+01  0.13511153381E+02  0.37088688532E+02  0.00000000000E+00 0. -1.
        -14    1    4    4    0    0  0.11248596637E+03  0.38970554056E+01  0.25887641297E+03  0.28228580705E+03  0.00000000000E+00 0.  1.
</event>
<event>
12    1  0.8313893E-002  0.2429261E+03  0.7818608E-02  0.1118261E+00
         21   -1    0    0  503  502  0.00000000000E+00  0.00000000000E+00  0.37468007337E+02  0.37468007337E+02  0.00000000000E+00 0. -1.
         21   -1    0    0  501  503 -0.00000000000E+00 -0.00000000000E+00 -0.16967116559E+04  0.16967116559E+04  0.00000000000E+00 0. -1.
          6    2    1    2  501    0 -0.18197271064E+02 -0.16740116437E+03 -0.58666153974E+03  0.63496840532E+03  0.17509661058E+03 0.  0.
         24    2    3    3    0    0 -0.74356736743E+02 -0.12768610883E+03 -0.47151098501E+03  0.50075621707E+03  0.81249696953E+02 0.  0.
         -6    2    1    2    0  502  0.18197271064E+02  0.16740116437E+03 -0.10725821088E+04  0.10992112579E+04  0.17169367739E+03 0.  0.
        -24    2    5    5    0    0  0.70067234264E+02  0.14882144134E+03 -0.74387677708E+03  0.76588711492E+03  0.78569552600E+02 0.  0.
          5    1    3    3  501    0  0.56159465679E+02 -0.39715055543E+02 -0.11515055472E+03  0.13421218825E+03  0.47000000000E+01 0. -1.
        -11    1    4    4    0    0 -0.65613946748E+02 -0.32999790230E+02 -0.21363282986E+03  0.22590520613E+03  0.00000000000E+00 0.  1.
         12    1    4    4    0    0 -0.87427899945E+01 -0.94686318597E+02 -0.25787815515E+03  0.27485101093E+03  0.00000000000E+00 0. -1.
         -5    1    5    5    0  502 -0.51869963200E+02  0.18579723032E+02 -0.32870533172E+03  0.33332414298E+03  0.47000000000E+01 0.  1.
         11    1    6    6    0    0  0.43655073087E+02  0.53266799961E+02 -0.46155691426E+03  0.46666680029E+03  0.00000000000E+00 0. -1.
        -12    1    6    6    0    0  0.26412161177E+02  0.95554641377E+02 -0.28231986282E+03  0.29922031463E+03  0.00000000000E+00 0.  1.
</event>
<event>
12    1  0.8313893E-002  0.2409203E+03  0.7818608E-02  0.1119219E+00
         21   -1    0    0  501  502  0.00000000000E+00  0.00000000000E+00  0.31178455908E+03  0.31178455908E+03  0.00000000000E+00 0.  1.
         21   -1    0    0  502  503 -0.00000000000E+00 -0.00000000000E+00 -0.22769051234E+03  0.22769051234E+03  0.00000000000E+00 0. -1.
         -6    2    1    2    0  503  0.14098860245E+03 -0.92882248683E+02  0.15750166189E+03  0.28783561386E+03  0.17186526400E+03 0.  0.
        -24    2    3    3    0    0  0.21388417499E+02 -0.83190456972E+02  0.52920952311E+02  0.12859570090E+03  0.79737761199E+02 0.  0.
          6    2    1    2  501    0 -0.14098860245E+03  0.92882248683E+02 -0.73407615146E+02  0.25163945756E+03  0.17154836199E+03 0.  0.
         24    2    5    5    0    0 -0.77870516214E+02  0.64157142567E+00  0.10800743031E+02  0.11162026982E+03  0.79235091180E+02 0.  0.
          5    1    5    5  501    0 -0.63118086236E+02  0.92240677258E+02 -0.84208358177E+02  0.14001918775E+03  0.47000000000E+01 0. -1.
        -13    1    6    6    0    0 -0.13392108732E+02  0.35396545499E+02  0.33237911837E+01  0.37990940991E+02  0.00000000000E+00 0.  1.
         14    1    6    6    0    0 -0.64478407482E+02 -0.34754974073E+02  0.74769518471E+01  0.73629328825E+02  0.00000000000E+00 0. -1.
         -5    1    3    3    0  503  0.11960018495E+03 -0.96917917112E+01  0.10458070957E+03  0.15923991297E+03  0.47000000000E+01 0.  1.
         11    1    4    4    0    0  0.13903749967E+02 -0.92125506254E+02  0.63584436865E+02  0.11279806637E+03  0.00000000000E+00 0. -1.
        -12    1    4    4    0    0  0.74846675315E+01  0.89350492822E+01 -0.10663484554E+02  0.15797634524E+02  0.00000000000E+00 0.  1.
</event>
<event>
12    1  0.8313893E-002  0.1757072E+03  0.7818608E-02  0.1172394E+00
         21   -1    0    0  501  502  0.00000000000E+00  0.00000000000E+00  0.68461118142E+02  0.68461118142E+02  0.00000000000E+00 0. -1.
         21   -1    0    0  502  503 -0.00000000000E+00 -0.00000000000E+00 -0.10834728153E+04  0.10834728153E+04  0.00000000000E+00 0. -1.
         -6    2    1    2    0  503 -0.28983899933E+02 -0.16962486581E+02 -0.94977219905E+03  0.96588832596E+03  0.17246807163E+03 0.  0.
        -24    2    3    3    0    0  0.28430530251E+02 -0.25016859465E+02 -0.80504429804E+03  0.80990901628E+03  0.80138346283E+02 0.  0.
          6    2    1    2  501    0  0.28983899933E+02  0.16962486581E+02 -0.65239498153E+02  0.18604560753E+03  0.17096486058E+03 0.  0.
         24    2    5    5    0    0  0.46605362064E+02  0.68296033022E+02 -0.65610503530E+02  0.13156738653E+03  0.78541906811E+02 0.  0.
          5    1    5    5  501    0 -0.17621462131E+02 -0.51333546442E+02  0.37100537721E+00  0.54478220996E+02  0.47000000000E+01 0. -1.
        -13    1    6    6    0    0 -0.62033561108E+01  0.18061533655E+02 -0.54614741803E+02  0.57857330108E+02  0.00000000000E+00 0.  1.
         14    1    6    6    0    0  0.52808718175E+02  0.50234499367E+02 -0.10995761727E+02  0.73710056423E+02  0.00000000000E+00 0. -1.
         -5    1    3    3    0  503 -0.57414430184E+02  0.80543728838E+01 -0.14472790102E+03  0.15597930968E+03  0.47000000000E+01 0.  1.
         11    1    4    4    0    0  0.54175432796E+02 -0.23811226476E+02 -0.44087780836E+03  0.44483164673E+03  0.00000000000E+00 0. -1.
        -12    1    4    4    0    0 -0.25744902545E+02 -0.12056329884E+01 -0.36416648968E+03  0.36507736955E+03  0.00000000000E+00 0.  1.
</event>
<event>
12    1  0.8313893E-002  0.2179440E+03  0.7818608E-02  0.1135444E+00
         21   -1    0    0  501  502  0.00000000000E+00  0.00000000000E+00  0.12424496219E+04  0.12424496219E+04  0.00000000000E+00 0. -1.
         21   -1    0    0  502  503 -0.00000000000E+00 -0.00000000000E+00 -0.38215640450E+02  0.38215640450E+02  0.00000000000E+00 0. -1.
         -6    2    1    2    0  503  0.10615850893E+03 -0.80948323114E+02  0.59654769918E+03  0.63507855126E+03  0.17214339616E+03 0.  0.
        -24    2    3    3    0    0  0.13768600876E+03 -0.99652092553E+02  0.51797814935E+03  0.54825068478E+03  0.58219185841E+02 0.  0.
          6    2    1    2  501    0 -0.10615850893E+03  0.80948323114E+02  0.60768628229E+03  0.64558671111E+03  0.17227107663E+03 0.  0.
         24    2    5    5    0    0 -0.77343790840E+02  0.22308506616E+02  0.17989389419E+03  0.21280809175E+03  0.80285361672E+02 0.  0.
          5    1    5    5  501    0 -0.28814718085E+02  0.58639816498E+02  0.42779238810E+03  0.43277861936E+03  0.47000000000E+01 0. -1.
        -11    1    6    6    0    0 -0.10154472312E+02  0.41019281040E+02  0.50802571666E+02  0.66080224068E+02  0.00000000000E+00 0.  1.
         12    1    6    6    0    0 -0.67189318529E+02 -0.18710774424E+02  0.12909132252E+03  0.14672786768E+03  0.00000000000E+00 0. -1.
         -5    1    3    3    0  503 -0.31527499834E+02  0.18703769439E+02  0.78569549836E+02  0.86827866486E+02  0.47000000000E+01 0.  1.
         11    1    4    4    0    0  0.80040500168E+02 -0.30731945543E+02  0.19517958051E+03  0.21318068109E+03  0.00000000000E+00 0. -1.
        -12    1    4    4    0    0  0.57645508591E+02 -0.68920147010E+02  0.32279856884E+03  0.33507000369E+03  0.00000000000E+00 0.  1.
</event>
<event>
12    1  0.8313893E-002  0.2404173E+03  0.7818608E-02  0.1119628E+00
         21   -1    0    0  501  502  0.00000000000E+00  0.00000000000E+00  0.37098223033E+03  0.37098223033E+03  0.00000000000E+00 0.  1.
         21   -1    0    0  502  503 -0.00000000000E+00 -0.00000000000E+00 -0.15561156132E+03  0.15561156132E+03  0.00000000000E+00 0.  1.
         -6    2    1    2    0  503  0.16851332413E+03  0.14346267759E+01  0.11805479541E+03  0.26722756589E+03  0.17051345604E+03 0.  0.
        -24    2    3    3    0    0  0.17033240213E+03 -0.43038850508E+02  0.82063982013E+02  0.20979388348E+03  0.80084371359E+02 0.  0.
          6    2    1    2  501    0 -0.16851332413E+03 -0.14346267759E+01  0.97315873601E+02  0.25936622575E+03  0.17146912621E+03 0.  0.
         24    2    5    5    0    0 -0.17782177229E+03  0.44160825169E+01  0.37871099932E+02  0.19873084728E+03  0.80122686947E+02 0.  0.
          5    1    5    5  501    0  0.93084481601E+01 -0.58507092928E+01  0.59444773669E+02  0.60635378476E+02  0.47000000000E+01 0. -1.
        -13    1    6    6    0    0 -0.15266071326E+03 -0.26799825708E+02  0.30102173517E+02  0.15789130718E+03  0.00000000000E+00 0.  1.
         14    1    6    6    0    0 -0.25161059026E+02  0.31215908225E+02  0.77689264150E+01  0.40839540096E+02  0.00000000000E+00 0. -1.
         -5    1    3    3    0  503 -0.18190779948E+01  0.44473477284E+02  0.35990813397E+02  0.57433682413E+02  0.47000000000E+01 0.  1.
         13    1    4    4    0    0  0.14334544439E+02 -0.66709908355E+01  0.41712640394E+02  0.44608582713E+02  0.00000000000E+00 0. -1.
        -14    1    4    4    0    0  0.15599785769E+03 -0.36367859673E+02  0.40351341619E+02  0.16518530077E+03  0.00000000000E+00 0.  1.
</event>
<event>
12    1  0.8313893E-002  0.1929709E+03  0.7818608E-02  0.1157392E+00
         21   -1    0    0  501  502  0.00000000000E+00  0.00000000000E+00  0.80356082325E+02  0.80356082325E+02  0.00000000000E+00 0.  1.
         21   -1    0    0  502  503 -0.00000000000E+00 -0.00000000000E+00 -0.11370774667E+04  0.11370774667E+04  0.00000000000E+00 0.  1.
         -6    2    1    2    0  503  0.67984821353E+02  0.23798983456E+02 -0.10064888521E+04  0.10248207520E+04  0.17902356498E+03 0.  0.
        -24    2    3    3    0    0  0.15946817852E+01  0.53991574764E+01 -0.21273058141E+03  0.22806452423E+03  0.82020930465E+02 0.  0.
          6    2    1    2  501    0 -0.67984821353E+02 -0.23798983456E+02 -0.50232532233E+02  0.19261279697E+03  0.17142944529E+03 0.  0.
         24    2    5    5    0    0 -0.12875759475E+02 -0.65448891362E+02 -0.64177737808E+02  0.12198502418E+03  0.79449490447E+02 0.  0.
          5    1    5    5  501    0 -0.55109061878E+02  0.41649907906E+02  0.13945205575E+02  0.70627772782E+02  0.47000000000E+01 0. -1.
        -11    1    6    6    0    0  0.93952016174E+01 -0.71215029329E+02 -0.24087724141E+02  0.75763240890E+02  0.00000000000E+00 0.  1.
         12    1    6    6    0    0 -0.22270961092E+02  0.57661379674E+01 -0.40090013667E+02  0.46221783293E+02  0.00000000000E+00 0. -1.
         -5    1    3    3    0  503  0.66390139568E+02  0.18399825980E+02 -0.79375827071E+03  0.79675622781E+03  0.47000000000E+01 0.  1.
         11    1    4    4    0    0  0.27043971857E+02 -0.28751961635E+02 -0.10924292972E+03  0.11615536753E+03  0.00000000000E+00 0. -1.
        -12    1    4    4    0    0 -0.25449290072E+02  0.34151119112E+02 -0.10348765169E+03  0.11190915671E+03  0.00000000000E+00 0.  1.
</event>
<event>
12    1  0.8313893E-002  0.1774413E+03  0.7818608E-02  0.1170583E+00
         21   -1    0    0  501  502  0.00000000000E+00  0.00000000000E+00  0.31458789608E+03  0.31458789608E+03  0.00000000000E+00 0.  1.
         21   -1    0    0  502  503 -0.00000000000E+00 -0.00000000000E+00 -0.10112273387E+03  0.10112273387E+03  0.00000000000E+00 0.  1.
         -6    2    1    2    0  503  0.37113462072E+01 -0.45896610886E+02  0.79624143853E+02  0.19345217688E+03  0.17018656667E+03 0.  0.
        -24    2    3    3    0    0 -0.23045522488E+02 -0.76307406651E+02  0.95913541011E+02  0.14954111926E+03  0.82518013696E+02 0.  0.
          6    2    1    2  501    0 -0.37113462072E+01  0.45896610886E+02  0.13384101835E+03  0.22225845307E+03  0.17136256529E+03 0.  0.
         24    2    5    5    0    0  0.16443744552E+02 -0.39414036524E+02  0.61983553900E+02  0.10881366719E+03  0.78578560709E+02 0.  0.
          5    1    5    5  501    0 -0.20155090759E+02  0.85310647410E+02  0.71857464451E+02  0.11344478588E+03  0.47000000000E+01 0. -1.
        -11    1    6    6    0    0 -0.25168380418E+02 -0.15381616051E+02  0.51926189305E+02  0.59719097623E+02  0.00000000000E+00 0.  1.
         12    1    6    6    0    0  0.41612124970E+02 -0.24032420473E+02  0.10057364595E+02  0.49094569566E+02  0.00000000000E+00 0. -1.
         -5    1    3    3    0  503  0.26756868695E+02  0.30410795765E+02 -0.16289397158E+02  0.43911057619E+02  0.47000000000E+01 0.  1.
         11    1    4    4    0    0 -0.34535516796E+02 -0.53574108185E+02  0.10471682359E+03  0.12259078322E+03  0.00000000000E+00 0. -1.
        -12    1    4    4    0    0  0.11489994308E+02 -0.22733298465E+02 -0.88032825814E+01  0.26950336037E+02  0.00000000000E+00 0.  1.
</event>
<event>
12    1  0.8313893E-002  0.1768677E+03  0.7818608E-02  0.1171054E+00
         21   -1    0    0  501  502  0.00000000000E+00  0.00000000000E+00  0.65726153080E+02  0.65726153080E+02  0.00000000000E+00 0. -1.
         21   -1    0    0  502  503 -0.00000000000E+00 -0.00000000000E+00 -0.74398262151E+03  0.74398262151E+03  0.00000000000E+00 0. -1.
         -6    2    1    2    0  503 -0.39091629552E+02  0.11901857733E+02 -0.58349320157E+03  0.60971017874E+03  0.17208246878E+03 0.  0.
        -24    2    3    3    0    0  0.29130375536E+00  0.41913211562E+02 -0.53254130553E+03  0.53850707133E+03  0.68064833913E+02 0.  0.
          6    2    1    2  501    0  0.39091629552E+02 -0.11901857733E+02 -0.94763266863E+02  0.19999859585E+03  0.17131710912E+03 0.  0.
         24    2    5    5    0    0  0.24054823298E+02 -0.74959012892E+02 -0.55932290657E+02  0.12428700445E+03  0.78239058025E+02 0.  0.
          5    1    5    5  501    0  0.15036806254E+02  0.63057155159E+02 -0.38830976206E+02  0.75711591399E+02  0.47000000000E+01 0. -1.
        -11    1    6    6    0    0  0.22293627550E+02 -0.32131189757E+02 -0.69140239864E+02  0.79434198888E+02  0.00000000000E+00 0.  1.
         12    1    6    6    0    0  0.17611957483E+01 -0.42827823135E+02  0.13207949207E+02  0.44852805567E+02  0.00000000000E+00 0. -1.
         -5    1    3    3    0  503 -0.39382933307E+02 -0.30011353829E+02 -0.50951896037E+02  0.71203107406E+02  0.47000000000E+01 0.  1.
         13    1    4    4    0    0 -0.33805325210E+02  0.22722342522E+02 -0.25982582715E+03  0.26299917361E+03  0.00000000000E+00 0. -1.
        -14    1    4    4    0    0  0.34096628966E+02  0.19190869040E+02 -0.27271547838E+03  0.27550789772E+03  0.00000000000E+00 0.  1.
</event>
<event>
12    1  0.8313893E-002  0.1826456E+03  0.7818608E-02  0.1165335E+00
         21   -1    0    0  503  502  0.00000000000E+00  0.00000000000E+00  0.90929152919E+03  0.90929152919E+03  0.00000000000E+00 0.  1.
         21   -1    0    0  501  503 -0.00000000000E+00 -0.00000000000E+00 -0.16330886180E+03  0.16330886180E+03  0.00000000000E+00 0.  1.
          6    2    1    2  501    0 -0.52838850832E+02 -0.33532490550E+02 -0.99283869627E+02  0.20788630164E+03  0.17158978863E+03 0.  0.
         24    2    3    3    0    0  0.15095774382E+02 -0.46603764029E+02 -0.88282881878E+01  0.93911419726E+02  0.79634307033E+02 0.  0.
         -6    2    1    2    0  502  0.52838850832E+02  0.33532490550E+02  0.84526653702E+03  0.86471408936E+03  0.17128504214E+03 0.  0.
        -24    2    5    5    0    0 -0.17056522622E+02  0.83148847682E+01  0.65871599127E+03  0.66385471819E+03  0.80226351205E+02 0.  0.
          5    1    3    3  501    0 -0.67934625214E+02  0.13071273479E+02 -0.90455581439E+02  0.11397488191E+03  0.47000000000E+01 0. -1.
        -13    1    4    4    0    0 -0.91399738902E+01  0.79767642624E+01 -0.28549474197E+02  0.31019999480E+02  0.00000000000E+00 0.  1.
         14    1    4    4    0    0  0.24235748273E+02 -0.54580528291E+02  0.19721186009E+02  0.62891420246E+02  0.00000000000E+00 0. -1.
         -5    1    5    5    0  502  0.69895373454E+02  0.25217605782E+02  0.18655054574E+03  0.20085937118E+03  0.47000000000E+01 0.  1.
         11    1    6    6    0    0 -0.19774735298E+02  0.32516103092E+02  0.15695133202E+03  0.16149940476E+03  0.00000000000E+00 0. -1.
        -12    1    6    6    0    0  0.27182126762E+01 -0.24201218324E+02  0.50176465926E+03  0.50235531343E+03  0.00000000000E+00 0.  1.
</event>
<event>
12    1  0.8313893E-002  0.2270612E+03  0.7818608E-02  0.1128737E+00
         21   -1    0    0  503  502  0.00000000000E+00  0.00000000000E+00  0.69595802530E+02  0.69595802530E+02  0.00000000000E+00 0.  1.
         21   -1    0    0  501  503 -0.00000000000E+00 -0.00000000000E+00 -0.76926810548E+03  0.76926810548E+03  0.00000000000E+00 0. -1.
          6    2    1    2  501    0  0.11513767058E+03  0.92944348702E+02 -0.43085731297E+03  0.48702648601E+03  0.17222496566E+03 0.  0.
         24    2    3    3    0    0  0.28836484368E+02  0.80374310398E+02 -0.13456668029E+03  0.17813147210E+03  0.79567941451E+02 0.  0.
         -6    2    1    2    0  502 -0.11513767058E+03 -0.92944348702E+02 -0.26881498998E+03  0.35183742200E+03  0.17214162059E+03 0.  0.
        -24    2    5    5    0    0 -0.76837066067E+02  0.14578615026E+02 -0.13353636052E+03  0.17477663689E+03  0.81230797629E+02 0.  0.
          5    1    3    3  501    0  0.86301186210E+02  0.12570038304E+02 -0.29629063268E+03  0.30889501391E+03  0.47000000000E+01 0. -1.
        -11    1    4    4    0    0  0.52262394219E+02  0.30456395452E+02 -0.58231996818E+02  0.83963773895E+02  0.00000000000E+00 0.  1.
         12    1    4    4    0    0 -0.23425909851E+02  0.49917914946E+02 -0.76334683472E+02  0.94167698207E+02  0.00000000000E+00 0. -1.
         -5    1    5    5    0  502 -0.38300604511E+02 -0.10752296373E+03 -0.13527862946E+03  0.17706078511E+03  0.47000000000E+01 0.  1.
         11    1    6    6    0    0 -0.30495983238E+02  0.68962420501E+01  0.20011891593E+01  0.31329984139E+02  0.00000000000E+00 0. -1.
        -12    1    6    6    0    0 -0.46341082829E+02  0.76823729762E+01 -0.13553754968E+03  0.14344665275E+03  0.00000000000E+00 0.  1.
</event>
<event>
12    1  0.8313893E-002  0.2212362E+03  0.7818608E-02  0.1133103E+00
         21   -1    0    0  501  502  0.00000000000E+00  0.00000000000E+00  0.20530255768E+03  0.20530255768E+03  0.00000000000E+00 0. -1.
         21   -1    0    0  502  503 -0.00000000000E+00 -0.00000000000E+00 -0.25065753345E+03  0.25065753345E+03  0.00000000000E+00 0.  1.
         -6    2    1    2    0  503  0.90712547188E+02  0.10574582172E+03 -0.74740352786E+02  0.23351997477E+03  0.17185608297E+03 0.  0.
        -24    2    3    3    0    0  0.57562264498E+02  0.11764017246E+03 -0.10420556930E+03  0.18736040582E+03  0.84216961032E+02 0.  0.
          6    2    1    2  501    0 -0.90712547188E+02 -0.10574582172E+03  0.29385377018E+02  0.22244011635E+03  0.17089517241E+03 0.  0.
         24    2    5    5    0    0 -0.12892116158E+03 -0.85386579309E+02  0.40399537452E+02  0.17752020211E+03  0.77264258905E+02 0.  0.
          5    1    5    5  501    0  0.38208614389E+02 -0.20359242416E+02 -0.11014160434E+02  0.44919914240E+02  0.47000000000E+01 0. -1.
        -13    1    6    6    0    0 -0.20238866307E+01  0.12456454617E+02  0.32799567710E+01  0.13039075701E+02  0.00000000000E+00 0.  1.
         14    1    6    6    0    0 -0.12689727495E+03 -0.97843033925E+02  0.37119580681E+02  0.16448112641E+03  0.00000000000E+00 0. -1.
         -5    1    3    3    0  503  0.33150282690E+02 -0.11894350738E+02  0.29465216509E+02  0.46159568952E+02  0.47000000000E+01 0.  1.
         11    1    4    4    0    0 -0.15374202436E+02  0.17309117793E+01 -0.33087488544E+00  0.15474871059E+02  0.00000000000E+00 0. -1.
        -12    1    4    4    0    0  0.72936466934E+02  0.11590926068E+03 -0.10387469441E+03  0.17188553476E+03  0.00000000000E+00 0.  1.
</event>
<event>
12    1  0.8313893E-002  0.2433351E+03  0.7818608E-02  0.1117650E+00
         21   -1    0    0  501  502  0.00000000000E+00  0.00000000000E+00  0.70618765386E+03  0.70618765386E+03  0.00000000000E+00 0.  1.
         21   -1    0    0  502  503 -0.00000000000E+00 -0.00000000000E+00 -0.86575243897E+02  0.86575243897E+02  0.00000000000E+00 0.  1.
         -6    2    1    2    0  503  0.52540574330E+02  0.16370048111E+03  0.23807534657E+03  0.34042892423E+03  0.17220227159E+03 0.  0.
        -24    2    3    3    0    0  0.82216081752E+02  0.17618945030E+03  0.21273539900E+03  0.29918800965E+03  0.80342446035E+02 0.  0.
          6    2    1    2  501    0 -0.52540574330E+02 -0.16370048111E+03  0.38153706339E+03  0.45233397353E+03  0.17168906023E+03 0.  0.
         24    2    5    5    0    0 -0.92069084955E+01 -0.14709354164E+03  0.17972635305E+03  0.24520297671E+03  0.78113127265E+02 0.  0.
          5    1    5    5  501    0 -0.43333665835E+02 -0.16606939462E+02  0.20181071035E+03  0.20713099682E+03  0.47000000000E+01 0. -1.
        -13    1    6    6    0    0 -0.29301396119E+02 -0.14070579463E+03  0.16795041563E+03  0.22105210826E+03  0.00000000000E+00 0.  1.
         14    1    6    6    0    0  0.20094487623E+02 -0.63877470155E+01  0.11775937412E+02  0.24150868446E+02  0.00000000000E+00 0. -1.
         -5    1    3    3    0  503 -0.29675507421E+02 -0.12488969194E+02  0.25339947576E+02  0.41240914580E+02  0.47000000000E+01 0.  1.
         13    1    4    4    0    0  0.48511942915E+02  0.49327630437E+02  0.33075784674E+02  0.76685274087E+02  0.00000000000E+00 0. -1.
        -14    1    4    4    0    0  0.33704138837E+02  0.12686181986E+03  0.17965961432E+03  0.22250273556E+03  0.00000000000E+00 0.  1.
</event>
<event>
12    1  0.8313893E-002  0.2290124E+03  0.7818608E-02  0.1127417E+00
         21   -1    0    0  501  502  0.00000000000E+00  0.00000000000E+00  0.46705929445E+03  0.46705929445E+03  0.00000000000E+00 0.  1.
         21   -1    0    0  502  503 -0.00000000000E+00 -0.00000000000E+00 -0.30598115129E+03  0.30598115129E+03  0.00000000000E+00 0.  1.
         -6    2    1    2    0  503  0.14325548941E+03 -0.45438913775E+02 -0.22713148423E+03  0.32254519832E+03  0.17280006859E+03 0.  0.
        -24    2    3    3    0    0  0.37903184860E+02 -0.75453662827E+02 -0.14358758022E+03  0.18469866362E+03  0.79789075013E+02 0.  0.
          6    2    1    2  501    0 -0.14325548941E+03  0.45438913775E+02  0.38820962739E+03  0.45049524741E+03  0.17219878923E+03 0.  0.
         24    2    5    5    0    0 -0.15102269885E+03  0.77714253086E+02  0.36564704289E+03  0.41008253543E+03  0.74983766192E+02 0.  0.
          5    1    5    5  501    0  0.77672094446E+01 -0.32275339311E+02  0.22562584508E+02  0.40412711984E+02  0.47000000000E+01 0. -1.
        -11    1    6    6    0    0 -0.52771721798E+02  0.41637226396E+02  0.22460104954E+03  0.23444433177E+03  0.00000000000E+00 0.  1.
         12    1    6    6    0    0 -0.98250977053E+02  0.36077026690E+02  0.14104599334E+03  0.17563820366E+03  0.00000000000E+00 0. -1.
         -5    1    3    3    0  503  0.10535230455E+03  0.30014749052E+02 -0.83543904009E+02  0.13784653471E+03  0.47000000000E+01 0.  1.
         11    1    4    4    0    0  0.23528332118E+02  0.11675285653E+02 -0.46897067294E+02  0.53751554657E+02  0.00000000000E+00 0. -1.
        -12    1    4    4    0    0  0.14374852743E+02 -0.87128948480E+02 -0.96690512927E+02  0.13094710896E+03  0.00000000000E+00 0.  1.
</event>
<event>
12    1  0.8313893E-002  0.2050341E+03  0.7818608E-02  0.1145637E+00
         21   -1    0    0  503  502  0.00000000000E+00  0.00000000000E+00  0.51600217706E+03  0.51600217706E+03  0.00000000000E+00 0.  1.
         21   -1    0    0  501  503 -0.00000000000E+00 -0.00000000000E+00 -0.81471767625E+02  0.81471767625E+02  0.00000000000E+00 0. -1.
          6    2    1    2  501    0 -0.48948645554E+02 -0.10089407905E+03  0.20459523477E+03  0.28965181532E+03  0.17164899923E+03 0.  0.
         24    2    3    3    0    0  0.30632663089E+02 -0.26793178459E+02  0.12938976936E+03  0.15735638765E+03  0.79768952984E+02 0.  0.
         -6    2    1    2    0  502  0.48948645554E+02  0.10089407905E+03  0.22993517466E+03  0.30782212937E+03  0.17119782035E+03 0.  0.
        -24    2    5    5    0    0  0.26968544077E-01  0.12585808936E+03  0.15949682661E+03  0.21837838632E+03  0.80060118229E+02 0.  0.
          5    1    3    3  501    0 -0.79581308643E+02 -0.74100900590E+02  0.75205465407E+02  0.13229542766E+03  0.47000000000E+01 0. -1.
        -13    1    4    4    0    0 -0.46818655120E+01 -0.47954320610E+02  0.64523327722E+02  0.80528234490E+02  0.00000000000E+00 0.  1.
         14    1    4    4    0    0  0.35314528601E+02  0.21161142152E+02  0.64866441640E+02  0.76828153163E+02  0.00000000000E+00 0. -1.
         -5    1    5    5    0  502  0.48921677010E+02 -0.24964010313E+02  0.70438348057E+02  0.89443743042E+02  0.47000000000E+01 0.  1.
         11    1    6    6    0    0  0.19748036355E+02  0.11556334256E+03  0.15707054179E+03  0.19600006678E+03  0.00000000000E+00 0. -1.
        -12    1    6    6    0    0 -0.19721067811E+02  0.10294746805E+02  0.24262848216E+01  0.22378319540E+02  0.00000000000E+00 0.  1.
</event>
<event>
12    1  0.8313893E-002  0.2017132E+03  0.7818608E-02  0.1149024E+00
         21   -1    0    0  503  502  0.00000000000E+00  0.00000000000E+00  0.82703277592E+02  0.82703277592E+02  0.00000000000E+00 0.  1.
         21   -1    0    0  501  503 -0.00000000000E+00 -0.00000000000E+00 -0.97206885800E+03  0.97206885800E+03  0.00000000000E+00 0. -1.
          6    2    1    2  501    0 -0.88669127482E+02 -0.47384241331E+02 -0.81661244689E+03  0.84033981975E+03  0.17090243925E+03 0.  0.
         24    2    3    3    0    0 -0.38935927648E+01 -0.52449597305E+02 -0.59982890780E+03  0.60746701769E+03  0.80345121987E+02 0.  0.
         -6    2    1    2    0  502  0.88669127482E+02  0.47384241331E+02 -0.72753133513E+02  0.21443231584E+03  0.17487343751E+03 0.  0.
        -24    2    5    5    0    0  0.12474405293E+03  0.21650373374E+02 -0.73521359467E+02  0.16986425129E+03  0.86131621141E+02 0.  0.
          5    1    3    3  501    0 -0.84775534717E+02  0.50653559739E+01 -0.21678353910E+03  0.23287280206E+03  0.47000000000E+01 0. -1.
        -13    1    4    4    0    0 -0.24311072365E+02  0.94189017153E+01 -0.27064633130E+03  0.27189921037E+03  0.00000000000E+00 0.  1.
         14    1    4    4    0    0  0.20417479601E+02 -0.61868499020E+02 -0.32918257649E+03  0.33556780732E+03  0.00000000000E+00 0. -1.
         -5    1    5    5    0  502 -0.36074925451E+02  0.25733867957E+02  0.76822595396E+00  0.44568064547E+02  0.47000000000E+01 0.  1.
         13    1    6    6    0    0 -0.67718316380E+01  0.16400947598E+02  0.24176875342E+01  0.17907931172E+02  0.00000000000E+00 0. -1.
        -14    1    6    6    0    0  0.13151588457E+03  0.52494257759E+01 -0.75939047002E+02  0.15195632012E+03  0.00000000000E+00 0.  1.
</event>
<event>
12    1  0.8313893E-002  0.1810829E+03  0.7818608E-02  0.1166950E+00
         21   -1    0    0  501  502  0.00000000000E+00  0.00000000000E+00  0.31850287763E+03  0.31850287763E+03  0.00000000000E+00 0.  1.
         21   -1    0    0  502  503 -0.00000000000E+00 -0.00000000000E+00 -0.10268975042E+03  0.10268975042E+03  0.00000000000E+00 0. -1.
         -6    2    1    2    0  503 -0.34140705620E+02 -0.40959310791E+02  0.11715083244E+03  0.21567414099E+03  0.17305422454E+03 0.  0.
        -24    2    3    3    0    0 -0.37877262178E+02 -0.87795083975E+02  0.52524697675E+02  0.13563553281E+03  0.80594603635E+02 0.  0.
          6    2    1    2  501    0  0.34140705620E+02  0.40959310791E+02  0.98662294771E+02  0.20551848706E+03  0.17222179651E+03 0.  0.
         24    2    5    5    0    0 -0.25654193114E+02  0.27475858102E+02  0.10825035735E+03  0.14329908209E+03  0.86043167401E+02 0.  0.
          5    1    5    5  501    0  0.59794898734E+02  0.13483452689E+02 -0.95880625834E+01  0.62219404972E+02  0.47000000000E+01 0. -1.
        -13    1    6    6    0    0 -0.37278535203E+02 -0.21587024691E+02  0.43346023029E+02  0.61111099927E+02  0.00000000000E+00 0.  1.
         14    1    6    6    0    0  0.11624342089E+02  0.49062882793E+02  0.64904334326E+02  0.82187982158E+02  0.00000000000E+00 0. -1.
         -5    1    3    3    0  503  0.37365565576E+01  0.46835773184E+02  0.64626134765E+02  0.80038608180E+02  0.47000000000E+01 0.  1.
         13    1    4    4    0    0  0.10023992024E+02 -0.26672668193E+02 -0.15466275330E+02  0.32420939487E+02  0.00000000000E+00 0. -1.
        -14    1    4    4    0    0 -0.47901254202E+02 -0.61122415783E+02  0.67990973005E+02  0.10321459333E+03  0.00000000000E+00 0.  1.
</event>
<event>
12    1  0.8313893E-002  0.2085286E+03  0.7818608E-02  0.1142929E+00
         21   -1    0    0  503  502  0.00000000000E+00  0.00000000000E+00  0.11143393722E+03  0.11143393722E+03  0.00000000000E+00 0. -1.
         21   -1    0    0  501  503 -0.00000000000E+00 -0.00000000000E+00 -0.62229078611E+03  0.62229078611E+03  0.00000000000E+00 0. -1.
          6    2    1    2  501    0  0.27392619529E+02  0.11304336651E+03 -0.47995944099E+03  0.52291950973E+03  0.17191448554E+03 0.  0.
         24    2    3    3    0    0 -0.36369693933E+02  0.15334212900E+02 -0.17076188353E+03  0.19240788987E+03  0.79393214423E+02 0.  0.
         -6    2    1    2    0  502 -0.27392619529E+02 -0.11304336651E+03 -0.30897407903E+02  0.21080521360E+03  0.17307521472E+03 0.  0.
        -24    2    5    5    0    0 -0.56997032481E+02 -0.11296261927E+03  0.21472356623E+02  0.15046360256E+03  0.78543099851E+02 0.  0.
          5    1    3    3  501    0  0.63762313462E+02  0.97709153608E+02 -0.30919755746E+03  0.33051161985E+03  0.47000000000E+01 0. -1.
        -13    1    4    4    0    0 -0.20673478590E+02 -0.17461073373E+02 -0.14583777372E+03  0.14832713185E+03  0.00000000000E+00 0.  1.
         14    1    4    4    0    0 -0.15696215343E+02  0.32795286274E+02 -0.24924109815E+02  0.44080758023E+02  0.00000000000E+00 0. -1.
         -5    1    5    5    0  502  0.29604412952E+02 -0.80747240781E-01 -0.52369764526E+02  0.60341611039E+02  0.47000000000E+01 0.  1.
         11    1    6    6    0    0 -0.32465287520E+02 -0.68719869896E+01 -0.13891711565E+02  0.35974973929E+02  0.00000000000E+00 0. -1.
        -12    1    6    6    0    0 -0.24531744961E+02 -0.10609063228E+03  0.35364068189E+02  0.11448862864E+03  0.00000000000E+00 0.  1.
</event>
<event>
12    1  0.8313893E-002  0.2117178E+03  0.7818608E-02  0.1140423E+00
         21   -1    0    0  501  502  0.00000000000E+00  0.00000000000E+00  0.85926451568E+02  0.85926451568E+02  0.00000000000E+00 0.  1.
         21   -1    0    0  502  503 -0.00000000000E+00 -0.00000000000E+00 -0.76623711685E+03  0.76623711685E+03  0.00000000000E+00 0.  1.
         -6    2    1    2    0  503 -0.11298280113E+03 -0.49006023191E+02 -0.58158761472E+03  0.61855990139E+03  0.17089615077E+03 0.  0.
        -24    2    3    3    0    0 -0.28624823776E+02  0.29084505434E+02 -0.16383662283E+03  0.18525587390E+03  0.76236545333E+02 0.  0.
          6    2    1    2  501    0  0.11298280113E+03  0.49006023191E+02 -0.98723050562E+02  0.23360366703E+03  0.17221419476E+03 0.  0.
         24    2    5    5    0    0  0.12703740361E+03  0.77368766328E+02 -0.10799535555E+03  0.20028636389E+03  0.79543716417E+02 0.  0.
          5    1    5    5  501    0 -0.14054602474E+02 -0.28362743137E+02  0.92723049884E+01  0.33317303143E+02  0.47000000000E+01 0. -1.
        -11    1    6    6    0    0  0.46411838624E+02  0.40424372542E+01 -0.71532436760E+02  0.85365622895E+02  0.00000000000E+00 0.  1.
         12    1    6    6    0    0  0.80625564981E+02  0.73326329073E+02 -0.36462918791E+02  0.11492074099E+03  0.00000000000E+00 0. -1.
         -5    1    3    3    0  503 -0.84357977355E+02 -0.78090528625E+02 -0.41775099190E+03  0.43330402749E+03  0.47000000000E+01 0.  1.
         11    1    4    4    0    0 -0.54278210055E+02  0.17203476639E+02 -0.12355066708E+03  0.13603988765E+03  0.00000000000E+00 0. -1.
        -12    1    4    4    0    0  0.25653386279E+02  0.11881028795E+02 -0.40285955746E+02  0.49215986256E+02  0.00000000000E+00 0.  1.
</event>
<event>
12    1  0.8313893E-002  0.1958951E+03  0.7818608E-02  0.1154033E+00
         21   -1    0    0  503  502  0.00000000000E+00  0.00000000000E+00  0.16461343864E+03  0.16461343864E+03  0.00000000000E+00 0.  1.
         21   -1    0    0  501  503 -0.00000000000E+00 -0.00000000000E+00 -0.23925942159E+03  0.23925942159E+03  0.00000000000E+00 0. -1.
          6    2    1    2  501    0  0.32125595230E+02  0.86290127556E+02 -0.79050250711E+02  0.20792827582E+03  0.16884071122E+03 0.  0.
         24    2    3    3    0    0  0.16913183664E+02  0.90756052726E+02  0.52611795864E+01  0.12201047073E+03  0.79599987870E+02 0.  0.
         -6    2    1    2    0  502 -0.32125595230E+02 -0.86290127556E+02  0.44042677614E+01  0.19594458440E+03  0.17290703456E+03 0.  0.
        -24    2    5    5    0    0  0.48123820835E+02 -0.56450362412E+02 -0.46114873217E+01  0.10972536264E+03  0.80720777016E+02 0.  0.
          5    1    3    3  501    0  0.15212411566E+02 -0.44659251706E+01 -0.84311430297E+02  0.85917805093E+02  0.47000000000E+01 0. -1.
        -13    1    4    4    0    0 -0.22191717010E+02  0.77439817366E+02  0.21918461965E+01  0.80586610596E+02  0.00000000000E+00 0.  1.
         14    1    4    4    0    0  0.39104900674E+02  0.13316235360E+02  0.30693333899E+01  0.41423860133E+02  0.00000000000E+00 0. -1.
         -5    1    5    5    0  502 -0.80249416065E+02 -0.29839765144E+02  0.90157550831E+01  0.86219221768E+02  0.47000000000E+01 0.  1.
         11    1    6    6    0    0  0.36560618150E+02 -0.15166335855E+02 -0.38392974539E+02  0.55142697039E+02  0.00000000000E+00 0. -1.
        -12    1    6    6    0    0  0.11563202685E+02 -0.41284026557E+02  0.33781487217E+02  0.54582665597E+02  0.00000000000E+00 0.  1.
</event>
<event>
12    1  0.8313893E-002  0.3313410E+03  0.7818608E-02  0.1070583E+00
         21   -1    0    0  501  502  0.00000000000E+00  0.00000000000E+00  0.21991523442E+04  0.21991523442E+04  0.00000000000E+00 0.  1.
         21   -1    0    0  502  503 -0.00000000000E+00 -0.00000000000E+00 -0.63470543020E+02  0.63470543020E+02  0.00000000000E+00 0. -1.
         -6    2    1    2    0  503  0.26242487637E+03  0.10618736463E+03  0.54460303685E+03  0.63747887540E+03  0.17217513376E+03 0.  0.
        -24    2    3    3    0    0  0.84617781064E+02  0.69805254258E+02  0.32800331852E+03  0.35485447964E+03  0.79388805046E+02 0.  0.
          6    2    1    2  501    0 -0.26242487637E+03 -0.10618736463E+03  0.15910787643E+04  0.16251440118E+04  0.17151924880E+03 0.  0.
         24    2    5    5    0    0 -0.77857334891E+02 -0.79042073389E+02  0.62704369493E+03  0.64321338839E+03  0.90720745625E+02 0.  0.
          5    1    5    5  501    0 -0.18456754148E+03 -0.27145291245E+02  0.96403506936E+03  0.98193062340E+03  0.47000000000E+01 0. -1.
        -13    1    6    6    0    0 -0.42282260058E+02  0.86671119254E+01  0.12282070473E+03  0.13018384636E+03  0.00000000000E+00 0.  1.
         14    1    6    6    0    0 -0.35575074833E+02 -0.87709185315E+02  0.50422299021E+03  0.51302954202E+03  0.00000000000E+00 0. -1.
         -5    1    3    3    0  503  0.17780709531E+03  0.36382110376E+02  0.21659971833E+03  0.28262439576E+03  0.47000000000E+01 0.  1.
         11    1    4    4    0    0  0.82309097115E+02  0.22879851818E+02  0.17394496803E+03  0.19379145231E+03  0.00000000000E+00 0. -1.
        -12    1    4    4    0    0  0.23086839492E+01  0.46925402441E+02  0.15405835049E+03  0.16106302733E+03  0.00000000000E+00 0.  1.
</event>
<event>
12    1  0.8313893E-002  0.2142814E+03  0.7818608E-02  0.1138240E+00
         21   -1    0    0  501  502  0.00000000000E+00  0.00000000000E+00  0.15422810306E+03  0.15422810306E+03  0.00000000000E+00 0. -1.
         21   -1    0    0  502  503 -0.00000000000E+00 -0.00000000000E+00 -0.34770947992E+03  0.34770947992E+03  0.00000000000E+00 0. -1.
         -6    2    1    2    0  503 -0.12662910294E+03  0.13906844280E+02 -0.14205662829E+01  0.21418097016E+03  0.17217183259E+03 0.  0.
        -24    2    3    3    0    0 -0.30388851443E+02  0.16467354044E+02  0.54690273996E+02  0.10264954581E+03  0.79694712148E+02 0.  0.
          6    2    1    2  501    0  0.12662910294E+03 -0.13906844280E+02 -0.19206081058E+03  0.28775661283E+03  0.17230259208E+03 0.  0.
         24    2    5    5    0    0  0.89077354038E+02  0.55699175401E+02 -0.94260981158E+02  0.16189149274E+03  0.79287765191E+02 0.  0.
          5    1    5    5  501    0  0.37551748907E+02 -0.69606019681E+02 -0.97799829421E+02  0.12586512009E+03  0.47000000000E+01 0. -1.
        -11    1    6    6    0    0  0.83369493596E+02  0.82098382428E+01 -0.58794941918E+02  0.10234607516E+03  0.00000000000E+00 0.  1.
         12    1    6    6    0    0  0.57078604424E+01  0.47489337158E+02 -0.35466039240E+02  0.59545417573E+02  0.00000000000E+00 0. -1.
         -5    1    3    3    0  503 -0.96240251501E+02 -0.25605097635E+01 -0.56110840279E+02  0.11153142434E+03  0.47000000000E+01 0.  1.
         13    1    4    4    0    0  0.81929319907E+01  0.37991666281E+02  0.40774920654E+02  0.56330142870E+02  0.00000000000E+00 0. -1.
        -14    1    4    4    0    0 -0.38581783434E+02 -0.21524312237E+02  0.13915353342E+02  0.46319402942E+02  0.00000000000E+00 0.  1.
</event>
<event>
12    1  0.8313893E-002  0.2149367E+03  0.7818608E-02  0.1137834E+00
         21   -1    0    0  501  502  0.00000000000E+00  0.00000000000E+00  0.20450464161E+03  0.20450464161E+03  0.00000000000E+00 0. -1.
         21   -1    0    0  502  503 -0.00000000000E+00 -0.00000000000E+00 -0.46349897958E+03  0.46349897958E+03  0.00000000000E+00 0.  1.
         -6    2    1    2    0  503  0.27258966771E+02  0.12505015536E+03 -0.36886833657E+03  0.42661166487E+03  0.17191006444E+03 0.  0.
        -24    2    3    3    0    0 -0.34126107718E+00  0.77867919297E+02 -0.90429080913E+02  0.14281870324E+03  0.78461672217E+02 0.  0.
          6    2    1    2  501    0 -0.27258966771E+02 -0.12505015536E+03  0.10987399860E+03  0.24139195631E+03  0.17267654265E+03 0.  0.
         24    2    5    5    0    0  0.91286912673E+01 -0.11814900785E+03  0.19527564056E+02  0.14363585303E+03  0.78787127486E+02 0.  0.
          5    1    5    5  501    0 -0.36387658038E+02 -0.69011475073E+01  0.90346434541E+02  0.97756103282E+02  0.47000000000E+01 0. -1.
        -11    1    6    6    0    0  0.39799024657E+02 -0.62912503061E+02  0.28716571957E+02  0.79790894906E+02  0.00000000000E+00 0.  1.
         12    1    6    6    0    0 -0.30670333390E+02 -0.55236504793E+02 -0.91890079006E+01  0.63844958127E+02  0.00000000000E+00 0. -1.
         -5    1    3    3    0  503  0.27600227848E+02  0.47182236064E+02 -0.27843925566E+03  0.28379296163E+03  0.47000000000E+01 0.  1.
         13    1    4    4    0    0  0.16317269250E+02  0.39301426663E+01  0.79981638790E+01  0.18592200585E+02  0.00000000000E+00 0. -1.
        -14    1    4    4    0    0 -0.16658530328E+02  0.73937776631E+02 -0.98427244792E+02  0.12422650266E+03  0.00000000000E+00 0.  1.
</event>
<event>
12    1  0.8313893E-002  0.2519534E+03  0.7818608E-02  0.1112271E+00
         21   -1    0    0  501  502  0.00000000000E+00  0.00000000000E+00  0.65756610050E+02  0.65756610050E+02  0.00000000000E+00 0.  1.
         21   -1    0    0  502  503 -0.00000000000E+00 -0.00000000000E+00 -0.12247342283E+04  0.12247342283E+04  0.00000000000E+00 0.  1.
         -6    2    1    2    0  503 -0.75311905133E+02 -0.16638918230E+03 -0.28098486267E+03  0.37740300626E+03  0.17356063217E+03 0.  0.
        -24    2    3    3    0    0 -0.11483097800E+03 -0.86911863834E+02 -0.19594660553E+03  0.25439082617E+03  0.74698022981E+02 0.  0.
          6    2    1    2  501    0  0.75311905133E+02  0.16638918230E+03 -0.87799275559E+03  0.91308783211E+03  0.17175816496E+03 0.  0.
         24    2    5    5    0    0  0.75989753677E+02  0.18498947893E+03 -0.86108444886E+03  0.88750636714E+03  0.78775463604E+02 0.  0.
          5    1    5    5  501    0 -0.67784854457E+00 -0.18600296629E+02 -0.16908306732E+02  0.25581464968E+02  0.47000000000E+01 0. -1.
        -13    1    6    6    0    0  0.11810567279E+02  0.12406742312E+03 -0.44541257008E+03  0.46251980776E+03  0.00000000000E+00 0.  1.
         14    1    6    6    0    0  0.64179186398E+02  0.60922055816E+02 -0.41567187878E+03  0.42498655939E+03  0.00000000000E+00 0. -1.
         -5    1    3    3    0  503  0.39519072869E+02 -0.79477318470E+02 -0.85038257139E+02  0.12301218008E+03  0.47000000000E+01 0.  1.
         11    1    4    4    0    0 -0.33856198222E+02  0.10157693206E+02 -0.51202863290E+02  0.62218599296E+02  0.00000000000E+00 0. -1.
        -12    1    4    4    0    0 -0.80974779780E+02 -0.97069557040E+02 -0.14474374224E+03  0.19217222688E+03  0.00000000000E+00 0.  1.
</event>
<event>
12    1  0.8313893E-002  0.2104219E+03  0.7818608E-02  0.1142508E+00
         21   -1    0    0  503  502  0.00000000000E+00  0.00000000000E+00  0.30672627877E+03  0.30672627877E+03  0.00000000000E+00 0.  1.
         21   -1    0    0  501  503 -0.00000000000E+00 -0.00000000000E+00 -0.18366347134E+03  0.18366347134E+03  0.00000000000E+00 0. -1.
          6    2    1    2  501    0 -0.85239441845E+02  0.77128800958E+02 -0.57255077961E+02  0.21807227019E+03  0.17624629554E+03 0.  0.
         24    2    3    3    0    0 -0.17198335175E+02 -0.27486285486E+02 -0.32532197331E+02  0.90764692513E+02  0.78285419595E+02 0.  0.
         -6    2    1    2    0  502  0.85239441845E+02 -0.77128800958E+02  0.18031788539E+03  0.27231747992E+03  0.16860502868E+03 0.  0.
        -24    2    5    5    0    0 -0.27497929066E+01 -0.36366639017E+02  0.29011212864E+02  0.92541345717E+02  0.79950962476E+02 0.  0.
          5    1    3    3  501    0 -0.68041106670E+02  0.10461508644E+03 -0.24722880630E+02  0.12730757768E+03  0.47000000000E+01 0. -1.
        -13    1    4    4    0    0  0.13177065671E+02  0.17051320569E+02  0.83457396974E+01  0.23109174886E+02  0.00000000000E+00 0.  1.
         14    1    4    4    0    0 -0.30375400846E+02 -0.44537606054E+02 -0.40877937028E+02  0.67655517626E+02  0.00000000000E+00 0. -1.
         -5    1    5    5    0  502  0.87989234752E+02 -0.40762161941E+02  0.15130667253E+03  0.17977613421E+03  0.47000000000E+01 0.  1.
         13    1    6    6    0    0 -0.20053644592E+01 -0.45008415220E+02  0.51507394988E+02  0.68430918930E+02  0.00000000000E+00 0. -1.
        -14    1    6    6    0    0 -0.74442844742E+00  0.86417762030E+01 -0.22496182124E+02  0.24110426787E+02  0.00000000000E+00 0.  1.
</event>
<event>
12    1  0.8313893E-002  0.1889509E+03  0.7818608E-02  0.1159598E+00
         21   -1    0    0  503  502  0.00000000000E+00  0.00000000000E+00  0.36201169371E+03  0.36201169371E+03  0.00000000000E+00 0. -1.
         21   -1    0    0  501  503 -0.00000000000E+00 -0.00000000000E+00 -0.16840793637E+03  0.16840793637E+03  0.00000000000E+00 0. -1.
          6    2    1    2  501    0  0.91313304601E+01  0.78644039261E+02 -0.74565664249E+02  0.20236890234E+03  0.17066009564E+03 0.  0.
         24    2    3    3    0    0  0.44912415276E+02  0.71208851080E+02  0.36409106911E+01  0.11591702892E+03  0.79596958773E+02 0.  0.
         -6    2    1    2    0  502 -0.91313304601E+01 -0.78644039261E+02  0.26816942159E+03  0.32805072773E+03  0.17156390991E+03 0.  0.
        -24    2    5    5    0    0 -0.22271091792E+01 -0.50416338662E+01  0.23165935452E+03  0.24546708923E+03  0.80979363238E+02 0.  0.
          5    1    3    3  501    0 -0.35781084816E+02  0.74351881810E+01 -0.78206574940E+02  0.86451873419E+02  0.47000000000E+01 0. -1.
        -13    1    4    4    0    0 -0.16386026258E+02 -0.31579606451E+01  0.97897851185E+01  0.19347208187E+02  0.00000000000E+00 0.  1.
         14    1    4    4    0    0  0.61298441533E+02  0.74366811725E+02 -0.61488744274E+01  0.96569820738E+02  0.00000000000E+00 0. -1.
         -5    1    5    5    0  502 -0.69042212809E+01 -0.73602405395E+02  0.36510067075E+02  0.82583638508E+02  0.47000000000E+01 0.  1.
         13    1    6    6    0    0  0.33225678974E+02  0.13445651504E+02  0.66584502839E+02  0.75618961286E+02  0.00000000000E+00 0. -1.
        -14    1    6    6    0    0 -0.35452788153E+02 -0.18487285370E+02  0.16507485168E+03  0.16984812794E+03  0.00000000000E+00 0.  1.
</event>
<event>
12    1  0.8313893E-002  0.1877211E+03  0.7818608E-02  0.1161471E+00
         21   -1    0    0  501  502  0.00000000000E+00  0.00000000000E+00  0.77884374283E+02  0.77884374283E+02  0.00000000000E+00 0.  1.
         21   -1    0    0  502  503 -0.00000000000E+00 -0.00000000000E+00 -0.75379132270E+03  0.75379132270E+03  0.00000000000E+00 0.  1.
         -6    2    1    2    0  503  0.58908198851E+02  0.35031132654E+02 -0.60722795431E+03  0.63558240849E+03  0.17476227664E+03 0.  0.
        -24    2    3    3    0    0  0.13416756992E+02 -0.17651976972E+02 -0.12953377844E+03  0.15282077271E+03  0.77997353508E+02 0.  0.
          6    2    1    2  501    0 -0.58908198851E+02 -0.35031132654E+02 -0.68678994102E+02  0.19609328849E+03  0.17040662374E+03 0.  0.
         24    2    5    5    0    0 -0.10389506015E+03 -0.32694361960E+02 -0.66391865133E+02  0.15074354598E+03  0.80328276904E+02 0.  0.
          5    1    5    5  501    0  0.44986861302E+02 -0.23367706935E+01 -0.22871289686E+01  0.45349742513E+02  0.47000000000E+01 0. -1.
        -13    1    6    6    0    0 -0.97485038644E+02 -0.14144339836E+02 -0.20200739177E+02  0.10055578040E+03  0.00000000000E+00 0.  1.
         14    1    6    6    0    0 -0.64100215090E+01 -0.18550022124E+02 -0.46191125957E+02  0.50187765578E+02  0.00000000000E+00 0. -1.
         -5    1    3    3    0  503  0.45491441859E+02  0.52683109625E+02 -0.47769417587E+03  0.48276163578E+03  0.47000000000E+01 0.  1.
         13    1    4    4    0    0 -0.10380119009E+02 -0.17247291866E+02  0.98080181329E+00  0.20153856196E+02  0.00000000000E+00 0. -1.
        -14    1    4    4    0    0  0.23796876001E+02 -0.40468510537E+00 -0.13051458026E+03  0.13266691651E+03  0.00000000000E+00 0.  1.
</event>
<event>
12    1  0.8313893E-002  0.2453337E+03  0.7818608E-02  0.1117264E+00
         21   -1    0    0  503  502  0.00000000000E+00  0.00000000000E+00  0.53904702577E+02  0.53904702577E+02  0.00000000000E+00 0. -1.
         21   -1    0    0  501  503 -0.00000000000E+00 -0.00000000000E+00 -0.11184983963E+04  0.11184983963E+04  0.00000000000E+00 0.  1.
          6    2    1    2  501    0 -0.17166505924E+03  0.26127061196E+02 -0.61999862891E+03  0.66461044150E+03  0.16479448779E+03 0.  0.
         24    2    3    3    0    0 -0.10272542283E+03  0.23618630373E+02 -0.21106384638E+03  0.24987111125E+03  0.82324193225E+02 0.  0.
         -6    2    1    2    0  502  0.17166505924E+03 -0.26127061196E+02 -0.44459506482E+03  0.50779265739E+03  0.17331213272E+03 0.  0.
        -24    2    5    5    0    0  0.74260712546E+02  0.39389448501E+02 -0.30067026605E+03  0.32200660436E+03  0.78863567558E+02 0.  0.
          5    1    3    3  501    0 -0.68939636408E+02  0.25084308235E+01 -0.40893478253E+03  0.41473933025E+03  0.47000000000E+01 0. -1.
        -11    1    4    4    0    0 -0.42543921501E+02  0.18086393682E+02 -0.17153820958E+03  0.17765826814E+03  0.00000000000E+00 0.  1.
         12    1    4    4    0    0 -0.60181501328E+02  0.55322366908E+01 -0.39525636803E+02  0.72212843107E+02  0.00000000000E+00 0. -1.
         -5    1    5    5    0  502  0.97404346690E+02 -0.65516509698E+02 -0.14392479877E+03  0.18578605303E+03  0.47000000000E+01 0.  1.
         11    1    6    6    0    0  0.85140308806E+02  0.50915168843E+02 -0.25212847828E+03  0.27094279131E+03  0.00000000000E+00 0. -1.
        -12    1    6    6    0    0 -0.10879596260E+02 -0.11525720342E+02 -0.48541787762E+02  0.51063813051E+02  0.00000000000E+00 0.  1.
</event>
<event>
12    1  0.8313893E-002  0.1805890E+03  0.7818608E-02  0.1167365E+00
         21   -1    0    0  501  502  0.00000000000E+00  0.00000000000E+00  0.28863847106E+03  0.28863847106E+03  0.00000000000E+00 0.  1.
         21   -1    0    0  502  503 -0.00000000000E+00 -0.00000000000E+00 -0.13248963409E+03  0.13248963409E+03  0.00000000000E+00 0.  1.
         -6    2    1    2    0  503 -0.22508020970E+02  0.47878284928E+02 -0.33107275340E+01  0.18061937764E+03  0.17266573918E+03 0.  0.
        -24    2    3    3    0    0  0.38159276247E+02  0.38582037138E+01 -0.40380084094E+02  0.96866672029E+02  0.79256449951E+02 0.  0.
          6    2    1    2  501    0  0.22508020970E+02 -0.47878284928E+02  0.15945956451E+03  0.24050872751E+03  0.17209925660E+03 0.  0.
         24    2    5    5    0    0  0.61503704822E+02 -0.77803879401E+02  0.13430110014E+03  0.18508993203E+03  0.79908373047E+02 0.  0.
          5    1    5    5  501    0 -0.38995683852E+02  0.29925594473E+02  0.25158464369E+02  0.55418795486E+02  0.47000000000E+01 0. -1.
        -13    1    6    6    0    0  0.53364309465E+02 -0.13160867102E+02  0.31410257915E+02  0.63305309808E+02  0.00000000000E+00 0.  1.
         14    1    6    6    0    0  0.81393953567E+01 -0.64643012299E+02  0.10289084222E+03  0.12178462222E+03  0.00000000000E+00 0. -1.
         -5    1    3    3    0  503 -0.60667297217E+02  0.44020081214E+02  0.37069356560E+02  0.83752705613E+02  0.47000000000E+01 0.  1.
         11    1    4    4    0    0  0.31812926312E+02 -0.20073972966E+02  0.11538364241E+02  0.39346671023E+02  0.00000000000E+00 0. -1.
        -12    1    4    4    0    0  0.63463499350E+01  0.23932176680E+02 -0.51918448335E+02  0.57520001006E+02  0.00000000000E+00 0.  1.
</event>
<event>
12    1  0.8313893E-002  0.2427529E+03  0.7818608E-02  0.1117976E+00
         21   -1    0    0  503  502  0.00000000000E+00  0.00000000000E+00  0.26151206717E+03  0.26151206717E+03  0.00000000000E+00 0. -1.
         21   -1    0    0  501  503 -0.00000000000E+00 -0.00000000000E+00 -0.36903070970E+03  0.36903070970E+03  0.00000000000E+00 0.  1.
          6    2    1    2  501    0 -0.10513295102E+03 -0.13582049810E+03 -0.25050075109E+03  0.34881085793E+03  0.17151747205E+03 0.  0.
         24    2    3    3    0    0 -0.58948601339E+01 -0.91413502946E+02 -0.18733275024E+03  0.22298372956E+03  0.78974720268E+02 0.  0.
         -6    2    1    2    0  502  0.10513295102E+03  0.13582049810E+03  0.14298210857E+03  0.28173191894E+03  0.17154837710E+03 0.  0.
        -24    2    5    5    0    0  0.72439113883E+02  0.16205354865E+03  0.13928710988E+03  0.23939041515E+03  0.79988086847E+02 0.  0.
          5    1    3    3  501    0 -0.99238090891E+02 -0.44406995155E+02 -0.63168000855E+02  0.12582712837E+03  0.47000000000E+01 0. -1.
        -13    1    4    4    0    0 -0.11330753943E+02 -0.10426395195E+03 -0.14915704816E+03  0.18233809990E+03  0.00000000000E+00 0.  1.
         14    1    4    4    0    0  0.54358938094E+01  0.12850449005E+02 -0.38175702079E+02  0.40645629659E+02  0.00000000000E+00 0. -1.
         -5    1    5    5    0  502  0.32693837142E+02 -0.26233050546E+02  0.36949986867E+01  0.42341503791E+02  0.47000000000E+01 0.  1.
         13    1    6    6    0    0  0.87160826742E+02  0.14019106934E+03  0.13374323830E+03  0.21245658246E+03  0.00000000000E+00 0. -1.
        -14    1    6    6    0    0 -0.14721712859E+02  0.21862479310E+02  0.55438715762E+01  0.26933832686E+02  0.00000000000E+00 0.  1.
</event>
<event>
12    1  0.8313893E-002  0.1982190E+03  0.7818608E-02  0.1151303E+00
         21   -1    0    0  501  502  0.00000000000E+00  0.00000000000E+00  0.21978399151E+02  0.21978399151E+02  0.00000000000E+00 0.  1.
         21   -1    0    0  502  503 -0.00000000000E+00 -0.00000000000E+00 -0.17914314998E+04  0.17914314998E+04  0.00000000000E+00 0.  1.
         -6    2    1    2    0  503  0.99210932279E+02  0.10119513971E+02 -0.83308609911E+03  0.85634292852E+03  0.17130542622E+03 0.  0.
        -24    2    3    3    0    0  0.61099994805E+02 -0.31750035700E+02 -0.73893083876E+03  0.74637563431E+03  0.79476593334E+02 0.  0.
          6    2    1    2  501    0 -0.99210932279E+02 -0.10119513971E+02 -0.93636700153E+03  0.95706697042E+03  0.17102283669E+03 0.  0.
         24    2    5    5    0    0 -0.12629384123E+03 -0.77125686207E+01 -0.89490973301E+03  0.90726664455E+03  0.79118367318E+02 0.  0.
          5    1    5    5  501    0  0.27082908946E+02 -0.24069453506E+01 -0.41457268525E+02  0.49800325867E+02  0.47000000000E+01 0. -1.
        -11    1    6    6    0    0 -0.83670800273E+02 -0.97466901554E+01 -0.78265436535E+03  0.78717447646E+03  0.00000000000E+00 0.  1.
         12    1    6    6    0    0 -0.42623040952E+02  0.20341215347E+01 -0.11225536766E+03  0.12009216810E+03  0.00000000000E+00 0. -1.
         -5    1    3    3    0  503  0.38110937474E+02  0.41869549671E+02 -0.94155260355E+02  0.10996729422E+03  0.47000000000E+01 0.  1.
         13    1    4    4    0    0  0.34836016701E+02 -0.35260734563E+02 -0.17669223723E+03  0.18351298090E+03  0.00000000000E+00 0. -1.
        -14    1    4    4    0    0  0.26263978104E+02  0.35106988634E+01 -0.56223860153E+03  0.56286265341E+03  0.00000000000E+00 0.  1.
</event>
<event>
12    1  0.8313893E-002  0.1846246E+03  0.7818608E-02  0.1163824E+00
         21   -1    0    0  503  502  0.00000000000E+00  0.00000000000E+00  0.38113261145E+02  0.38113261145E+02  0.00000000000E+00 0.  1.
         21   -1    0    0  501  503 -0.00000000000E+00 -0.00000000000E+00 -0.11766384696E+04  0.11766384696E+04  0.00000000000E+00 0.  1.
          6    2    1    2  501    0 -0.50895078904E+02  0.36310106069E+02 -0.86920787791E+03  0.88822750659E+03  0.17180522571E+03 0.  0.
         24    2    3    3    0    0 -0.42797187575E+02 -0.19431566671E+02 -0.76006326494E+03  0.76531556061E+03  0.76174507239E+02 0.  0.
         -6    2    1    2    0  502  0.50895078904E+02 -0.36310106069E+02 -0.26931733058E+03  0.32652422419E+03  0.17371675674E+03 0.  0.
        -24    2    5    5    0    0  0.17303942981E+02 -0.63607165729E+02 -0.26266914565E+03  0.28248126514E+03  0.80344801340E+02 0.  0.
          5    1    3    3  501    0 -0.80978913291E+01  0.55741672739E+02 -0.10914461297E+03  0.12291194597E+03  0.47000000000E+01 0. -1.
        -11    1    4    4    0    0 -0.15144495348E+02 -0.22562414130E+01 -0.65818398819E+03  0.65836206503E+03  0.00000000000E+00 0.  1.
         12    1    4    4    0    0 -0.27652692227E+02 -0.17175325258E+02 -0.10187927675E+03  0.10695349558E+03  0.00000000000E+00 0. -1.
         -5    1    5    5    0  502  0.33591135923E+02  0.27297059660E+02 -0.66481849217E+01  0.44042959045E+02  0.47000000000E+01 0.  1.
         13    1    6    6    0    0  0.35866561377E+02 -0.16396467724E+02 -0.18877270770E+03  0.19284809968E+03  0.00000000000E+00 0. -1.
        -14    1    6    6    0    0 -0.18562618396E+02 -0.47210698005E+02 -0.73896437955E+02  0.89633165459E+02  0.00000000000E+00 0.  1.
</event>
<event>
12    1  0.8313893E-002  0.1796680E+03  0.7818608E-02  0.1169700E+00
         21   -1    0    0  503  502  0.00000000000E+00  0.00000000000E+00  0.77152636153E+03  0.77152636153E+03  0.00000000000E+00 0. -1.
         21   -1    0    0  501  503 -0.00000000000E+00 -0.00000000000E+00 -0.85870067898E+02  0.85870067898E+02  0.00000000000E+00 0. -1.
          6    2    1    2  501    0 -0.39906650404E+01  0.44036162364E+02  0.65195618602E+03  0.67459516873E+03  0.16756092681E+03 0.  0.
         24    2    3    3    0    0  0.25490998356E+01 -0.28464529072E+02  0.25456747336E+03  0.27056670721E+03  0.87092004381E+02 0.  0.
         -6    2    1    2    0  502  0.39906650404E+01 -0.44036162364E+02  0.33700107611E+02  0.18280126069E+03  0.17414216794E+03 0.  0.
        -24    2    5    5    0    0 -0.50218003360E+01 -0.92607065757E+02  0.58570651997E-01  0.12284961186E+03  0.80565107810E+02 0.  0.
          5    1    3    3  501    0 -0.65397648760E+01  0.72500691436E+02  0.39738871265E+03  0.40402846153E+03  0.47000000000E+01 0. -1.
        -11    1    4    4    0    0  0.38605090723E+02 -0.26524808178E+02  0.19794226956E+03  0.20340860492E+03  0.00000000000E+00 0.  1.
         12    1    4    4    0    0 -0.36055990888E+02 -0.19397208944E+01  0.56625203808E+02  0.67158102283E+02  0.00000000000E+00 0. -1.
         -5    1    5    5    0  502  0.90124653764E+01  0.48570903393E+02  0.33641536959E+02  0.59951648831E+02  0.47000000000E+01 0.  1.
         13    1    6    6    0    0  0.33876038788E+02 -0.21573373366E+02 -0.95873699548E+01  0.41290605530E+02  0.00000000000E+00 0. -1.
        -14    1    6    6    0    0 -0.38897839124E+02 -0.71033692391E+02  0.96459406068E+01  0.81559006329E+02  0.00000000000E+00 0.  1.
</event>
<event>
12    1  0.8313893E-002  0.1806734E+03  0.7818608E-02  0.1170074E+00
         21   -1    0    0  503  502  0.00000000000E+00  0.00000000000E+00  0.13189708107E+03  0.13189708107E+03  0.00000000000E+00 0. -1.
         21   -1    0    0  501  503 -0.00000000000E+00 -0.00000000000E+00 -0.53781266825E+03  0.53781266825E+03  0.00000000000E+00 0. -1.
          6    2    1    2  501    0  0.61459357870E+01  0.47188841250E+02 -0.45844688682E+03  0.49276407511E+03  0.17429379340E+03 0.  0.
         24    2    3    3    0    0 -0.18232653868E+02  0.63858060735E+01 -0.91566972107E+02  0.12278817707E+03  0.79493508288E+02 0.  0.
         -6    2    1    2    0  502 -0.61459357870E+01 -0.47188841250E+02  0.52531299643E+02  0.17694567421E+03  0.16212857525E+03 0.  0.
        -24    2    5    5    0    0  0.11030966731E+02 -0.81873446378E+02  0.15200660390E+02  0.12296665569E+03  0.89804203058E+02 0.  0.
          5    1    3    3  501    0  0.24378589655E+02  0.40803035176E+02 -0.36687991472E+03  0.36997589805E+03  0.47000000000E+01 0. -1.
        -13    1    4    4    0    0 -0.43223522097E+02 -0.77376251282E+01 -0.25556569886E+02  0.50806318204E+02  0.00000000000E+00 0.  1.
         14    1    4    4    0    0  0.24990868229E+02  0.14123431202E+02 -0.66010402221E+02  0.71981858861E+02  0.00000000000E+00 0. -1.
         -5    1    5    5    0  502 -0.17176902518E+02  0.34684605128E+02  0.37330639252E+02  0.53979018516E+02  0.47000000000E+01 0.  1.
         11    1    6    6    0    0 -0.38464623437E+02 -0.49428128382E+02  0.11421412438E+02  0.63664085587E+02  0.00000000000E+00 0. -1.
        -12    1    6    6    0    0  0.49495590168E+02 -0.32445317996E+02  0.37792479517E+01  0.59302570105E+02  0.00000000000E+00 0.  1.
</event>
<event>
12    1  0.8313893E-002  0.1822093E+03  0.7818608E-02  0.1167076E+00
         21   -1    0    0  503  502  0.00000000000E+00  0.00000000000E+00  0.14256444526E+03  0.14256444526E+03  0.00000000000E+00 0. -1.
         21   -1    0    0  501  503 -0.00000000000E+00 -0.00000000000E+00 -0.13531708720E+04  0.13531708720E+04  0.00000000000E+00 0. -1.
          6    2    1    2  501    0 -0.21587338988E+02 -0.38661864531E+02 -0.12863599334E+04  0.12984060728E+04  0.17080895374E+03 0.  0.
         24    2    3    3    0    0 -0.63764090579E+02  0.22612852237E+02 -0.57411512609E+03  0.58227185018E+03  0.69678756918E+02 0.  0.
         -6    2    1    2    0  502  0.21587338988E+02  0.38661864531E+02  0.75753506740E+02  0.19732924438E+03  0.17674694886E+03 0.  0.
        -24    2    5    5    0    0  0.50823358464E+02 -0.10603966064E+02 -0.92349108286E+01  0.94728133177E+02  0.78693568831E+02 0.  0.
          5    1    3    3  501    0  0.42176751591E+02 -0.61274716769E+02 -0.71224480734E+03  0.71613422267E+03  0.47000000000E+01 0. -1.
        -13    1    4    4    0    0 -0.27240984694E+02  0.25606121892E+02 -0.10029249238E+03  0.10703424103E+03  0.00000000000E+00 0.  1.
         14    1    4    4    0    0 -0.36523105884E+02 -0.29932696548E+01 -0.47382263372E+03  0.47523760915E+03  0.00000000000E+00 0. -1.
         -5    1    5    5    0  502 -0.29236019477E+02  0.49265830596E+02  0.84988417568E+02  0.10260111120E+03  0.47000000000E+01 0.  1.
         13    1    6    6    0    0  0.47711138346E+01 -0.25897788339E+02  0.24227997285E+02  0.35783443386E+02  0.00000000000E+00 0. -1.
        -14    1    6    6    0    0  0.46052244630E+02  0.15293822275E+02 -0.33462908114E+02  0.58944689792E+02  0.00000000000E+00 0.  1.
</event>
<event>
12    1  0.8313893E-002  0.1913321E+03  0.7818608E-02  0.1157399E+00
         21   -1    0    0  501  502  0.00000000000E+00  0.00000000000E+00  0.71207580452E+03  0.71207580452E+03  0.00000000000E+00 0. -1.
         21   -1    0    0  502  503 -0.00000000000E+00 -0.00000000000E+00 -0.36771805154E+03  0.36771805154E+03  0.00000000000E+00 0.  1.
         -6    2    1    2    0  503 -0.83395324515E+02  0.14223170352E+01 -0.32872078753E+03  0.38004910982E+03  0.17153182384E+03 0.  0.
        -24    2    3    3    0    0 -0.91661586218E+02 -0.15201486898E+02 -0.12623941425E+03  0.17666406007E+03  0.81491526049E+02 0.  0.
          6    2    1    2  501    0  0.83395324515E+02 -0.14223170352E+01  0.67307854051E+03  0.69974474624E+03  0.17219519464E+03 0.  0.
         24    2    5    5    0    0  0.45386924852E+02  0.52277608835E+02  0.24898184206E+03  0.27054966225E+03  0.80076468051E+02 0.  0.
          5    1    5    5  501    0  0.38008399663E+02 -0.53699925871E+02  0.42409669845E+03  0.42919508399E+03  0.47000000000E+01 0. -1.
        -11    1    6    6    0    0  0.39128985295E+02  0.26936707611E+02  0.46783628852E+02  0.66673620238E+02  0.00000000000E+00 0.  1.
         12    1    6    6    0    0  0.62579395577E+01  0.25340901224E+02  0.20219821321E+03  0.20387604201E+03  0.00000000000E+00 0. -1.
         -5    1    3    3    0  503  0.82662617030E+01  0.16623803934E+02 -0.20248137328E+03  0.20338504976E+03  0.47000000000E+01 0.  1.
         13    1    4    4    0    0  0.13062416108E+02 -0.12017248764E+02 -0.27275549643E+02  0.32542227809E+02  0.00000000000E+00 0. -1.
        -14    1    4    4    0    0 -0.10472400233E+03 -0.31842381339E+01 -0.98963864605E+02  0.14412183226E+03  0.00000000000E+00 0.  1.
</event>
<event>
12    1  0.8313893E-002  0.1855557E+03  0.7818608E-02  0.1166058E+00
         21   -1    0    0  503  502  0.00000000000E+00  0.00000000000E+00  0.87588415178E+02  0.87588415178E+02  0.00000000000E+00 0. -1.
         21   -1    0    0  501  503 -0.00000000000E+00 -0.00000000000E+00 -0.37177094958E+03  0.37177094958E+03  0.00000000000E+00 0. -1.
          6    2    1    2  501    0 -0.62247876529E+02 -0.34599116056E+02 -0.18308954122E+03  0.26067741269E+03  0.17134478813E+03 0.  0.
         24    2    3    3    0    0  0.23426035619E+02 -0.57674934810E+00 -0.46968371034E+02  0.96212815794E+02  0.80633530623E+02 0.  0.
         -6    2    1    2    0  502  0.62247876529E+02  0.34599116056E+02 -0.10109299318E+03  0.19868195207E+03  0.15550828866E+03 0.  0.
        -24    2    5    5    0    0  0.63491462999E+02  0.41720332723E+01 -0.12390316452E+03  0.16034466225E+03  0.79434531518E+02 0.  0.
          5    1    3    3  501    0 -0.85673912148E+02 -0.34022366708E+02 -0.13612117019E+03  0.16446459690E+03  0.47000000000E+01 0. -1.
        -11    1    4    4    0    0  0.42987031588E+01  0.23800979506E+02  0.13911208916E+02  0.27901383618E+02  0.00000000000E+00 0.  1.
         12    1    4    4    0    0  0.19127332461E+02 -0.24377728854E+02 -0.60879579950E+02  0.68311432176E+02  0.00000000000E+00 0. -1.
         -5    1    5    5    0  502 -0.12435864697E+01  0.30427082784E+02  0.22810171343E+02  0.38337289820E+02  0.47000000000E+01 0.  1.
         11    1    6    6    0    0  0.45801665003E+02  0.30542400461E+02 -0.33302347530E+02  0.64340322458E+02  0.00000000000E+00 0. -1.
        -12    1    6    6    0    0  0.17689797995E+02 -0.26370367189E+02 -0.90600816995E+02  0.96004339792E+02  0.00000000000E+00 0.  1.
</event>
<event>
12    1  0.8313893E-002  0.2054549E+03  0.7818608E-02  0.1145256E+00
         21   -1    0    0  503  502  0.00000000000E+00  0.00000000000E+00  0.49096895719E+03  0.49096895719E+03  0.00000000000E+00 0. -1.
         21   -1    0    0  501  503 -0.00000000000E+00 -0.00000000000E+00 -0.10070827408E+03  0.10070827408E+03  0.00000000000E+00 0.  1.
          6    2    1    2  501    0  0.95505856328E+02  0.54633431570E+02  0.30866347524E+03  0.37078950598E+03  0.17350947052E+03 0.  0.
         24    2    3    3    0    0  0.89341073447E+02 -0.28160909988E+02  0.18592444027E+03  0.22253341590E+03  0.78602540955E+02 0.  0.
         -6    2    1    2    0  502 -0.95505856328E+02 -0.54633431570E+02  0.81597207872E+02  0.22088772528E+03  0.17328330101E+03 0.  0.
        -24    2    5    5    0    0  0.14068216002E+02 -0.40843028226E+02  0.51194785773E+02  0.10624458410E+03  0.82467799190E+02 0.  0.
          5    1    3    3  501    0  0.61647828814E+01  0.82794341559E+02  0.12273903497E+03  0.14825609008E+03  0.47000000000E+01 0. -1.
        -13    1    4    4    0    0  0.16017767104E+02 -0.33705671465E+02  0.23136740303E+02  0.43908426341E+02  0.00000000000E+00 0.  1.
         14    1    4    4    0    0  0.73323306343E+02  0.55447614764E+01  0.16278769997E+03  0.17862498956E+03  0.00000000000E+00 0. -1.
         -5    1    5    5    0  502 -0.10957407233E+03 -0.13790403345E+02  0.30402422099E+02  0.11464314119E+03  0.47000000000E+01 0.  1.
         11    1    6    6    0    0  0.28390479779E+02 -0.16083168882E+02  0.66302165056E+02  0.73896310831E+02  0.00000000000E+00 0. -1.
        -12    1    6    6    0    0 -0.14322263778E+02 -0.24759859344E+02 -0.15107379282E+02  0.32348273265E+02  0.00000000000E+00 0.  1.
</event>
<event>
12    1  0.8313893E-002  0.2106179E+03  0.7818608E-02  0.1141182E+00
         21   -1    0    0  503  502  0.00000000000E+00  0.00000000000E+00  0.12925594682E+04  0.12925594682E+04  0.00000000000E+00 0. -1.
         21   -1    0    0  501  503 -0.00000000000E+00 -0.00000000000E+00 -0.13098960301E+03  0.13098960301E+03  0.00000000000E+00 0. -1.
          6    2    1    2  501    0 -0.99925429416E+02 -0.68132531091E+02 -0.30759513741E+02  0.21285216708E+03  0.17243191151E+03 0.  0.
         24    2    3    3    0    0  0.47777336587E+01 -0.57703099171E+02 -0.41876126875E+02  0.10694090943E+03  0.79563017261E+02 0.  0.
         -6    2    1    2    0  502  0.99925429416E+02  0.68132531091E+02  0.11923293789E+04  0.12106969041E+04  0.17178624088E+03 0.  0.
        -24    2    5    5    0    0  0.11176341932E+03  0.66845991913E+00  0.65688613278E+03  0.67086998857E+03  0.77946400777E+02 0.  0.
          5    1    3    3  501    0 -0.10470316307E+03 -0.10429431920E+02  0.11116613134E+02  0.10591125764E+03  0.47000000000E+01 0. -1.
        -11    1    4    4    0    0 -0.64417281479E+01 -0.72460597506E+01  0.22430119014E+02  0.24435864675E+02  0.00000000000E+00 0.  1.
         12    1    4    4    0    0  0.11219461807E+02 -0.50457039421E+02 -0.64306245889E+02  0.82505044759E+02  0.00000000000E+00 0. -1.
         -5    1    5    5    0  502 -0.11837989900E+02  0.67464071172E+02  0.53544324615E+03  0.53982691555E+03  0.47000000000E+01 0.  1.
         11    1    6    6    0    0  0.64600975677E+02 -0.18837823905E+02  0.52761166880E+03  0.53188553536E+03  0.00000000000E+00 0. -1.
        -12    1    6    6    0    0  0.47162443639E+02  0.19506283824E+02  0.12927446398E+03  0.13898445322E+03  0.00000000000E+00 0.  1.
</event>
<event>
12    1  0.8313893E-002  0.1843908E+03  0.7818608E-02  0.1163726E+00
         21   -1    0    0  503  502  0.00000000000E+00  0.00000000000E+00  0.22985278975E+03  0.22985278975E+03  0.00000000000E+00 0. -1.
         21   -1    0    0  501  503 -0.00000000000E+00 -0.00000000000E+00 -0.22566667779E+03  0.22566667779E+03  0.00000000000E+00 0. -1.
          6    2    1    2  501    0  0.29478826748E+02 -0.57917130219E+02 -0.13190506737E+03  0.22634533543E+03  0.17207518379E+03 0.  0.
         24    2    3    3    0    0  0.35309750717E+02 -0.10490622262E+03 -0.93648126305E+02  0.16529078590E+03  0.79366102978E+02 0.  0.
         -6    2    1    2    0  502 -0.29478826748E+02  0.57917130219E+02  0.13609117932E+03  0.22917413210E+03  0.17255891323E+03 0.  0.
        -24    2    5    5    0    0 -0.76418730071E+01  0.10490610643E+03  0.10160273021E+03  0.16675330580E+03  0.80124033958E+02 0.  0.
          5    1    3    3  501    0 -0.58309239686E+01  0.46989092406E+02 -0.38256941062E+02  0.61054549535E+02  0.47000000000E+01 0. -1.
        -13    1    4    4    0    0  0.27185647252E+02 -0.20157638176E+02  0.58437236539E+01  0.34344415842E+02  0.00000000000E+00 0.  1.
         14    1    4    4    0    0  0.81241034643E+01 -0.84748584449E+02 -0.99491849959E+02  0.13094637006E+03  0.00000000000E+00 0. -1.
         -5    1    5    5    0  502 -0.21836953741E+02 -0.46988976214E+02  0.34488449113E+02  0.62420826304E+02  0.47000000000E+01 0.  1.
         11    1    6    6    0    0 -0.29002276889E+02  0.86638552151E+02  0.10413473061E+03  0.13853307512E+03  0.00000000000E+00 0. -1.
        -12    1    6    6    0    0  0.21360403882E+02  0.18267554281E+02 -0.25320003963E+01  0.28220230676E+02  0.00000000000E+00 0.  1.
</event>
<event>
12    1  0.8313893E-002  0.1915956E+03  0.7818608E-02  0.1157498E+00
         21   -1    0    0  503  502  0.00000000000E+00  0.00000000000E+00  0.68809213048E+03  0.68809213048E+03  0.00000000000E+00 0. -1.
         21   -1    0    0  501  503 -0.00000000000E+00 -0.00000000000E+00 -0.13071216810E+03  0.13071216810E+03  0.00000000000E+00 0.  1.
          6    2    1    2  501    0 -0.46572071931E+02 -0.68722779464E+02 -0.38063602485E+02  0.19329497409E+03  0.17035941675E+03 0.  0.
         24    2    3    3    0    0  0.93754834855E+01 -0.56960307759E+02 -0.76566394141E+02  0.12420778524E+03  0.78947988277E+02 0.  0.
         -6    2    1    2    0  502  0.46572071931E+02  0.68722779464E+02  0.59544356486E+03  0.62550932449E+03  0.17267628034E+03 0.  0.
        -24    2    5    5    0    0  0.67937492760E+02  0.26474884274E+01  0.47845773277E+03  0.48938364652E+03  0.77149460912E+02 0.  0.
          5    1    3    3  501    0 -0.55947555416E+02 -0.11762471704E+02  0.38502791656E+02  0.69087188848E+02  0.47000000000E+01 0. -1.
        -13    1    4    4    0    0 -0.60214709462E+01 -0.69417906338E+02 -0.34586171345E+02  0.77790147712E+02  0.00000000000E+00 0.  1.
         14    1    4    4    0    0  0.15396954432E+02  0.12457598579E+02 -0.41980222796E+02  0.46417637533E+02  0.00000000000E+00 0. -1.
         -5    1    5    5    0  502 -0.21365420830E+02  0.66075291036E+02  0.11698583209E+03  0.13612567797E+03  0.47000000000E+01 0.  1.
         13    1    6    6    0    0  0.63944421316E+01 -0.22037603467E+02  0.26185509667E+03  0.26285858652E+03  0.00000000000E+00 0. -1.
        -14    1    6    6    0    0  0.61543050629E+02  0.24685091895E+02  0.21660263610E+03  0.22652506000E+03  0.00000000000E+00 0.  1.
</event>
<event>
12    1  0.8313893E-002  0.1753233E+03  0.7818608E-02  0.1172425E+00
         21   -1    0    0  503  502  0.00000000000E+00  0.00000000000E+00  0.31770380572E+02  0.31770380572E+02  0.00000000000E+00 0. -1.
         21   -1    0    0  501  503 -0.00000000000E+00 -0.00000000000E+00 -0.10879572488E+04  0.10879572488E+04  0.00000000000E+00 0. -1.
          6    2    1    2  501    0  0.28748621053E+02  0.15173512989E+02 -0.71458164826E+03  0.73575835904E+03  0.17221124283E+03 0.  0.
         24    2    3    3    0    0  0.64228576282E+02  0.59513545119E+02 -0.54426912358E+03  0.55616628868E+03  0.73653850680E+02 0.  0.
         -6    2    1    2    0  502 -0.28748621053E+02 -0.15173512989E+02 -0.34160521995E+03  0.38396927031E+03  0.17228335828E+03 0.  0.
        -24    2    5    5    0    0 -0.58112581436E+01  0.61232547099E+02 -0.20208896655E+03  0.22318717057E+03  0.72037262306E+02 0.  0.
          5    1    3    3  501    0 -0.35479955229E+02 -0.44340032130E+02 -0.17031252468E+03  0.17959207036E+03  0.47000000000E+01 0. -1.
        -13    1    4    4    0    0  0.37203370699E+02  0.58756876411E+02 -0.21903374574E+03  0.22980914492E+03  0.00000000000E+00 0.  1.
         14    1    4    4    0    0  0.27025205583E+02  0.75666870822E+00 -0.32523537784E+03  0.32635714376E+03  0.00000000000E+00 0. -1.
         -5    1    5    5    0  502 -0.22937362909E+02 -0.76406060088E+02 -0.13951625340E+03  0.16078209974E+03  0.47000000000E+01 0.  1.
         11    1    6    6    0    0  0.22827755445E+02  0.38623781884E+02 -0.51781892368E+02  0.68514723402E+02  0.00000000000E+00 0. -1.
        -12    1    6    6    0    0 -0.28639013589E+02  0.22608765215E+02 -0.15030707418E+03  0.15467244717E+03  0.00000000000E+00 0.  1.
</event>
<event>
12    1  0.8313893E-002  0.2223802E+03  0.7818608E-02  0.1132300E+00
         21   -1    0    0  501  502  0.00000000000E+00  0.00000000000E+00  0.67301226240E+02  0.67301226240E+02  0.00000000000E+00 0.  1.
         21   -1    0    0  502  503 -0.00000000000E+00 -0.00000000000E+00 -0.12863399013E+04  0.12863399013E+04  0.00000000000E+00 0.  1.
         -6    2    1    2    0  503  0.13967578351E+03 -0.12167317014E+02 -0.10547469734E+04  0.10779351286E+04  0.17261400755E+03 0.  0.
        -24    2    3    3    0    0  0.15801731315E+02 -0.17275972806E+02 -0.16672750676E+03  0.18129052665E+03  0.67231239737E+02 0.  0.
          6    2    1    2  501    0 -0.13967578351E+03  0.12167317014E+02 -0.16429170175E+03  0.27570599897E+03  0.17136121645E+03 0.  0.
         24    2    5    5    0    0 -0.15099503618E+03  0.38651741580E+02 -0.90806312000E+02  0.19663803622E+03  0.78276898977E+02 0.  0.
          5    1    5    5  501    0  0.11319252673E+02 -0.26484424566E+02 -0.73485389751E+02  0.79067962745E+02  0.47000000000E+01 0. -1.
        -13    1    6    6    0    0 -0.84997180606E+02  0.59220775106E+02 -0.40891601810E+02  0.11137209711E+03  0.00000000000E+00 0.  1.
         14    1    6    6    0    0 -0.65997855572E+02 -0.20569033527E+02 -0.49914710190E+02  0.85265939118E+02  0.00000000000E+00 0. -1.
         -5    1    3    3    0  503  0.12387405219E+03  0.51086557926E+01 -0.88801946660E+03  0.89664460197E+03  0.47000000000E+01 0.  1.
         13    1    4    4    0    0 -0.26212172073E+02 -0.59778312359E+01 -0.50946180531E+02  0.57604910744E+02  0.00000000000E+00 0. -1.
        -14    1    4    4    0    0  0.42013903388E+02 -0.11298141570E+02 -0.11578132622E+03  0.12368561591E+03  0.00000000000E+00 0.  1.
</event>
<event>
12    1  0.8313893E-002  0.2427613E+03  0.7818608E-02  0.1118687E+00
         21   -1    0    0  503  502  0.00000000000E+00  0.00000000000E+00  0.22318634596E+03  0.22318634596E+03  0.00000000000E+00 0.  1.
         21   -1    0    0  501  503 -0.00000000000E+00 -0.00000000000E+00 -0.26752783069E+03  0.26752783069E+03  0.00000000000E+00 0.  1.
          6    2    1    2  501    0 -0.29971092903E+02  0.16277072913E+03  0.20535400233E+02  0.24362835427E+03  0.17759644048E+03 0.  0.
         24    2    3    3    0    0 -0.82465086632E+02  0.81713748595E+02 -0.39917112944E+01  0.14388106022E+03  0.84901110164E+02 0.  0.
         -6    2    1    2    0  502  0.29971092903E+02 -0.16277072913E+03 -0.64876884969E+02  0.24708582238E+03  0.17160948909E+03 0.  0.
        -24    2    5    5    0    0  0.27491175012E+02 -0.14756885411E+03 -0.10719302579E+03  0.20180897652E+03  0.81879098802E+02 0.  0.
          5    1    3    3  501    0  0.52493993730E+02  0.81056980538E+02  0.24527111528E+02  0.99747294056E+02  0.47000000000E+01 0. -1.
        -11    1    4    4    0    0 -0.58947748210E+01  0.64315530616E+02 -0.89517114559E+01  0.65202522855E+02  0.00000000000E+00 0.  1.
         12    1    4    4    0    0 -0.76570311811E+02  0.17398217979E+02  0.49600001615E+01  0.78678537361E+02  0.00000000000E+00 0. -1.
         -5    1    5    5    0  502  0.24799178911E+01 -0.15201875024E+02  0.42316140818E+02  0.45276845857E+02  0.47000000000E+01 0.  1.
         11    1    6    6    0    0 -0.20318880456E+02 -0.56872474120E+01 -0.10383932568E+02  0.23516541873E+02  0.00000000000E+00 0. -1.
        -12    1    6    6    0    0  0.47810055467E+02 -0.14188160670E+03 -0.96809093219E+02  0.17829243465E+03  0.00000000000E+00 0.  1.
</event>
