<event>
12    1  0.2685360E-002  0.1724518E+03  0.7818608E-02  0.1175315E+00
          1   -1    0    0  502    0  0.00000000000E+00  0.00000000000E+00  0.17379011618E+04  0.17379011618E+04  0.00000000000E+00 0.  1.
         -1   -1    0    0    0  501 -0.00000000000E+00 -0.00000000000E+00 -0.18494285311E+02  0.18494285311E+02  0.00000000000E+00 0. -1.
          6    2    1    2  502    0  0.15234812822E+01 -0.31107832928E+02  0.62521981891E+03  0.64888614361E+03  0.17083145830E+03 0.  0.
         24    2    3    3    0    0  0.56420664654E+02  0.13328867629E+02  0.29067534462E+03  0.30693524600E+03  0.79725398428E+02 0.  0.
         -6    2    1    2    0  501 -0.15234812822E+01  0.31107832928E+02  0.10941870576E+04  0.11075093035E+04  0.16840879461E+03 0.  0.
        -24    2    5    5    0    0 -0.36512805849E+02 -0.33380511043E+02  0.52121254228E+03  0.52983735115E+03  0.81349007024E+02 0.  0.
          5    1    3    3  502    0 -0.54897183372E+02 -0.44436700557E+02  0.33454447429E+03  0.34195089761E+03  0.47000000000E+01 0. -1.
        -11    1    4    4    0    0 -0.22366445857E+01  0.29909316632E+02  0.15941350968E+03  0.16221047090E+03  0.00000000000E+00 0.  1.
         12    1    4    4    0    0  0.58657309240E+02 -0.16580449003E+02  0.13126183494E+03  0.14472477510E+03  0.00000000000E+00 0. -1.
         -5    1    5    5    0  501  0.34989324567E+02  0.64488343971E+02  0.57297451528E+03  0.57767195232E+03  0.47000000000E+01 0.  1.
         13    1    6    6    0    0 -0.35616498617E+02  0.13672477355E+02  0.12111614861E+03  0.12698264867E+03  0.00000000000E+00 0. -1.
        -14    1    6    6    0    0 -0.89630723240E+00 -0.47052988398E+02  0.40009639367E+03  0.40285470248E+03  0.00000000000E+00 0.  1.
</event>
<event>
12    1  0.2685360E-002  0.2043436E+03  0.7818608E-02  0.1146125E+00
         -1   -1    0    0    0  501 -0.00000000000E+00  0.00000000000E+00  0.32954227021E+02  0.32954227021E+02  0.00000000000E+00 0.  1.
          1   -1    0    0  502    0  0.00000000000E+00 -0.00000000000E+00 -0.12965891967E+04  0.12965891967E+04  0.00000000000E+00 0. -1.
          6    2    1    2  502    0 -0.10652373604E+03  0.26869557141E+02 -0.53097999349E+03  0.56887331949E+03  0.17206923229E+03 0.  0.
         24    2    3    3    0    0 -0.72843703973E+01 -0.32369776112E+02 -0.22423635994E+03  0.24104486279E+03  0.81974485678E+02 0.  0.
         -6    2    1    2    0  501  0.10652373604E+03 -0.26869557141E+02 -0.73265497624E+03  0.76067010428E+03  0.17252945805E+03 0.  0.
        -24    2    5    5    0    0  0.12829995203E+03 -0.33047943747E+02 -0.71224123408E+03  0.72982878601E+03  0.88371019432E+02 0.  0.
          5    1    3    3  502    0 -0.99239365644E+02  0.59239333253E+02 -0.30674363355E+03  0.32782845670E+03  0.47000000000E+01 0. -1.
        -11    1    4    4    0    0 -0.58728579837E+01 -0.36772256775E+02 -0.33010917005E+02  0.49763540577E+02  0.00000000000E+00 0.  1.
         12    1    4    4    0    0 -0.14115124136E+01  0.44024806631E+01 -0.19122544293E+03  0.19128132221E+03  0.00000000000E+00 0. -1.
         -5    1    5    5    0  501 -0.21776215993E+02  0.61783866059E+01 -0.20413742152E+02  0.30841318271E+02  0.47000000000E+01 0.  1.
         13    1    6    6    0    0  0.76638887431E+01 -0.37387533091E+02 -0.19342471618E+03  0.19715395926E+03  0.00000000000E+00 0. -1.
        -14    1    6    6    0    0  0.12063606329E+03  0.43395893445E+01 -0.51881651790E+03  0.53267482675E+03  0.00000000000E+00 0.  1.
</event>
<event>
12    1  0.2685360E-002  0.2289767E+03  0.7818608E-02  0.1127362E+00
          2   -1    0    0  502    0  0.00000000000E+00  0.00000000000E+00  0.33805745397E+04  0.33805745397E+04  0.00000000000E+00 0. -1.
         -2   -1    0    0    0  501 -0.00000000000E+00 -0.00000000000E+00 -0.37956112983E+02  0.37956112983E+02  0.00000000000E+00 0.  1.
          6    2    1    2  502    0  0.13384857506E+03 -0.69264590421E+02  0.29886425758E+04  0.29974756902E+04  0.17367510751E+03 0.  0.
         24    2    3    3    0    0  0.32056943360E+02  0.25516299886E+02  0.99978112769E+03  0.10037513103E+04  0.79219065693E+02 0.  0.
         -6    2    1    2    0  501 -0.13384857506E+03  0.69264590421E+02  0.35397585099E+03  0.42105496255E+03  0.17110042043E+03 0.  0.
        -24    2    5    5    0    0 -0.14682814981E+03  0.94637963700E+02  0.26504285082E+03  0.32754856731E+03  0.80780575781E+02 0.  0.
          5    1    3    3  502    0  0.10179163170E+03 -0.94780890307E+02  0.19888614481E+04  0.19937243799E+04  0.47000000000E+01 0. -1.
        -13    1    4    4    0    0  0.43377048909E+02  0.31851991695E+02  0.37563478704E+03  0.37947017140E+03  0.00000000000E+00 0.  1.
         14    1    4    4    0    0 -0.11320105549E+02 -0.63356918086E+01  0.62414634065E+03  0.62428113885E+03  0.00000000000E+00 0. -1.
         -5    1    5    5    0  501  0.12979574749E+02 -0.25373373279E+02  0.88933000168E+02  0.93506395242E+02  0.47000000000E+01 0.  1.
         13    1    6    6    0    0 -0.46025681865E+02  0.26367609946E+02  0.15359116422E+03  0.16249264590E+03  0.00000000000E+00 0. -1.
        -14    1    6    6    0    0 -0.10080246795E+03  0.68270353754E+02  0.11145168661E+03  0.16505592141E+03  0.00000000000E+00 0.  1.
</event>
<event>
12    1  0.2685360E-002  0.1961293E+03  0.7818608E-02  0.1153046E+00
          2   -1    0    0  502    0  0.00000000000E+00  0.00000000000E+00  0.43415804034E+03  0.43415804034E+03  0.00000000000E+00 0.  1.
         -2   -1    0    0    0  501 -0.00000000000E+00 -0.00000000000E+00 -0.10261086933E+03  0.10261086933E+03  0.00000000000E+00 0. -1.
          6    2    1    2  502    0  0.59385998584E+02  0.73868370264E+02  0.26503239530E+03  0.32978229188E+03  0.17184573468E+03 0.  0.
         24    2    3    3    0    0  0.42045651477E+02  0.85246970892E+02  0.27824488348E+03  0.30474591766E+03  0.80093547131E+02 0.  0.
         -6    2    1    2    0  501 -0.59385998584E+02 -0.73868370264E+02  0.66514775713E+02  0.20698661779E+03  0.17156926182E+03 0.  0.
        -24    2    5    5    0    0 -0.81942833596E+02 -0.87856443668E+02  0.89128530550E+02  0.17180211962E+03  0.84490772730E+02 0.  0.
          5    1    3    3  502    0  0.17340347107E+02 -0.11378600629E+02 -0.13212488184E+02  0.25036374220E+02  0.47000000000E+01 0. -1.
        -11    1    4    4    0    0  0.33709054639E+02  0.98545328366E+02  0.26297282358E+03  0.28284658041E+03  0.00000000000E+00 0.  1.
         12    1    4    4    0    0  0.83365968386E+01 -0.13298357474E+02  0.15272059898E+02  0.21899337248E+02  0.00000000000E+00 0. -1.
         -5    1    5    5    0  501  0.22556835012E+02  0.13988073405E+02 -0.22613754837E+02  0.35184498165E+02  0.47000000000E+01 0.  1.
         13    1    6    6    0    0 -0.88893396721E+01 -0.37402642799E+02 -0.89863746049E+01  0.39480792503E+02  0.00000000000E+00 0. -1.
        -14    1    6    6    0    0 -0.73053493924E+02 -0.50453800870E+02  0.98114905155E+02  0.13232132712E+03  0.00000000000E+00 0.  1.
</event>
<event>
12    1  0.2685360E-002  0.1974922E+03  0.7818608E-02  0.1151872E+00
         -2   -1    0    0    0  501 -0.00000000000E+00  0.00000000000E+00  0.11956652190E+03  0.11956652190E+03  0.00000000000E+00 0.  1.
          2   -1    0    0  502    0  0.00000000000E+00 -0.00000000000E+00 -0.39863072198E+03  0.39863072198E+03  0.00000000000E+00 0. -1.
          6    2    1    2  502    0 -0.65089860485E+02  0.72107942615E+02 -0.29142382209E+02  0.19971683890E+03  0.17205026002E+03 0.  0.
         24    2    3    3    0    0 -0.11075766589E+03  0.50084192349E+02 -0.31397341675E+02  0.14874852651E+03  0.79778720197E+02 0.  0.
         -6    2    1    2    0  501  0.65089860485E+02 -0.72107942615E+02 -0.24992181788E+03  0.31848040498E+03  0.17185053964E+03 0.  0.
        -24    2    5    5    0    0 -0.29559888916E+02 -0.54936374925E+02 -0.12722789910E+03  0.16250179906E+03  0.79549381301E+02 0.  0.
          5    1    3    3  502    0  0.45667805407E+02  0.22023750266E+02  0.22549594661E+01  0.50968312398E+02  0.47000000000E+01 0. -1.
        -11    1    4    4    0    0 -0.85353055213E+01  0.14692620994E+02  0.22253721137E+02  0.27999154567E+02  0.00000000000E+00 0.  1.
         12    1    4    4    0    0 -0.10222236037E+03  0.35391571355E+02 -0.53651062812E+02  0.12074937194E+03  0.00000000000E+00 0. -1.
         -5    1    5    5    0  501  0.94649749401E+02 -0.17171567690E+02 -0.12269391878E+03  0.15597860592E+03  0.47000000000E+01 0.  1.
         13    1    6    6    0    0  0.17455761128E+02 -0.29278446183E+01 -0.69396834171E+02  0.71618408692E+02  0.00000000000E+00 0. -1.
        -14    1    6    6    0    0 -0.47015650043E+02 -0.52008530307E+02 -0.57831064926E+02  0.90883390364E+02  0.00000000000E+00 0.  1.
</event>
<event>
12    1  0.2685360E-002  0.1768555E+03  0.7818608E-02  0.1170881E+00
         -1   -1    0    0    0  501 -0.00000000000E+00  0.00000000000E+00  0.39138175615E+02  0.39138175615E+02  0.00000000000E+00 0.  1.
          1   -1    0    0  502    0  0.00000000000E+00 -0.00000000000E+00 -0.87543431399E+03  0.87543431399E+03  0.00000000000E+00 0. -1.
          6    2    1    2  502    0 -0.24782578472E+02  0.18622004059E+02 -0.54716670784E+03  0.57422686747E+03  0.17141800934E+03 0.  0.
         24    2    3    3    0    0 -0.29696900236E+02 -0.20947927477E+02 -0.51592997620E+03  0.52335690144E+03  0.79987401502E+02 0.  0.
         -6    2    1    2    0  501  0.24782578472E+02 -0.18622004059E+02 -0.28912943053E+03  0.34034562213E+03  0.17685689037E+03 0.  0.
        -24    2    5    5    0    0 -0.43152120085E+02 -0.48028035500E+02 -0.13726431315E+03  0.17133396031E+03  0.79655738210E+02 0.  0.
          5    1    3    3  502    0  0.49143217633E+01  0.39569931535E+02 -0.31236731643E+02  0.50869966030E+02  0.47000000000E+01 0. -1.
        -11    1    4    4    0    0  0.15521940640E+02 -0.35066268515E+02 -0.28916819016E+03  0.29169987320E+03  0.00000000000E+00 0.  1.
         12    1    4    4    0    0 -0.45218840875E+02  0.14118341038E+02 -0.22676178604E+03  0.23165702824E+03  0.00000000000E+00 0. -1.
         -5    1    5    5    0  501  0.67934698557E+02  0.29406031442E+02 -0.15186511738E+03  0.16901166182E+03  0.47000000000E+01 0.  1.
         11    1    6    6    0    0 -0.23960944452E+02 -0.42996869417E+02 -0.14254434677E+03  0.15080367513E+03  0.00000000000E+00 0. -1.
        -12    1    6    6    0    0 -0.19191175633E+02 -0.50311660838E+01  0.52800336204E+01  0.20530285175E+02  0.00000000000E+00 0.  1.
</event>
<event>
12    1  0.2685360E-002  0.1936643E+03  0.7818608E-02  0.1155197E+00
          2   -1    0    0  502    0  0.00000000000E+00  0.00000000000E+00  0.64649925678E+03  0.64649925678E+03  0.00000000000E+00 0.  1.
         -2   -1    0    0    0  501 -0.00000000000E+00 -0.00000000000E+00 -0.76190075027E+02  0.76190075027E+02  0.00000000000E+00 0. -1.
          6    2    1    2  502    0 -0.66828737114E+02  0.15060320449E+02  0.99360687480E+02  0.20992233743E+03  0.17176131165E+03 0.  0.
         24    2    3    3    0    0  0.20783670614E+02  0.32887474907E+02  0.25526979320E+02  0.93873865294E+02  0.81529926665E+02 0.  0.
         -6    2    1    2    0  501  0.66828737114E+02 -0.15060320449E+02  0.47094849428E+03  0.51276699438E+03  0.19090472207E+03 0.  0.
        -24    2    5    5    0    0  0.28995290925E+02  0.63955688375E+02  0.32724014836E+03  0.34439514998E+03  0.81184035751E+02 0.  0.
          5    1    3    3  502    0 -0.87612407729E+02 -0.17827154457E+02  0.73833708160E+02  0.11604847213E+03  0.47000000000E+01 0. -1.
        -13    1    4    4    0    0 -0.20674252051E+02  0.29834902682E+01  0.36068660855E+02  0.41680621492E+02  0.00000000000E+00 0.  1.
         14    1    4    4    0    0  0.41457922665E+02  0.29903984638E+02 -0.10541681535E+02  0.52193243802E+02  0.00000000000E+00 0. -1.
         -5    1    5    5    0  501  0.37833446189E+02 -0.79016008824E+02  0.14370834592E+03  0.16837184440E+03  0.47000000000E+01 0.  1.
         11    1    6    6    0    0  0.12033478269E+02 -0.55482066881E+01  0.47690281227E+01  0.14082997761E+02  0.00000000000E+00 0. -1.
        -12    1    6    6    0    0  0.16961812656E+02  0.69503895063E+02  0.32247112023E+03  0.33031215222E+03  0.00000000000E+00 0.  1.
</event>
<event>
12    1  0.2685360E-002  0.2391340E+03  0.7818608E-02  0.1120371E+00
         -2   -1    0    0    0  501 -0.00000000000E+00  0.00000000000E+00  0.15505541078E+03  0.15505541078E+03  0.00000000000E+00 0. -1.
          2   -1    0    0  502    0  0.00000000000E+00 -0.00000000000E+00 -0.37442678184E+03  0.37442678184E+03  0.00000000000E+00 0.  1.
          6    2    1    2  502    0 -0.12370917542E+03 -0.12960439038E+03 -0.13922342120E+03  0.27222510093E+03  0.15040640437E+03 0.  0.
         24    2    3    3    0    0 -0.74417415048E+02 -0.12465160922E+03 -0.53482812377E+02  0.17309009357E+03  0.77613104109E+02 0.  0.
         -6    2    1    2    0  501  0.12370917542E+03  0.12960439038E+03 -0.80147949863E+02  0.25725709170E+03  0.16630171157E+03 0.  0.
        -24    2    5    5    0    0  0.69000668119E+02  0.11074681354E+03  0.51394576281E+01  0.15408412599E+03  0.81789699520E+02 0.  0.
          5    1    3    3  502    0 -0.49291760376E+02 -0.49527811621E+01 -0.85740608823E+02  0.99135007356E+02  0.47000000000E+01 0. -1.
        -11    1    4    4    0    0 -0.49199232392E+02 -0.38640844682E+02 -0.55216456976E+02  0.83441814857E+02  0.00000000000E+00 0.  1.
         12    1    4    4    0    0 -0.25218182656E+02 -0.86010764538E+02  0.17336445988E+01  0.89648278715E+02  0.00000000000E+00 0. -1.
         -5    1    5    5    0  501  0.54708507305E+02  0.18857576843E+02 -0.85287407491E+02  0.10317296571E+03  0.47000000000E+01 0.  1.
         13    1    6    6    0    0  0.45286828864E+02  0.11450984108E+03 -0.13235874756E+02  0.12384905713E+03  0.00000000000E+00 0. -1.
        -14    1    6    6    0    0  0.23713839255E+02 -0.37630275399E+01  0.18375332384E+02  0.30235068856E+02  0.00000000000E+00 0.  1.
</event>
<event>
12    1  0.2685360E-002  0.2149614E+03  0.7818608E-02  0.1137696E+00
          2   -1    0    0  502    0  0.00000000000E+00  0.00000000000E+00  0.89579028130E+03  0.89579028130E+03  0.00000000000E+00 0. -1.
         -2   -1    0    0    0  501 -0.00000000000E+00 -0.00000000000E+00 -0.51730110334E+02  0.51730110334E+02  0.00000000000E+00 0.  1.
          6    2    1    2  502    0 -0.12681608457E+03  0.32523588885E+02  0.39450929161E+03  0.44866647254E+03  0.16889025808E+03 0.  0.
         24    2    3    3    0    0 -0.24810824692E+02  0.12336637797E+02  0.76453101820E+02  0.11401080487E+03  0.79910056914E+02 0.  0.
         -6    2    1    2    0  501  0.12681608457E+03 -0.32523588885E+02  0.44955087936E+03  0.49885391910E+03  0.17210211018E+03 0.  0.
        -24    2    5    5    0    0  0.11517894758E+03  0.36525476091E+02  0.28634749901E+03  0.32120080292E+03  0.81084926079E+02 0.  0.
          5    1    3    3  502    0 -0.10200525988E+03  0.20186951088E+02  0.31805618979E+03  0.33465566767E+03  0.47000000000E+01 0. -1.
        -13    1    4    4    0    0  0.12753030204E+02  0.37027919121E+02  0.41566146395E+02  0.57109115734E+02  0.00000000000E+00 0.  1.
         14    1    4    4    0    0 -0.37563854896E+02 -0.24691281324E+02  0.34886955425E+02  0.56901689140E+02  0.00000000000E+00 0. -1.
         -5    1    5    5    0  501  0.11637136989E+02 -0.69049064975E+02  0.16320338035E+03  0.17765311618E+03  0.47000000000E+01 0.  1.
         13    1    6    6    0    0  0.10422390230E+03  0.17334347740E+01  0.17143413392E+03  0.20063720712E+03  0.00000000000E+00 0. -1.
        -14    1    6    6    0    0  0.10955045275E+02  0.34792041317E+02  0.11491336508E+03  0.12056359579E+03  0.00000000000E+00 0.  1.
</event>
<event>
12    1  0.2685360E-002  0.2164988E+03  0.7818608E-02  0.1136521E+00
          2   -1    0    0  502    0  0.00000000000E+00  0.00000000000E+00  0.17418983273E+04  0.17418983273E+04  0.00000000000E+00 0. -1.
         -2   -1    0    0    0  501 -0.00000000000E+00 -0.00000000000E+00 -0.46585405788E+02  0.46585405788E+02  0.00000000000E+00 0.  1.
          6    2    1    2  502    0 -0.12868545107E+03  0.27501710818E+02  0.26633561016E+03  0.34318958276E+03  0.17183754846E+03 0.  0.
         24    2    3    3    0    0 -0.94566739894E+02 -0.97160198256E+01  0.75708701406E+02  0.14593352007E+03  0.80793041016E+02 0.  0.
         -6    2    1    2    0  501  0.12868545107E+03 -0.27501710818E+02  0.14289773113E+04  0.14452941503E+04  0.17199632320E+03 0.  0.
        -24    2    5    5    0    0  0.99946628017E+02  0.24545367106E+02  0.12482230047E+04  0.12549549068E+04  0.79116022504E+02 0.  0.
          5    1    3    3  502    0 -0.34118711177E+02  0.37217730643E+02  0.19062690875E+03  0.19725606269E+03  0.47000000000E+01 0. -1.
        -11    1    4    4    0    0 -0.52871409859E+02  0.34112868322E+02  0.27902892017E+02  0.68830553889E+02  0.00000000000E+00 0.  1.
         12    1    4    4    0    0 -0.41695330034E+02 -0.43828888148E+02  0.47805809388E+02  0.77102966183E+02  0.00000000000E+00 0. -1.
         -5    1    5    5    0  501  0.28738823053E+02 -0.52047077923E+02  0.18075430660E+03  0.19033924352E+03  0.47000000000E+01 0.  1.
         11    1    6    6    0    0  0.20013128150E+02 -0.23330655399E+02  0.50152876244E+03  0.50246984420E+03  0.00000000000E+00 0. -1.
        -12    1    6    6    0    0  0.79933499868E+02  0.47876022505E+02  0.74669424230E+03  0.75248506259E+03  0.00000000000E+00 0.  1.
</event>
<event>
12    1  0.2685360E-002  0.1977467E+03  0.7818608E-02  0.1151654E+00
         -2   -1    0    0    0  501 -0.00000000000E+00  0.00000000000E+00  0.32132149052E+02  0.32132149052E+02  0.00000000000E+00 0. -1.
          2   -1    0    0  502    0  0.00000000000E+00 -0.00000000000E+00 -0.15847534050E+04  0.15847534050E+04  0.00000000000E+00 0.  1.
          6    2    1    2  502    0  0.86781769530E+01  0.87796807468E+02 -0.11784596560E+04  0.11956683228E+04  0.18185705177E+03 0.  0.
         24    2    3    3    0    0 -0.58535313434E+02  0.72640684197E+02 -0.56536309909E+03  0.57869438543E+03  0.80924075462E+02 0.  0.
         -6    2    1    2    0  501 -0.86781769530E+01 -0.87796807468E+02 -0.37416160001E+03  0.42121723127E+03  0.17217277032E+03 0.  0.
        -24    2    5    5    0    0 -0.80950674277E+00 -0.11201049481E+03 -0.18541807607E+03  0.23070626976E+03  0.79363176116E+02 0.  0.
          5    1    3    3  502    0  0.67213490387E+02  0.15156123271E+02 -0.61309655686E+03  0.61697393737E+03  0.47000000000E+01 0. -1.
        -13    1    4    4    0    0 -0.25867472238E+02  0.43466841782E+02 -0.48088064281E+03  0.48353354080E+03  0.00000000000E+00 0.  1.
         14    1    4    4    0    0 -0.32667841195E+02  0.29173842415E+02 -0.84482456289E+02  0.95160844628E+02  0.00000000000E+00 0. -1.
         -5    1    5    5    0  501 -0.78686702102E+01  0.24213687345E+02 -0.18874352394E+03  0.19051096151E+03  0.47000000000E+01 0.  1.
         11    1    6    6    0    0 -0.35143191651E+02 -0.81813542707E+02 -0.10057911890E+03  0.13433040925E+03  0.00000000000E+00 0. -1.
        -12    1    6    6    0    0  0.34333684908E+02 -0.30196952105E+02 -0.84838957166E+02  0.96375860509E+02  0.00000000000E+00 0.  1.
</event>
<event>
12    1  0.2685360E-002  0.1804801E+03  0.7818608E-02  0.1167339E+00
         -1   -1    0    0    0  501 -0.00000000000E+00  0.00000000000E+00  0.70520931027E+02  0.70520931027E+02  0.00000000000E+00 0.  1.
          1   -1    0    0  502    0  0.00000000000E+00 -0.00000000000E+00 -0.51375982033E+03  0.51375982033E+03  0.00000000000E+00 0. -1.
          6    2    1    2  502    0  0.49545267565E+02  0.14636970644E+02 -0.13134824337E+03  0.22504901679E+03  0.17528754797E+03 0.  0.
         24    2    3    3    0    0 -0.28273639675E+02 -0.27783160286E+02 -0.39954475894E+02  0.97651369382E+02  0.79800545752E+02 0.  0.
         -6    2    1    2    0  501 -0.49545267565E+02 -0.14636970644E+02 -0.31189064594E+03  0.35923173457E+03  0.17059510441E+03 0.  0.
        -24    2    5    5    0    0 -0.55376978207E+02  0.49065433033E+02 -0.17762444729E+03  0.21043150882E+03  0.85187729137E+02 0.  0.
          5    1    3    3  502    0  0.77818907240E+02  0.42420130930E+02 -0.91393767473E+02  0.12739764741E+03  0.47000000000E+01 0. -1.
        -13    1    4    4    0    0 -0.20764608719E+01  0.27656574116E+02 -0.10916285841E+02  0.29805420281E+02  0.00000000000E+00 0.  1.
         14    1    4    4    0    0 -0.26197178803E+02 -0.55439734402E+02 -0.29038190053E+02  0.67845949101E+02  0.00000000000E+00 0. -1.
         -5    1    5    5    0  501  0.58317106419E+01 -0.63702403676E+02 -0.13426619864E+03  0.14880022574E+03  0.47000000000E+01 0.  1.
         13    1    6    6    0    0 -0.26631492530E+01  0.13796650021E+01 -0.11691236360E+03  0.11695082984E+03  0.00000000000E+00 0. -1.
        -14    1    6    6    0    0 -0.52713828954E+02  0.47685768030E+02 -0.60712083697E+02  0.93480678979E+02  0.00000000000E+00 0.  1.
</event>
<event>
12    1  0.2685360E-002  0.2813643E+03  0.7818608E-02  0.1094946E+00
          2   -1    0    0  502    0  0.00000000000E+00  0.00000000000E+00  0.87706988631E+03  0.87706988631E+03  0.00000000000E+00 0. -1.
         -2   -1    0    0    0  501 -0.00000000000E+00 -0.00000000000E+00 -0.93976345105E+02  0.93976345105E+02  0.00000000000E+00 0.  1.
          6    2    1    2  502    0  0.12516736164E+03 -0.18417723229E+03  0.48779496904E+03  0.56302043030E+03  0.17163901595E+03 0.  0.
         24    2    3    3    0    0  0.14832634392E+03 -0.13368613406E+03  0.31510385542E+03  0.38155417948E+03  0.80127806898E+02 0.  0.
         -6    2    1    2    0  501 -0.12516736164E+03  0.18417723229E+03  0.29529857216E+03  0.40802580112E+03  0.17232436376E+03 0.  0.
        -24    2    5    5    0    0 -0.15631620290E+03  0.14087983719E+03  0.21314240147E+03  0.30996132683E+03  0.79777547030E+02 0.  0.
          5    1    3    3  502    0 -0.23158982286E+02 -0.50491098224E+02  0.17269111363E+03  0.18146625082E+03  0.47000000000E+01 0. -1.
        -11    1    4    4    0    0  0.97876788710E+02 -0.56972327529E+02  0.11505648368E+03  0.16144257898E+03  0.00000000000E+00 0.  1.
         12    1    4    4    0    0  0.50449555214E+02 -0.76713806532E+02  0.20004737174E+03  0.22011160050E+03  0.00000000000E+00 0. -1.
         -5    1    5    5    0  501  0.31148841264E+02  0.43297395094E+02  0.82156170689E+02  0.98064474283E+02  0.47000000000E+01 0.  1.
         11    1    6    6    0    0 -0.10705517062E+03  0.55920343224E+02  0.15251350493E+03  0.19454630176E+03  0.00000000000E+00 0. -1.
        -12    1    6    6    0    0 -0.49261032282E+02  0.84959493967E+02  0.60628896544E+02  0.11541502507E+03  0.00000000000E+00 0.  1.
</event>
<event>
12    1  0.2685360E-002  0.1981583E+03  0.7818608E-02  0.1151302E+00
         -2   -1    0    0    0  501 -0.00000000000E+00  0.00000000000E+00  0.19545434800E+02  0.19545434800E+02  0.00000000000E+00 0.  1.
          2   -1    0    0  502    0  0.00000000000E+00 -0.00000000000E+00 -0.27584543565E+04  0.27584543565E+04  0.00000000000E+00 0. -1.
          6    2    1    2  502    0  0.14858011845E+02 -0.80057724680E+02 -0.60312943746E+03  0.63218833295E+03  0.17107591938E+03 0.  0.
         24    2    3    3    0    0 -0.30547816915E+02 -0.95212647408E+02 -0.31945505367E+03  0.34446519000E+03  0.81278031865E+02 0.  0.
         -6    2    1    2    0  501 -0.14858011845E+02  0.80057724680E+02 -0.21357794842E+04  0.21458114583E+04  0.19058543934E+03 0.  0.
        -24    2    5    5    0    0 -0.13313305608E+02  0.62009586949E+02 -0.21166007261E+04  0.21190152617E+04  0.78769362601E+02 0.  0.
          5    1    3    3  502    0  0.45405828760E+02  0.15154922728E+02 -0.28367438380E+03  0.28772314295E+03  0.47000000000E+01 0. -1.
        -13    1    4    4    0    0 -0.15740232276E+02 -0.73089172194E+02 -0.10807492818E+03  0.13141526587E+03  0.00000000000E+00 0.  1.
         14    1    4    4    0    0 -0.14807584640E+02 -0.22123475214E+02 -0.21138012549E+03  0.21304992413E+03  0.00000000000E+00 0. -1.
         -5    1    5    5    0  501 -0.15447062368E+01  0.18048137731E+02 -0.19178758154E+02  0.26796196694E+02  0.47000000000E+01 0.  1.
         13    1    6    6    0    0  0.14920964219E+01  0.76526049631E+02 -0.13784579913E+04  0.13805813617E+04  0.00000000000E+00 0. -1.
        -14    1    6    6    0    0 -0.14805402030E+02 -0.14516462682E+02 -0.73814273483E+03  0.73843389995E+03  0.00000000000E+00 0.  1.
</event>
<event>
12    1  0.2685360E-002  0.1738015E+03  0.7818608E-02  0.1173941E+00
          1   -1    0    0  502    0  0.00000000000E+00  0.00000000000E+00  0.70970604898E+02  0.70970604898E+02  0.00000000000E+00 0. -1.
         -1   -1    0    0    0  501 -0.00000000000E+00 -0.00000000000E+00 -0.57865056560E+03  0.57865056560E+03  0.00000000000E+00 0.  1.
          6    2    1    2  502    0  0.11258619743E+02  0.14683282766E+02 -0.41717686458E+03  0.45067162214E+03  0.16948751975E+03 0.  0.
         24    2    3    3    0    0 -0.33465944622E+02  0.14945984483E+02 -0.38631755035E+03  0.39613041804E+03  0.79590869356E+02 0.  0.
         -6    2    1    2    0  501 -0.11258619743E+02 -0.14683282766E+02 -0.90503096124E+02  0.19894954836E+03  0.17620373740E+03 0.  0.
        -24    2    5    5    0    0 -0.45608549069E+02  0.10674668056E+02  0.66912865443E+01  0.92686754603E+02  0.79699265222E+02 0.  0.
          5    1    3    3  502    0  0.44724564366E+02 -0.26270171771E+00 -0.30859314221E+02  0.54541204095E+02  0.47000000000E+01 0. -1.
        -13    1    4    4    0    0  0.17196315761E+02  0.29919072853E+02 -0.16857248824E+03  0.17206843984E+03  0.00000000000E+00 0.  1.
         14    1    4    4    0    0 -0.50662260383E+02 -0.14973088370E+02 -0.21774506211E+03  0.22406197821E+03  0.00000000000E+00 0. -1.
         -5    1    5    5    0  501  0.34349929325E+02 -0.25357950821E+02 -0.97194382668E+02  0.10626279376E+03  0.47000000000E+01 0.  1.
         11    1    6    6    0    0 -0.12962812310E+00  0.38038370819E+02 -0.49190247653E+01  0.38355329000E+02  0.00000000000E+00 0. -1.
        -12    1    6    6    0    0 -0.45478920946E+02 -0.27363702764E+02  0.11610311310E+02  0.54331425603E+02  0.00000000000E+00 0.  1.
</event>
<event>
12    1  0.2685360E-002  0.2165350E+03  0.7818608E-02  0.1136493E+00
          1   -1    0    0  502    0  0.00000000000E+00  0.00000000000E+00  0.26398284306E+04  0.26398284306E+04  0.00000000000E+00 0. -1.
         -1   -1    0    0    0  501 -0.00000000000E+00 -0.00000000000E+00 -0.23396588068E+02  0.23396588068E+02  0.00000000000E+00 0.  1.
          6    2    1    2  502    0 -0.71815958408E+02 -0.10958095866E+03  0.19599608771E+04  0.19718438759E+04  0.17191891294E+03 0.  0.
         24    2    3    3    0    0 -0.11243294035E+03 -0.10107092199E+03  0.17055068152E+04  0.17139851557E+04  0.78327006321E+02 0.  0.
         -6    2    1    2    0  501  0.71815958408E+02  0.10958095866E+03  0.65647096542E+03  0.69138114280E+03  0.17288215000E+03 0.  0.
        -24    2    5    5    0    0 -0.15564671035E+02  0.83392684738E+02  0.47639414246E+03  0.48946296070E+03  0.73661469410E+02 0.  0.
          5    1    3    3  502    0  0.40616981938E+02 -0.85100366775E+01  0.25445406190E+03  0.25785872017E+03  0.47000000000E+01 0. -1.
        -13    1    4    4    0    0  0.99550274324E+00  0.60384827320E+01  0.13751822858E+02  0.15052140424E+02  0.00000000000E+00 0.  1.
         14    1    4    4    0    0 -0.11342844309E+03 -0.10710940472E+03  0.16917549924E+04  0.16989330153E+04  0.00000000000E+00 0. -1.
         -5    1    5    5    0  501  0.87380629442E+02  0.26188273927E+02  0.18007682296E+03  0.20191818209E+03  0.47000000000E+01 0.  1.
         13    1    6    6    0    0  0.17706814244E+00  0.36470088214E+02  0.60559563482E+02  0.70693418481E+02  0.00000000000E+00 0. -1.
        -14    1    6    6    0    0 -0.15741739177E+02  0.46922596524E+02  0.41583457898E+03  0.41876954222E+03  0.00000000000E+00 0.  1.
</event>
<event>
12    1  0.2685360E-002  0.2354635E+03  0.7818608E-02  0.1122852E+00
          2   -1    0    0  502    0  0.00000000000E+00  0.00000000000E+00  0.21246147457E+04  0.21246147457E+04  0.00000000000E+00 0. -1.
         -2   -1    0    0    0  501 -0.00000000000E+00 -0.00000000000E+00 -0.26877041122E+02  0.26877041122E+02  0.00000000000E+00 0.  1.
          6    2    1    2  502    0  0.15916677972E+03 -0.21867075849E+02  0.12326667765E+04  0.12549703342E+04  0.17225250383E+03 0.  0.
         24    2    3    3    0    0  0.15118328092E+03 -0.65618690266E+02  0.86744371571E+03  0.88701936716E+03  0.84749990243E+02 0.  0.
         -6    2    1    2    0  501 -0.15916677972E+03  0.21867075849E+02  0.86507092802E+03  0.89652145256E+03  0.17201968383E+03 0.  0.
        -24    2    5    5    0    0 -0.14636240310E+03 -0.40358427765E+02  0.62557560816E+03  0.64869880711E+03  0.80090855259E+02 0.  0.
          5    1    3    3  502    0  0.79834987907E+01  0.43751614417E+02  0.36522306081E+03  0.36795096706E+03  0.47000000000E+01 0. -1.
        -11    1    4    4    0    0  0.25738160225E+02  0.19796097793E+02  0.19292105719E+03  0.19563453858E+03  0.00000000000E+00 0.  1.
         12    1    4    4    0    0  0.12544512070E+03 -0.85414788059E+02  0.67452265852E+03  0.69138482858E+03  0.00000000000E+00 0. -1.
         -5    1    5    5    0  501 -0.12804376619E+02  0.62225503614E+02  0.23949531986E+03  0.24782264544E+03  0.47000000000E+01 0.  1.
         13    1    6    6    0    0  0.49771169386E+01 -0.15572868216E+02  0.95341034697E+02  0.96732615051E+02  0.00000000000E+00 0. -1.
        -14    1    6    6    0    0 -0.15133952004E+03 -0.24785559550E+02  0.53023457346E+03  0.55196619206E+03  0.00000000000E+00 0.  1.
</event>
<event>
12    1  0.2685360E-002  0.1785910E+03  0.7818608E-02  0.1169174E+00
          2   -1    0    0  502    0  0.00000000000E+00  0.00000000000E+00  0.11255907784E+04  0.11255907784E+04  0.00000000000E+00 0. -1.
         -2   -1    0    0    0  501 -0.00000000000E+00 -0.00000000000E+00 -0.31471336223E+02  0.31471336223E+02  0.00000000000E+00 0.  1.
          6    2    1    2  502    0 -0.27887193793E+02  0.38925429474E+02  0.73058661376E+03  0.75217793837E+03  0.17240059783E+03 0.  0.
         24    2    3    3    0    0 -0.46238971135E+02  0.86846273744E+02  0.51137652701E+03  0.52699279859E+03  0.80840210736E+02 0.  0.
         -6    2    1    2    0  501  0.27887193793E+02 -0.38925429474E+02  0.36353282844E+03  0.40488417627E+03  0.17170379787E+03 0.  0.
        -24    2    5    5    0    0  0.71307220297E+02 -0.38820824866E+02  0.33057244106E+03  0.35016866860E+03  0.82147316264E+02 0.  0.
          5    1    3    3  502    0  0.18351777341E+02 -0.47920844269E+02  0.21921008675E+03  0.22518513979E+03  0.47000000000E+01 0. -1.
        -13    1    4    4    0    0 -0.41497856731E+01  0.84822185001E+02  0.32500704932E+03  0.33591904664E+03  0.00000000000E+00 0.  1.
         14    1    4    4    0    0 -0.42089185462E+02  0.20240887427E+01  0.18636947769E+03  0.19107375194E+03  0.00000000000E+00 0. -1.
         -5    1    5    5    0  501 -0.43420026504E+02 -0.10460460890E+00  0.32960387375E+02  0.54715507670E+02  0.47000000000E+01 0.  1.
         11    1    6    6    0    0  0.62018586395E+02  0.79219191567E+00  0.27113691090E+03  0.27814053476E+03  0.00000000000E+00 0. -1.
        -12    1    6    6    0    0  0.92886339022E+01 -0.39613016781E+02  0.59435530166E+02  0.72028133839E+02  0.00000000000E+00 0.  1.
</event>
<event>
12    1  0.2685360E-002  0.2022776E+03  0.7818608E-02  0.1147832E+00
         -1   -1    0    0    0  501 -0.00000000000E+00  0.00000000000E+00  0.67218222963E+02  0.67218222963E+02  0.00000000000E+00 0.  1.
          1   -1    0    0  502    0  0.00000000000E+00 -0.00000000000E+00 -0.61069349537E+03  0.61069349537E+03  0.00000000000E+00 0. -1.
          6    2    1    2  502    0  0.81831045093E+02 -0.67681857984E+02 -0.25237606098E+03  0.32342042724E+03  0.17213350272E+03 0.  0.
         24    2    3    3    0    0  0.63619339078E+01 -0.91358631938E+02 -0.15159366282E+03  0.19521996645E+03  0.82117737795E+02 0.  0.
         -6    2    1    2    0  501 -0.81831045093E+02  0.67681857984E+02 -0.29109921143E+03  0.35449129109E+03  0.17218644176E+03 0.  0.
        -24    2    5    5    0    0  0.24164507852E+01  0.65916403544E+01 -0.20341699571E+03  0.21832993019E+03  0.78994906883E+02 0.  0.
          5    1    3    3  502    0  0.75469111185E+02  0.23676773955E+02 -0.10078239816E+03  0.12820046079E+03  0.47000000000E+01 0. -1.
        -13    1    4    4    0    0 -0.45780785697E+01  0.12838675869E+02 -0.39505127947E+02  0.41790495756E+02  0.00000000000E+00 0.  1.
         14    1    4    4    0    0  0.10940012477E+02 -0.10419730781E+03 -0.11208853487E+03  0.15342947069E+03  0.00000000000E+00 0. -1.
         -5    1    5    5    0  501 -0.84247495878E+02  0.61090217629E+02 -0.87682215714E+02  0.13616136091E+03  0.47000000000E+01 0.  1.
         11    1    6    6    0    0 -0.23040479167E+02  0.44111816863E+01 -0.18584678015E+03  0.18732150944E+03  0.00000000000E+00 0. -1.
        -12    1    6    6    0    0  0.25456929953E+02  0.21804586681E+01 -0.17570215559E+02  0.31008420750E+02  0.00000000000E+00 0.  1.
</event>
<event>
12    1  0.2685360E-002  0.1687520E+03  0.7818608E-02  0.1179156E+00
          2   -1    0    0  502    0  0.00000000000E+00  0.00000000000E+00  0.18286374027E+04  0.18286374027E+04  0.00000000000E+00 0.  1.
         -2   -1    0    0    0  501 -0.00000000000E+00 -0.00000000000E+00 -0.15832669394E+02  0.15832669394E+02  0.00000000000E+00 0. -1.
          6    2    1    2  502    0  0.23653916392E+02  0.18370852523E+01  0.76727520236E+03  0.78468125796E+03  0.16263627453E+03 0.  0.
         24    2    3    3    0    0 -0.10447031328E+02  0.57347083329E+02  0.48808629171E+03  0.49795356074E+03  0.79571930163E+02 0.  0.
         -6    2    1    2    0  501 -0.23653916392E+02 -0.18370852523E+01  0.10455295309E+04  0.10597888141E+04  0.17163172155E+03 0.  0.
        -24    2    5    5    0    0 -0.22678066965E+01  0.65166963578E+02  0.66055950726E+03  0.66841825139E+03  0.78690660620E+02 0.  0.
          5    1    3    3  502    0  0.34100947720E+02 -0.55509998077E+02  0.27918891065E+03  0.28672769722E+03  0.47000000000E+01 0. -1.
        -11    1    4    4    0    0 -0.29359004514E+02  0.48033160240E+02  0.45662694244E+03  0.46008401428E+03  0.00000000000E+00 0.  1.
         12    1    4    4    0    0  0.18911973185E+02  0.93139230892E+01  0.31459349265E+02  0.37869546462E+02  0.00000000000E+00 0. -1.
         -5    1    5    5    0  501 -0.21386109696E+02 -0.67004048830E+02  0.38497002365E+03  0.39137056272E+03  0.47000000000E+01 0.  1.
         11    1    6    6    0    0 -0.11419790605E+02  0.57363428088E+02  0.64934491545E+03  0.65197376766E+03  0.00000000000E+00 0. -1.
        -12    1    6    6    0    0  0.91519839080E+01  0.78035354893E+01  0.11214591813E+02  0.16444483729E+02  0.00000000000E+00 0.  1.
</event>
<event>
12    1  0.2685360E-002  0.2222926E+03  0.7818608E-02  0.1132185E+00
         -3   -1    0    0    0  501 -0.00000000000E+00  0.00000000000E+00  0.11815545046E+03  0.11815545046E+03  0.00000000000E+00 0.  1.
          3   -1    0    0  502    0  0.00000000000E+00 -0.00000000000E+00 -0.53058250969E+03  0.53058250969E+03  0.00000000000E+00 0. -1.
          6    2    1    2  502    0 -0.14015995862E+03 -0.23114036725E+02 -0.35548943109E+03  0.41926925874E+03  0.17098217161E+03 0.  0.
         24    2    3    3    0    0 -0.10994842031E+03  0.39221470393E+02 -0.29456128548E+03  0.32689620302E+03  0.80422619810E+02 0.  0.
         -6    2    1    2    0  501  0.14015995862E+03  0.23114036725E+02 -0.56937628137E+02  0.22946870141E+03  0.17098221760E+03 0.  0.
        -24    2    5    5    0    0  0.75218809832E+02  0.74481911310E+02 -0.10103945575E+02  0.13422430437E+03  0.81906347146E+02 0.  0.
          5    1    3    3  502    0 -0.30211538315E+02 -0.62335507117E+02 -0.60928145611E+02  0.92373055717E+02  0.47000000000E+01 0. -1.
        -13    1    4    4    0    0 -0.12104174679E+01  0.31358864195E+02 -0.86226189176E+02  0.91759463675E+02  0.00000000000E+00 0.  1.
         14    1    4    4    0    0 -0.10873800284E+03  0.78626061971E+01 -0.20833509631E+03  0.23513673935E+03  0.00000000000E+00 0. -1.
         -5    1    5    5    0  501  0.64941148790E+02 -0.51367874585E+02 -0.46833682562E+02  0.95244397042E+02  0.47000000000E+01 0.  1.
         13    1    6    6    0    0  0.88985804315E+02  0.58998024380E+02 -0.23799778631E+02  0.10938770367E+03  0.00000000000E+00 0. -1.
        -14    1    6    6    0    0 -0.13766994482E+02  0.15483886930E+02  0.13695833055E+02  0.24836600706E+02  0.00000000000E+00 0.  1.
</event>
<event>
12    1  0.2685360E-002  0.2194348E+03  0.7818608E-02  0.1134305E+00
         -2   -1    0    0    0  501 -0.00000000000E+00  0.00000000000E+00  0.28514178166E+02  0.28514178166E+02  0.00000000000E+00 0.  1.
          2   -1    0    0  502    0  0.00000000000E+00 -0.00000000000E+00 -0.17392835818E+04  0.17392835818E+04  0.00000000000E+00 0. -1.
          6    2    1    2  502    0 -0.15874101881E+02  0.13665414866E+03 -0.70309615330E+03  0.73642172052E+03  0.17043006254E+03 0.  0.
         24    2    3    3    0    0  0.31718194918E+02  0.55800394236E+02 -0.52259162071E+03  0.53293626010E+03  0.82458034210E+02 0.  0.
         -6    2    1    2    0  501  0.15874101881E+02 -0.13665414866E+03 -0.10076732503E+04  0.10313760394E+04  0.17147831304E+03 0.  0.
        -24    2    5    5    0    0  0.27258168868E+02 -0.77697995547E+02 -0.32366752403E+03  0.34472376312E+03  0.85403866789E+02 0.  0.
          5    1    3    3  502    0 -0.47592296799E+02  0.80853754420E+02 -0.18050453260E+03  0.20348546043E+03  0.47000000000E+01 0. -1.
        -11    1    4    4    0    0 -0.15920163104E+02  0.39067783743E+02 -0.12018164717E+03  0.12737099998E+03  0.00000000000E+00 0.  1.
         12    1    4    4    0    0  0.47638358023E+02  0.16732610493E+02 -0.40240997354E+03  0.40556526012E+03  0.00000000000E+00 0. -1.
         -5    1    5    5    0  501 -0.11384066988E+02 -0.58956153109E+02 -0.68400572630E+03  0.68665227633E+03  0.47000000000E+01 0.  1.
         13    1    6    6    0    0 -0.27497953341E+02 -0.50402819039E+02 -0.15251139010E+03  0.16296105582E+03  0.00000000000E+00 0. -1.
        -14    1    6    6    0    0  0.54756122209E+02 -0.27295176508E+02 -0.17115613393E+03  0.18176270729E+03  0.00000000000E+00 0.  1.
</event>
<event>
12    1  0.2685360E-002  0.3187086E+03  0.7818608E-02  0.1076245E+00
          2   -1    0    0  502    0  0.00000000000E+00  0.00000000000E+00  0.94198338145E+03  0.94198338145E+03  0.00000000000E+00 0.  1.
         -2   -1    0    0    0  501 -0.00000000000E+00 -0.00000000000E+00 -0.11046944206E+03  0.11046944206E+03  0.00000000000E+00 0. -1.
          6    2    1    2  502    0  0.15370294852E+03  0.21990163209E+03  0.49790566068E+03  0.59152627450E+03  0.17323960954E+03 0.  0.
         24    2    3    3    0    0  0.17078669778E+03  0.13545220933E+03  0.37285251805E+03  0.43959228234E+03  0.81896137451E+02 0.  0.
         -6    2    1    2    0  501 -0.15370294852E+03 -0.21990163209E+03  0.33360827871E+03  0.46092654901E+03  0.17081415566E+03 0.  0.
        -24    2    5    5    0    0 -0.38219647069E+02 -0.46613257192E+02  0.16726203154E+03  0.19435870073E+03  0.78518661378E+02 0.  0.
          5    1    3    3  502    0 -0.17083749252E+02  0.84449422762E+02  0.12505314263E+03  0.15193399216E+03  0.47000000000E+01 0. -1.
        -11    1    4    4    0    0  0.12924189815E+03  0.10605711626E+03  0.34037855966E+03  0.37922176101E+03  0.00000000000E+00 0.  1.
         12    1    4    4    0    0  0.41544799623E+02  0.29395093072E+02  0.32473958389E+02  0.60370521332E+02  0.00000000000E+00 0. -1.
         -5    1    5    5    0  501 -0.11548330146E+03 -0.17328837490E+03  0.16634624717E+03  0.26656784828E+03  0.47000000000E+01 0.  1.
         13    1    6    6    0    0  0.22312835868E+02 -0.20904472625E+02  0.33829488464E+02  0.45599275322E+02  0.00000000000E+00 0. -1.
        -14    1    6    6    0    0 -0.60532482937E+02 -0.25708784568E+02  0.13343254308E+03  0.14875942541E+03  0.00000000000E+00 0.  1.
</event>
<event>
12    1  0.2685360E-002  0.1770360E+03  0.7818608E-02  0.1170703E+00
          2   -1    0    0  502    0  0.00000000000E+00  0.00000000000E+00  0.21695783000E+02  0.21695783000E+02  0.00000000000E+00 0.  1.
         -2   -1    0    0    0  501 -0.00000000000E+00 -0.00000000000E+00 -0.14454256455E+04  0.14454256455E+04  0.00000000000E+00 0. -1.
          6    2    1    2  502    0  0.37327244435E+02 -0.19526131862E+02 -0.69393406285E+03  0.71613571482E+03  0.17184669169E+03 0.  0.
         24    2    3    3    0    0 -0.33132478309E+02  0.19782908431E+01 -0.21648895136E+03  0.23301778179E+03  0.79549643710E+02 0.  0.
         -6    2    1    2    0  501 -0.37327244435E+02  0.19526131862E+02 -0.72979579963E+03  0.75098571367E+03  0.17205533985E+03 0.  0.
        -24    2    5    5    0    0 -0.12336352689E+02  0.76775169608E+02 -0.38410320346E+03  0.39966327197E+03  0.78414589127E+02 0.  0.
          5    1    3    3  502    0  0.70459722745E+02 -0.21504422705E+02 -0.47744511149E+03  0.48311793303E+03  0.47000000000E+01 0. -1.
        -11    1    4    4    0    0  0.90419914467E-01  0.12669373082E+02  0.10348974266E+01  0.12711892177E+02  0.00000000000E+00 0.  1.
         12    1    4    4    0    0 -0.33222898224E+02 -0.10691082239E+02 -0.21752384879E+03  0.22030588961E+03  0.00000000000E+00 0. -1.
         -5    1    5    5    0  501 -0.24990891747E+02 -0.57249037746E+02 -0.34569259617E+03  0.35132244169E+03  0.47000000000E+01 0.  1.
         11    1    6    6    0    0  0.19655198883E+01 -0.16107181090E+02 -0.47976348526E+02  0.50646170329E+02  0.00000000000E+00 0. -1.
        -12    1    6    6    0    0 -0.14301872577E+02  0.92882350698E+02 -0.33612685494E+03  0.34901710164E+03  0.00000000000E+00 0.  1.
</event>
<event>
12    1  0.2685360E-002  0.2162479E+03  0.7818608E-02  0.1136712E+00
         -2   -1    0    0    0  501 -0.00000000000E+00  0.00000000000E+00  0.56016059174E+02  0.56016059174E+02  0.00000000000E+00 0. -1.
          2   -1    0    0  502    0  0.00000000000E+00 -0.00000000000E+00 -0.94253462966E+03  0.94253462966E+03  0.00000000000E+00 0.  1.
          6    2    1    2  502    0 -0.96886544399E+00  0.13711595911E+03 -0.61895027937E+03  0.65695979469E+03  0.17232236814E+03 0.  0.
         24    2    3    3    0    0  0.68344408471E+02  0.47335384453E+02 -0.33537419813E+03  0.35150543577E+03  0.64564865205E+02 0.  0.
         -6    2    1    2    0  501  0.96886544399E+00 -0.13711595911E+03 -0.26756829112E+03  0.34159089415E+03  0.16214136921E+03 0.  0.
        -24    2    5    5    0    0  0.64133859582E+01 -0.12185101154E+03 -0.10946056560E+03  0.18258522036E+03  0.80417328600E+02 0.  0.
          5    1    3    3  502    0 -0.69313273915E+02  0.89780574661E+02 -0.28357608124E+03  0.30545435891E+03  0.47000000000E+01 0. -1.
        -13    1    4    4    0    0  0.32340836593E+01  0.39556982497E+02 -0.12601477200E+03  0.13211713334E+03  0.00000000000E+00 0.  1.
         14    1    4    4    0    0  0.65110324812E+02  0.77784019563E+01 -0.20935942613E+03  0.21938830243E+03  0.00000000000E+00 0. -1.
         -5    1    5    5    0  501 -0.54445205142E+01 -0.15264947571E+02 -0.15810772552E+03  0.15900567379E+03  0.47000000000E+01 0.  1.
         13    1    6    6    0    0  0.25852572450E+02 -0.12307295559E+03 -0.10123098742E+03  0.16144045562E+03  0.00000000000E+00 0. -1.
        -14    1    6    6    0    0 -0.19439186492E+02  0.12219440427E+01 -0.82295781869E+01  0.21144764738E+02  0.00000000000E+00 0.  1.
</event>
<event>
12    1  0.2685360E-002  0.1897551E+03  0.7818608E-02  0.1158682E+00
          2   -1    0    0  502    0  0.00000000000E+00  0.00000000000E+00  0.30573410381E+03  0.30573410381E+03  0.00000000000E+00 0. -1.
         -2   -1    0    0    0  501 -0.00000000000E+00 -0.00000000000E+00 -0.12027356934E+03  0.12027356934E+03  0.00000000000E+00 0.  1.
          6    2    1    2  502    0  0.28714711420E+02 -0.74395808636E+02  0.62518197784E+02  0.20075324025E+03  0.17330339702E+03 0.  0.
         24    2    3    3    0    0 -0.34532108159E+02 -0.81960215744E+02  0.52293287114E+02  0.13606924501E+03  0.88714756951E+02 0.  0.
         -6    2    1    2    0  501 -0.28714711420E+02  0.74395808636E+02  0.12294233669E+03  0.22525443291E+03  0.17107153591E+03 0.  0.
        -24    2    5    5    0    0  0.11684663543E+02  0.50025317498E+01  0.69749589767E+01  0.84123078955E+02  0.82864260535E+02 0.  0.
          5    1    3    3  502    0  0.63246819579E+02  0.75644071077E+01  0.10224910670E+02  0.64683995238E+02  0.47000000000E+01 0. -1.
        -11    1    4    4    0    0  0.56000157144E+01 -0.38883201907E+02 -0.18975831626E+02  0.43627350968E+02  0.00000000000E+00 0.  1.
         12    1    4    4    0    0 -0.40132123873E+02 -0.43077013837E+02  0.71269118740E+02  0.92441894040E+02  0.00000000000E+00 0. -1.
         -5    1    5    5    0  501 -0.40399374964E+02  0.69393276886E+02  0.11596737771E+03  0.14113135395E+03  0.47000000000E+01 0.  1.
         13    1    6    6    0    0 -0.62737668759E+00 -0.12233289975E+02  0.41692153872E+02  0.43454374689E+02  0.00000000000E+00 0. -1.
        -14    1    6    6    0    0  0.12312040231E+02  0.17235821725E+02 -0.34717194896E+02  0.40668704265E+02  0.00000000000E+00 0.  1.
</event>
<event>
12    1  0.2685360E-002  0.3517185E+03  0.7818608E-02  0.1061912E+00
          1   -1    0    0  502    0  0.00000000000E+00  0.00000000000E+00  0.89878385230E+03  0.89878385230E+03  0.00000000000E+00 0.  1.
         -1   -1    0    0    0  501 -0.00000000000E+00 -0.00000000000E+00 -0.13897000383E+03  0.13897000383E+03  0.00000000000E+00 0. -1.
          6    2    1    2  502    0  0.16657524743E+02  0.30619045014E+03  0.43139518144E+03  0.55700460100E+03  0.17355765062E+03 0.  0.
         24    2    3    3    0    0  0.16795197717E+02  0.28958333582E+03  0.30143131241E+03  0.42589963370E+03  0.79931688522E+02 0.  0.
         -6    2    1    2    0  501 -0.16657524743E+02 -0.30619045014E+03  0.32841866703E+03  0.48074925513E+03  0.17097064241E+03 0.  0.
        -24    2    5    5    0    0 -0.75285799059E+02 -0.20012914495E+03  0.24627932523E+03  0.33427319401E+03  0.73249136534E+02 0.  0.
          5    1    3    3  502    0 -0.13767297394E+00  0.16607114313E+02  0.12996386903E+03  0.13110496731E+03  0.47000000000E+01 0. -1.
        -11    1    4    4    0    0 -0.66614428223E+01  0.60660088362E+02  0.11319511193E+03  0.12859686818E+03  0.00000000000E+00 0.  1.
         12    1    4    4    0    0  0.23456640539E+02  0.22892324746E+03  0.18823620047E+03  0.29730276551E+03  0.00000000000E+00 0. -1.
         -5    1    5    5    0  501  0.58628274316E+02 -0.10606130519E+03  0.82139341804E+02  0.14647606111E+03  0.47000000000E+01 0.  1.
         13    1    6    6    0    0  0.10370067925E+02 -0.25907242497E+02  0.13021091848E+02  0.30794031166E+02  0.00000000000E+00 0. -1.
        -14    1    6    6    0    0 -0.85655866984E+02 -0.17422190245E+03  0.23325823338E+03  0.30347916285E+03  0.00000000000E+00 0.  1.
</event>
<event>
12    1  0.2685360E-002  0.1883952E+03  0.7818608E-02  0.1159917E+00
          1   -1    0    0  502    0  0.00000000000E+00  0.00000000000E+00  0.11421675370E+04  0.11421675370E+04  0.00000000000E+00 0.  1.
         -1   -1    0    0    0  501 -0.00000000000E+00 -0.00000000000E+00 -0.86918243769E+02  0.86918243769E+02  0.00000000000E+00 0. -1.
          6    2    1    2  502    0 -0.63239568656E+02  0.41390308928E+02  0.10189949953E+04  0.10360464907E+04  0.17125749497E+03 0.  0.
         24    2    3    3    0    0 -0.39858901330E+01 -0.31140691970E+02  0.33154887586E+03  0.34223383462E+03  0.78827092147E+02 0.  0.
         -6    2    1    2    0  501  0.63239568656E+02 -0.41390308928E+02  0.36254297926E+02  0.19303929013E+03  0.17388902410E+03 0.  0.
        -24    2    5    5    0    0  0.16391116216E+02 -0.77653856763E+02 -0.17655522047E+02  0.11280101319E+03  0.78189263692E+02 0.  0.
          5    1    3    3  502    0 -0.59253678523E+02  0.72531000897E+02  0.68744611947E+03  0.69381265604E+03  0.47000000000E+01 0. -1.
        -13    1    4    4    0    0  0.18072777437E+02 -0.46609819169E+02  0.27606178854E+03  0.28055162024E+03  0.00000000000E+00 0.  1.
         14    1    4    4    0    0 -0.22058667570E+02  0.15469127200E+02  0.55487087322E+02  0.61682214380E+02  0.00000000000E+00 0. -1.
         -5    1    5    5    0  501  0.46848452439E+02  0.36263547836E+02  0.53909819973E+02  0.80238276945E+02  0.47000000000E+01 0.  1.
         13    1    6    6    0    0  0.31891116051E+02  0.27753299832E+00 -0.33796616440E+01  0.32070896781E+02  0.00000000000E+00 0. -1.
        -14    1    6    6    0    0 -0.15499999834E+02 -0.77931389762E+02 -0.14275860403E+02  0.80730116408E+02  0.00000000000E+00 0.  1.
</event>
<event>
12    1  0.2685360E-002  0.1713108E+03  0.7818608E-02  0.1176488E+00
          1   -1    0    0  502    0  0.00000000000E+00  0.00000000000E+00  0.98387178904E+03  0.98387178904E+03  0.00000000000E+00 0.  1.
         -1   -1    0    0    0  501 -0.00000000000E+00 -0.00000000000E+00 -0.31245772869E+02  0.31245772869E+02  0.00000000000E+00 0. -1.
          6    2    1    2  502    0  0.21478811091E+02 -0.26016366484E+02  0.36090858994E+03  0.39828712824E+03  0.16504373839E+03 0.  0.
         24    2    3    3    0    0  0.52429124957E+02 -0.63239889284E+02  0.20753517139E+03  0.23738651266E+03  0.80829526089E+02 0.  0.
         -6    2    1    2    0  501 -0.21478811091E+02  0.26016366484E+02  0.59171742623E+03  0.61683043366E+03  0.17091541984E+03 0.  0.
        -24    2    5    5    0    0 -0.31994773287E+02 -0.59686238556E+01  0.14746459771E+03  0.17127876358E+03  0.80816565671E+02 0.  0.
          5    1    3    3  502    0 -0.30950313867E+02  0.37223522799E+02  0.15337341855E+03  0.16090061558E+03  0.47000000000E+01 0. -1.
        -13    1    4    4    0    0  0.32900057057E+02 -0.45357690169E+02  0.20291200891E+03  0.21050657275E+03  0.00000000000E+00 0.  1.
         14    1    4    4    0    0  0.19529067900E+02 -0.17882199115E+02  0.46231624841E+01  0.26879939910E+02  0.00000000000E+00 0. -1.
         -5    1    5    5    0  501  0.10515962196E+02  0.31984990340E+02  0.44425282852E+03  0.44555167008E+03  0.47000000000E+01 0.  1.
         13    1    6    6    0    0 -0.36109293134E+02  0.32389897821E+02  0.84641997333E+02  0.97556415699E+02  0.00000000000E+00 0. -1.
        -14    1    6    6    0    0  0.41145198470E+01 -0.38358521677E+02  0.62822600381E+02  0.73722347884E+02  0.00000000000E+00 0.  1.
</event>
<event>
12    1  0.2685360E-002  0.2016082E+03  0.7818608E-02  0.1148389E+00
         -2   -1    0    0    0  501 -0.00000000000E+00  0.00000000000E+00  0.17291464044E+03  0.17291464044E+03  0.00000000000E+00 0. -1.
          2   -1    0    0  502    0  0.00000000000E+00 -0.00000000000E+00 -0.32966706347E+03  0.32966706347E+03  0.00000000000E+00 0.  1.
          6    2    1    2  502    0  0.89688317983E+02 -0.38387416587E+02  0.54822446149E+02  0.21350941561E+03  0.18183284032E+03 0.  0.
         24    2    3    3    0    0 -0.12952363904E+02  0.16693151460E+02 -0.67280949103E+01  0.81677941148E+02  0.78610392269E+02 0.  0.
         -6    2    1    2    0  501 -0.89688317983E+02  0.38387416587E+02 -0.21157486919E+03  0.28907228830E+03  0.17111772105E+03 0.  0.
        -24    2    5    5    0    0  0.12962152814E+02  0.25207984820E+02 -0.51941060232E+02  0.98767639019E+02  0.79080420302E+02 0.  0.
          5    1    3    3  502    0  0.10264068189E+03 -0.55080568047E+02  0.61550541060E+02  0.13183147446E+03  0.47000000000E+01 0. -1.
        -13    1    4    4    0    0  0.16007981968E+02  0.40586594450E+02 -0.58012756829E+00  0.43633286419E+02  0.00000000000E+00 0.  1.
         14    1    4    4    0    0 -0.28960345872E+02 -0.23893442990E+02 -0.61479673420E+01  0.38044654728E+02  0.00000000000E+00 0. -1.
         -5    1    5    5    0  501 -0.10265047080E+03  0.13179431767E+02 -0.15963380895E+03  0.19030464928E+03  0.47000000000E+01 0.  1.
         13    1    6    6    0    0  0.50665305819E+01 -0.15801603730E+02 -0.54457048281E+02  0.56929171082E+02  0.00000000000E+00 0. -1.
        -14    1    6    6    0    0  0.78956222319E+01  0.41009588549E+02  0.25159880497E+01  0.41838467937E+02  0.00000000000E+00 0.  1.
</event>
<event>
12    1  0.2685360E-002  0.1972959E+03  0.7818608E-02  0.1152041E+00
         -1   -1    0    0    0  501 -0.00000000000E+00  0.00000000000E+00  0.40638703333E+03  0.40638703333E+03  0.00000000000E+00 0. -1.
          1   -1    0    0  502    0  0.00000000000E+00 -0.00000000000E+00 -0.13713303588E+03  0.13713303588E+03  0.00000000000E+00 0.  1.
          6    2    1    2  502    0  0.49733486037E+02 -0.85715023809E+02  0.28577717951E+03  0.34972921516E+03  0.17556036759E+03 0.  0.
         24    2    3    3    0    0 -0.33570161977E+02 -0.56070170524E+02  0.11215473565E+03  0.15483140063E+03  0.84399396287E+02 0.  0.
         -6    2    1    2    0  501 -0.49733486037E+02  0.85715023809E+02 -0.16523182065E+02  0.19379085404E+03  0.16571479905E+03 0.  0.
        -24    2    5    5    0    0  0.22686478977E+02  0.43739882220E+01 -0.23459459651E+02  0.84560742122E+02  0.77886871549E+02 0.  0.
          5    1    3    3  502    0  0.83303648014E+02 -0.29644853284E+02  0.17362244386E+03  0.19489781454E+03  0.47000000000E+01 0. -1.
        -13    1    4    4    0    0  0.27859238525E+02 -0.23066314746E+02  0.47784899395E+02  0.59929864487E+02  0.00000000000E+00 0.  1.
         14    1    4    4    0    0 -0.61429400502E+02 -0.33003855779E+02  0.64369836254E+02  0.94901536140E+02  0.00000000000E+00 0. -1.
         -5    1    5    5    0  501 -0.72419965014E+02  0.81341035587E+02  0.69362775861E+01  0.10923011192E+03  0.47000000000E+01 0.  1.
         11    1    6    6    0    0  0.47673264164E+01  0.17628701185E+02  0.25152355131E+02  0.31082784226E+02  0.00000000000E+00 0. -1.
        -12    1    6    6    0    0  0.17919152560E+02 -0.13254712963E+02 -0.48611814782E+02  0.53477957895E+02  0.00000000000E+00 0.  1.
</event>
<event>
12    1  0.2685360E-002  0.1876273E+03  0.7818608E-02  0.1160619E+00
         -1   -1    0    0    0  501 -0.00000000000E+00  0.00000000000E+00  0.94657037982E+03  0.94657037982E+03  0.00000000000E+00 0. -1.
          1   -1    0    0  502    0  0.00000000000E+00 -0.00000000000E+00 -0.39673808263E+02  0.39673808263E+02  0.00000000000E+00 0.  1.
          6    2    1    2  502    0  0.28964401803E+00 -0.76014798661E+02  0.57368491661E+03  0.60316966454E+03  0.17006153936E+03 0.  0.
         24    2    3    3    0    0  0.64393781155E+02 -0.31946893591E+02  0.28187372368E+03  0.30113128457E+03  0.77846588786E+02 0.  0.
         -6    2    1    2    0  501 -0.28964401803E+00  0.76014798661E+02  0.33321165495E+03  0.38307452354E+03  0.17302528742E+03 0.  0.
        -24    2    5    5    0    0 -0.51516213014E+01  0.71133046241E+02  0.89429855086E+02  0.13915009616E+03  0.79237622449E+02 0.  0.
          5    1    3    3  502    0 -0.64104137137E+02 -0.44067905069E+02  0.29181119293E+03  0.30203837997E+03  0.47000000000E+01 0. -1.
        -13    1    4    4    0    0 -0.37690412095E+01 -0.33653821568E+02  0.13531355542E+03  0.13948671499E+03  0.00000000000E+00 0.  1.
         14    1    4    4    0    0  0.68162822364E+02  0.17069279764E+01  0.14656016826E+03  0.16164456958E+03  0.00000000000E+00 0. -1.
         -5    1    5    5    0  501  0.48619772834E+01  0.48817524201E+01  0.24378179986E+03  0.24392442738E+03  0.47000000000E+01 0.  1.
         11    1    6    6    0    0  0.91987386343E+01  0.18108654703E+02  0.81082247856E+02  0.83587505556E+02  0.00000000000E+00 0. -1.
        -12    1    6    6    0    0 -0.14350359936E+02  0.53024391538E+02  0.83476072293E+01  0.55562590605E+02  0.00000000000E+00 0.  1.
</event>
<event>
12    1  0.2685360E-002  0.2542229E+03  0.7818608E-02  0.1110665E+00
         -1   -1    0    0    0  501 -0.00000000000E+00  0.00000000000E+00  0.68787907914E+02  0.68787907914E+02  0.00000000000E+00 0.  1.
          1   -1    0    0  502    0  0.00000000000E+00 -0.00000000000E+00 -0.11068711495E+04  0.11068711495E+04  0.00000000000E+00 0. -1.
          6    2    1    2  502    0  0.17586423451E+03 -0.65065662347E+02 -0.29062149294E+03  0.38617219225E+03  0.17177409732E+03 0.  0.
         24    2    3    3    0    0  0.15178117175E+03 -0.79907011404E+01 -0.27041817722E+03  0.32084372162E+03  0.81934899345E+02 0.  0.
         -6    2    1    2    0  501 -0.17586423451E+03  0.65065662347E+02 -0.74746174866E+03  0.78948686519E+03  0.17154788017E+03 0.  0.
        -24    2    5    5    0    0 -0.20001176147E+03  0.71212055862E+02 -0.63627188943E+03  0.67544232999E+03  0.79401273538E+02 0.  0.
          5    1    3    3  502    0  0.24083062756E+02 -0.57074961207E+02 -0.20203315726E+02  0.65328470630E+02  0.47000000000E+01 0. -1.
        -13    1    4    4    0    0  0.13127791783E+03  0.32235174579E+01 -0.15530007011E+03  0.20337746815E+03  0.00000000000E+00 0.  1.
         14    1    4    4    0    0  0.20503253918E+02 -0.11214218598E+02 -0.11511810711E+03  0.11746625347E+03  0.00000000000E+00 0. -1.
         -5    1    5    5    0  501  0.24147526961E+02 -0.61463935152E+01 -0.11118985923E+03  0.11404453519E+03  0.47000000000E+01 0.  1.
         13    1    6    6    0    0 -0.92396374555E+02  0.51744606226E+02 -0.20772685735E+03  0.23316312223E+03  0.00000000000E+00 0. -1.
        -14    1    6    6    0    0 -0.10761538691E+03  0.19467449636E+02 -0.42854503208E+03  0.44227920776E+03  0.00000000000E+00 0.  1.
</event>
<event>
12    1  0.2685360E-002  0.2154789E+03  0.7818608E-02  0.1137299E+00
          1   -1    0    0  502    0  0.00000000000E+00  0.00000000000E+00  0.10393633801E+04  0.10393633801E+04  0.00000000000E+00 0.  1.
         -1   -1    0    0    0  501 -0.00000000000E+00 -0.00000000000E+00 -0.47718651344E+02  0.47718651344E+02  0.00000000000E+00 0. -1.
          6    2    1    2  502    0 -0.54230357128E+02  0.11817877978E+03  0.62906539719E+03  0.66434968362E+03  0.16949947656E+03 0.  0.
         24    2    3    3    0    0  0.18342962008E+02  0.11149221420E+03  0.45298233619E+03  0.47372195431E+03  0.80327548280E+02 0.  0.
         -6    2    1    2    0  501  0.54230357128E+02 -0.11817877978E+03  0.36257933158E+03  0.42273234784E+03  0.17416001434E+03 0.  0.
        -24    2    5    5    0    0 -0.30678885381E+01 -0.94831910880E+02  0.11834677640E+03  0.17074068874E+03  0.78383161759E+02 0.  0.
          5    1    3    3  502    0 -0.72573319136E+02  0.66865655801E+01  0.17608306101E+03  0.19062772931E+03  0.47000000000E+01 0. -1.
        -11    1    4    4    0    0  0.15436593303E+02  0.22082701823E+01  0.16421011593E+03  0.16494886190E+03  0.00000000000E+00 0.  1.
         12    1    4    4    0    0  0.29063687043E+01  0.10928394402E+03  0.28877222026E+03  0.30877309240E+03  0.00000000000E+00 0. -1.
         -5    1    5    5    0  501  0.57298245666E+02 -0.23346868905E+02  0.24423255518E+03  0.25199165909E+03  0.47000000000E+01 0.  1.
         11    1    6    6    0    0 -0.23299482059E+02 -0.84082511707E+01  0.26399360285E+01  0.24910516137E+02  0.00000000000E+00 0. -1.
        -12    1    6    6    0    0  0.20231593521E+02 -0.86423659709E+02  0.11570684037E+03  0.14583017261E+03  0.00000000000E+00 0.  1.
</event>
<event>
12    1  0.2685360E-002  0.2082837E+03  0.7818608E-02  0.1142932E+00
         -2   -1    0    0    0  501 -0.00000000000E+00  0.00000000000E+00  0.79706133648E+02  0.79706133648E+02  0.00000000000E+00 0. -1.
          2   -1    0    0  502    0  0.00000000000E+00 -0.00000000000E+00 -0.12262028319E+04  0.12262028319E+04  0.00000000000E+00 0.  1.
          6    2    1    2  502    0 -0.59657842920E+02  0.10152406866E+03 -0.10603086601E+04  0.10805921367E+04  0.17192648575E+03 0.  0.
         24    2    3    3    0    0 -0.35867427231E+02  0.12079858565E+03 -0.10138805934E+04  0.10247786414E+04  0.79615548143E+02 0.  0.
         -6    2    1    2    0  501  0.59657842920E+02 -0.10152406866E+03 -0.86188038221E+02  0.22531682890E+03  0.17167731567E+03 0.  0.
        -24    2    5    5    0    0  0.87507050529E+02 -0.18597163852E+02 -0.51161425951E+02  0.13096957949E+03  0.80822031959E+02 0.  0.
          5    1    3    3  502    0 -0.23790415689E+02 -0.19274516987E+02 -0.46428066645E+02  0.55813495287E+02  0.47000000000E+01 0. -1.
        -13    1    4    4    0    0 -0.20434299175E+02  0.31540444237E+02 -0.10743864730E+03  0.11382189218E+03  0.00000000000E+00 0.  1.
         14    1    4    4    0    0 -0.15433128056E+02  0.89258141411E+02 -0.90644194612E+03  0.91095674921E+03  0.00000000000E+00 0. -1.
         -5    1    5    5    0  501 -0.27849207608E+02 -0.82926904808E+02 -0.35026612270E+02  0.94347249417E+02  0.47000000000E+01 0.  1.
         13    1    6    6    0    0  0.24113900240E+02  0.25544937056E+02  0.49742450561E+01  0.35479108048E+02  0.00000000000E+00 0. -1.
        -14    1    6    6    0    0  0.63393150289E+02 -0.44142100909E+02 -0.56135671007E+02  0.95490471439E+02  0.00000000000E+00 0.  1.
</event>
<event>
12    1  0.2685360E-002  0.4323445E+03  0.7818608E-02  0.1033122E+00
          2   -1    0    0  502    0  0.00000000000E+00  0.00000000000E+00  0.10335041361E+04  0.10335041361E+04  0.00000000000E+00 0. -1.
         -2   -1    0    0    0  501 -0.00000000000E+00 -0.00000000000E+00 -0.19086106897E+03  0.19086106897E+03  0.00000000000E+00 0.  1.
          6    2    1    2  502    0  0.31509518885E+02 -0.39265115075E+03  0.56383169920E+03  0.71212843849E+03  0.18453441933E+03 0.  0.
         24    2    3    3    0    0  0.96574885875E+01 -0.21101814400E+03  0.19473183939E+03  0.30015167108E+03  0.86882749725E+02 0.  0.
         -6    2    1    2    0  501 -0.31509518885E+02  0.39265115075E+03  0.27881136789E+03  0.51223676653E+03  0.17170599918E+03 0.  0.
        -24    2    5    5    0    0 -0.56912188409E+02  0.38290728588E+03  0.28007172765E+03  0.48459771756E+03  0.80856591963E+02 0.  0.
          5    1    3    3  502    0  0.21852030298E+02 -0.18163300675E+03  0.36909985981E+03  0.41197676741E+03  0.47000000000E+01 0. -1.
        -11    1    4    4    0    0 -0.10107136033E+02 -0.37012531457E+02  0.15000139352E+00  0.38368009905E+02  0.00000000000E+00 0.  1.
         12    1    4    4    0    0  0.19764624620E+02 -0.17400561254E+03  0.19458183799E+03  0.26178366118E+03  0.00000000000E+00 0. -1.
         -5    1    5    5    0  501  0.25402669524E+02  0.97438648719E+01 -0.12603597542E+01  0.27639048976E+02  0.47000000000E+01 0.  1.
         13    1    6    6    0    0 -0.41411412415E+02  0.66822561267E+02  0.64481742137E+02  0.10167622555E+03  0.00000000000E+00 0. -1.
        -14    1    6    6    0    0 -0.15500775994E+02  0.31608472461E+03  0.21558998551E+03  0.38292149201E+03  0.00000000000E+00 0.  1.
</event>
<event>
12    1  0.2685360E-002  0.2299884E+03  0.7818608E-02  0.1126648E+00
         -2   -1    0    0    0  501 -0.00000000000E+00  0.00000000000E+00  0.38733602711E+03  0.38733602711E+03  0.00000000000E+00 0. -1.
          2   -1    0    0  502    0  0.00000000000E+00 -0.00000000000E+00 -0.14581095504E+03  0.14581095504E+03  0.00000000000E+00 0.  1.
          6    2    1    2  502    0 -0.10354210926E+03 -0.11197602900E+03  0.53591860803E+02  0.23609838662E+03  0.17207777649E+03 0.  0.
         24    2    3    3    0    0 -0.19241363976E+02 -0.62404649330E+02 -0.29535942897E+02  0.10766062315E+03  0.80335966471E+02 0.  0.
         -6    2    1    2    0  501  0.10354210926E+03  0.11197602900E+03  0.18793321127E+03  0.29704859552E+03  0.17221897905E+03 0.  0.
        -24    2    5    5    0    0  0.94085958447E+01  0.53605593764E+02  0.15177089731E+03  0.18043800849E+03  0.81002396744E+02 0.  0.
          5    1    3    3  502    0 -0.84300745288E+02 -0.49571379666E+02  0.83127803700E+02  0.12843776347E+03  0.47000000000E+01 0. -1.
        -13    1    4    4    0    0  0.20627012138E+02 -0.46708694233E+02  0.67610307536E+01  0.51506186847E+02  0.00000000000E+00 0.  1.
         14    1    4    4    0    0 -0.39868376115E+02 -0.15695955097E+02 -0.36296973650E+02  0.56154436304E+02  0.00000000000E+00 0. -1.
         -5    1    5    5    0  501  0.94133513420E+02  0.58370435232E+02  0.36162313959E+02  0.11661058704E+03  0.47000000000E+01 0.  1.
         13    1    6    6    0    0  0.36847347848E+02  0.42196462669E+02  0.13535331876E+03  0.14648818862E+03  0.00000000000E+00 0. -1.
        -14    1    6    6    0    0 -0.27438752003E+02  0.11409131095E+02  0.16417578552E+02  0.33949819872E+02  0.00000000000E+00 0.  1.
</event>
<event>
12    1  0.2685360E-002  0.1940449E+03  0.7818608E-02  0.1154863E+00
         -2   -1    0    0    0  501 -0.00000000000E+00  0.00000000000E+00  0.10040496837E+03  0.10040496837E+03  0.00000000000E+00 0. -1.
          2   -1    0    0  502    0  0.00000000000E+00 -0.00000000000E+00 -0.44576221034E+03  0.44576221034E+03  0.00000000000E+00 0.  1.
          6    2    1    2  502    0 -0.79230161154E+02 -0.41941898640E+02 -0.28145351416E+03  0.34184880368E+03  0.17206970286E+03 0.  0.
         24    2    3    3    0    0 -0.83358237187E+02 -0.98875268779E+01 -0.28660124722E+03  0.30878654549E+03  0.78501572402E+02 0.  0.
         -6    2    1    2    0  501  0.79230161154E+02  0.41941898640E+02 -0.63903727807E+02  0.20431837504E+03  0.17212138348E+03 0.  0.
        -24    2    5    5    0    0  0.54388767233E+02  0.79610842307E+02  0.86832194395E+00  0.12523896812E+03  0.79925095807E+02 0.  0.
          5    1    3    3  502    0  0.41280760332E+01 -0.32054371762E+02  0.51477330619E+01  0.33062258188E+02  0.47000000000E+01 0. -1.
        -13    1    4    4    0    0 -0.40873560049E+02  0.34485904016E+02 -0.13618793224E+03  0.14631157977E+03  0.00000000000E+00 0.  1.
         14    1    4    4    0    0 -0.42484677138E+02 -0.44373430894E+02 -0.15041331499E+03  0.16247496572E+03  0.00000000000E+00 0. -1.
         -5    1    5    5    0  501  0.24841393920E+02 -0.37668943667E+02 -0.64772049751E+02  0.79079406913E+02  0.47000000000E+01 0.  1.
         11    1    6    6    0    0  0.48341752415E+02  0.11091970134E+02 -0.19817624359E+02  0.53410626875E+02  0.00000000000E+00 0. -1.
        -12    1    6    6    0    0  0.60470148187E+01  0.68518872173E+02  0.20685946303E+02  0.71828341249E+02  0.00000000000E+00 0.  1.
</event>
<event>
12    1  0.2685360E-002  0.1952426E+03  0.7818608E-02  0.1153816E+00
         -2   -1    0    0    0  501 -0.00000000000E+00  0.00000000000E+00  0.42480570034E+02  0.42480570034E+02  0.00000000000E+00 0. -1.
          2   -1    0    0  502    0  0.00000000000E+00 -0.00000000000E+00 -0.89777019993E+03  0.89777019993E+03  0.00000000000E+00 0.  1.
          6    2    1    2  502    0  0.51482114007E+02  0.77788198874E+02 -0.43859454861E+03  0.48022522995E+03  0.17190020786E+03 0.  0.
         24    2    3    3    0    0  0.93516416913E+02  0.60846506810E+02 -0.39049445031E+03  0.41397107531E+03  0.80240375397E+02 0.  0.
         -6    2    1    2    0  501 -0.51482114007E+02 -0.77788198874E+02 -0.41669508128E+03  0.46002554002E+03  0.17113531124E+03 0.  0.
        -24    2    5    5    0    0 -0.98200613666E+02 -0.46656826735E+02 -0.26754656058E+03  0.30059169239E+03  0.83390547715E+02 0.  0.
          5    1    3    3  502    0 -0.42034302906E+02  0.16941692063E+02 -0.48100098301E+02  0.66254154642E+02  0.47000000000E+01 0. -1.
        -13    1    4    4    0    0  0.56639146703E+02  0.14720570482E+02 -0.30175564301E+03  0.30737787205E+03  0.00000000000E+00 0.  1.
         14    1    4    4    0    0  0.36877270210E+02  0.46125936328E+02 -0.88738807298E+02  0.10659320326E+03  0.00000000000E+00 0. -1.
         -5    1    5    5    0  501  0.46718499659E+02 -0.31131372139E+02 -0.14914852070E+03  0.15943384763E+03  0.47000000000E+01 0.  1.
         13    1    6    6    0    0 -0.57143881598E+02 -0.46557888429E+01 -0.21248429004E+03  0.22008333214E+03  0.00000000000E+00 0. -1.
        -14    1    6    6    0    0 -0.41056732068E+02 -0.42001037892E+02 -0.55062270544E+02  0.80508360246E+02  0.00000000000E+00 0.  1.
</event>
<event>
12    1  0.2685360E-002  0.1868402E+03  0.7818608E-02  0.1161342E+00
         -2   -1    0    0    0  501 -0.00000000000E+00  0.00000000000E+00  0.39536337709E+02  0.39536337709E+02  0.00000000000E+00 0. -1.
          2   -1    0    0  502    0  0.00000000000E+00 -0.00000000000E+00 -0.90246163058E+03  0.90246163058E+03  0.00000000000E+00 0.  1.
          6    2    1    2  502    0 -0.61767030592E+02  0.73922462676E+01 -0.49263432932E+03  0.52571184565E+03  0.17266890530E+03 0.  0.
         24    2    3    3    0    0  0.15020917166E+02  0.38536150214E+02 -0.20396991819E+03  0.22535278731E+03  0.86426202017E+02 0.  0.
         -6    2    1    2    0  501  0.61767030592E+02 -0.73922462676E+01 -0.37029096355E+03  0.41628612264E+03  0.17974684098E+03 0.  0.
        -24    2    5    5    0    0 -0.38729598804E+02 -0.14620007940E+01 -0.15851728597E+03  0.18175484360E+03  0.80031081160E+02 0.  0.
          5    1    3    3  502    0 -0.76787947758E+02 -0.31143903947E+02 -0.28866441113E+03  0.30035905834E+03  0.47000000000E+01 0. -1.
        -13    1    4    4    0    0 -0.24279815472E+02  0.28697737805E+02 -0.34215306043E+02  0.50830667536E+02  0.00000000000E+00 0.  1.
         14    1    4    4    0    0  0.39300732639E+02  0.98384124098E+01 -0.16975461215E+03  0.17452211977E+03  0.00000000000E+00 0. -1.
         -5    1    5    5    0  501  0.10049662940E+03 -0.59302454736E+01 -0.21177367758E+03  0.23453127904E+03  0.47000000000E+01 0.  1.
         11    1    6    6    0    0  0.16607716288E+02 -0.12186991423E+02 -0.93333067625E+02  0.95579289140E+02  0.00000000000E+00 0. -1.
        -12    1    6    6    0    0 -0.55337315092E+02  0.10724990629E+02 -0.65184218345E+02  0.86175554462E+02  0.00000000000E+00 0.  1.
</event>
<event>
12    1  0.2685360E-002  0.1804488E+03  0.7818608E-02  0.1167369E+00
         -2   -1    0    0    0  501 -0.00000000000E+00  0.00000000000E+00  0.37345591770E+02  0.37345591770E+02  0.00000000000E+00 0.  1.
          2   -1    0    0  502    0  0.00000000000E+00 -0.00000000000E+00 -0.87262500742E+03  0.87262500742E+03  0.00000000000E+00 0. -1.
          6    2    1    2  502    0 -0.19997989854E+02  0.49857406766E+02 -0.43191519176E+03  0.46830771186E+03  0.17284588367E+03 0.  0.
         24    2    3    3    0    0  0.15487168255E+01  0.49928139743E+02 -0.43391015839E+03  0.44616419218E+03  0.91045280861E+02 0.  0.
         -6    2    1    2    0  501  0.19997989854E+02 -0.49857406766E+02 -0.40336422388E+03  0.44166288733E+03  0.17169079278E+03 0.  0.
        -24    2    5    5    0    0 -0.23898352075E+02 -0.24954924040E+02 -0.97480084120E+02  0.13160769960E+03  0.81390050544E+02 0.  0.
          5    1    3    3  502    0 -0.21546706679E+02 -0.70732977400E-01  0.19949666277E+01  0.22143519678E+02  0.47000000000E+01 0. -1.
        -11    1    4    4    0    0 -0.18762828843E+02  0.47465479322E+02 -0.10632552420E+03  0.11794122506E+03  0.00000000000E+00 0.  1.
         12    1    4    4    0    0  0.20311545668E+02  0.24626604209E+01 -0.32758463419E+03  0.32822296712E+03  0.00000000000E+00 0. -1.
         -5    1    5    5    0  501  0.43896341929E+02 -0.24902482726E+02 -0.30588413976E+03  0.31005518773E+03  0.47000000000E+01 0.  1.
         13    1    6    6    0    0 -0.30567571077E+02  0.42435573292E+01 -0.96852857107E+02  0.10165067688E+03  0.00000000000E+00 0. -1.
        -14    1    6    6    0    0  0.66692190021E+01 -0.29198481369E+02 -0.62722701293E+00  0.29957022717E+02  0.00000000000E+00 0.  1.
</event>
<event>
12    1  0.2685360E-002  0.2134104E+03  0.7818608E-02  0.1138893E+00
         -2   -1    0    0    0  501 -0.00000000000E+00  0.00000000000E+00  0.35240263688E+02  0.35240263688E+02  0.00000000000E+00 0. -1.
          2   -1    0    0  502    0  0.00000000000E+00 -0.00000000000E+00 -0.14102230441E+04  0.14102230441E+04  0.00000000000E+00 0.  1.
          6    2    1    2  502    0 -0.22504843514E+02  0.12542160012E+03 -0.47231859071E+03  0.51741226397E+03  0.16850386946E+03 0.  0.
         24    2    3    3    0    0 -0.47748893091E+02  0.52272682943E+02 -0.13833180795E+03  0.17454598219E+03  0.79487235679E+02 0.  0.
         -6    2    1    2    0  501  0.22504843514E+02 -0.12542160012E+03 -0.90266418971E+03  0.92805104382E+03  0.17389380320E+03 0.  0.
        -24    2    5    5    0    0  0.51661518269E+02 -0.11105562415E+03 -0.86853401042E+03  0.88068595027E+03  0.79083194325E+02 0.  0.
          5    1    3    3  502    0  0.25244049576E+02  0.73148917178E+02 -0.33398678276E+03  0.34286628178E+03  0.47000000000E+01 0. -1.
        -11    1    4    4    0    0 -0.10044705430E+02  0.51795401974E+02 -0.12300513701E+03  0.13384290606E+03  0.00000000000E+00 0.  1.
         12    1    4    4    0    0 -0.37704187661E+02  0.47728096867E+00 -0.15326670938E+02  0.40703076128E+02  0.00000000000E+00 0. -1.
         -5    1    5    5    0  501 -0.29156674755E+02 -0.14365975969E+02 -0.34130179283E+02  0.47365093542E+02  0.47000000000E+01 0.  1.
         13    1    6    6    0    0  0.10128088609E+02 -0.10125828031E+03 -0.55379815997E+03  0.56307035040E+03  0.00000000000E+00 0. -1.
        -14    1    6    6    0    0  0.41533429660E+02 -0.97973438442E+01 -0.31473585045E+03  0.31761559987E+03  0.00000000000E+00 0.  1.
</event>
<event>
12    1  0.2685360E-002  0.2523378E+03  0.7818608E-02  0.1111836E+00
         -4   -1    0    0    0  501 -0.00000000000E+00  0.00000000000E+00  0.86858468340E+03  0.86858468340E+03  0.00000000000E+00 0.  1.
          4   -1    0    0  502    0  0.00000000000E+00 -0.00000000000E+00 -0.85149653064E+02  0.85149653064E+02  0.00000000000E+00 0. -1.
          6    2    1    2  502    0 -0.45444981622E+02 -0.17889193444E+03  0.21266371415E+03  0.32929807807E+03  0.17071554804E+03 0.  0.
         24    2    3    3    0    0 -0.91369931096E+02 -0.16186101444E+03  0.16791951881E+03  0.26279028727E+03  0.79462682955E+02 0.  0.
         -6    2    1    2    0  501  0.45444981622E+02  0.17889193444E+03  0.57077131619E+03  0.62443625840E+03  0.17341618974E+03 0.  0.
        -24    2    5    5    0    0  0.71609779642E+02  0.19440128576E+03  0.49007174295E+03  0.53806700603E+03  0.80162143786E+02 0.  0.
          5    1    3    3  502    0  0.45924949474E+02 -0.17030920000E+02  0.44744195344E+02  0.66507790800E+02  0.47000000000E+01 0. -1.
        -11    1    4    4    0    0 -0.12694809640E+02 -0.90596108407E+02  0.10552563222E+03  0.13965841223E+03  0.00000000000E+00 0.  1.
         12    1    4    4    0    0 -0.78675121456E+02 -0.71264906029E+02  0.62393886590E+02  0.12313187504E+03  0.00000000000E+00 0. -1.
         -5    1    5    5    0  501 -0.26164798021E+02 -0.15509351325E+02  0.80699573237E+02  0.86369252368E+02  0.47000000000E+01 0.  1.
         11    1    6    6    0    0 -0.89424354880E+01  0.53984814379E+02  0.18206799471E+03  0.19011333997E+03  0.00000000000E+00 0. -1.
        -12    1    6    6    0    0  0.80552215130E+02  0.14041647138E+03  0.30800374824E+03  0.34795366607E+03  0.00000000000E+00 0.  1.
</event>
<event>
12    1  0.2685360E-002  0.1939008E+03  0.7818608E-02  0.1154989E+00
          1   -1    0    0  502    0  0.00000000000E+00  0.00000000000E+00  0.56784578456E+03  0.56784578456E+03  0.00000000000E+00 0.  1.
         -1   -1    0    0    0  501 -0.00000000000E+00 -0.00000000000E+00 -0.75667640493E+02  0.75667640493E+02  0.00000000000E+00 0. -1.
          6    2    1    2  502    0  0.79549861617E+02  0.15449689221E+02  0.36323059381E+03  0.41325586826E+03  0.17965821714E+03 0.  0.
         24    2    3    3    0    0 -0.24263368029E+02 -0.78401992995E+01  0.21752666109E+03  0.23278057475E+03  0.78859165228E+02 0.  0.
         -6    2    1    2    0  501 -0.79549861617E+02 -0.15449689221E+02  0.12894755026E+03  0.23025755680E+03  0.17269683948E+03 0.  0.
        -24    2    5    5    0    0 -0.99596026831E+01 -0.59585415689E+02  0.37529615392E+02  0.10709061601E+03  0.80064427536E+02 0.  0.
          5    1    3    3  502    0  0.10381322965E+03  0.23289888521E+02  0.14570393272E+03  0.18047529351E+03  0.47000000000E+01 0. -1.
        -13    1    4    4    0    0  0.21845884174E+02  0.18733295983E+02  0.60845160125E+02  0.67307596483E+02  0.00000000000E+00 0.  1.
         14    1    4    4    0    0 -0.46109252203E+02 -0.26573495282E+02  0.15668150097E+03  0.16547297827E+03  0.00000000000E+00 0. -1.
         -5    1    5    5    0  501 -0.69590258934E+02  0.44135726468E+02  0.91417934864E+02  0.12316694079E+03  0.47000000000E+01 0.  1.
         11    1    6    6    0    0  0.34519426112E+02 -0.16636813421E+02  0.17215490442E+02  0.42008897284E+02  0.00000000000E+00 0. -1.
        -12    1    6    6    0    0 -0.44479028795E+02 -0.42948602268E+02  0.20314124950E+02  0.65081718722E+02  0.00000000000E+00 0.  1.
</event>
<event>
12    1  0.2685360E-002  0.1747789E+03  0.7818608E-02  0.1172954E+00
         -1   -1    0    0    0  501 -0.00000000000E+00  0.00000000000E+00  0.36629223259E+02  0.36629223259E+02  0.00000000000E+00 0.  1.
          1   -1    0    0  502    0  0.00000000000E+00 -0.00000000000E+00 -0.15242453552E+04  0.15242453552E+04  0.00000000000E+00 0. -1.
          6    2    1    2  502    0  0.32357436764E+02 -0.16824447686E+02 -0.12708901356E+04  0.12829634698E+04  0.17176571930E+03 0.  0.
         24    2    3    3    0    0 -0.22827459741E+02  0.14792483474E+02 -0.32695705005E+03  0.33687850367E+03  0.76461121975E+02 0.  0.
         -6    2    1    2    0  501 -0.32357436764E+02  0.16824447686E+02 -0.21672599630E+03  0.27791110862E+03  0.17010103194E+03 0.  0.
        -24    2    5    5    0    0  0.46181670388E+02  0.72434227595E+01 -0.10596329972E+03  0.14171032909E+03  0.81660165500E+02 0.  0.
          5    1    3    3  502    0  0.55184896505E+02 -0.31616931160E+02 -0.94393308556E+03  0.94608496614E+03  0.47000000000E+01 0. -1.
        -13    1    4    4    0    0  0.21777796574E+02 -0.15415255642E+02 -0.12841677052E+03  0.13115932861E+03  0.00000000000E+00 0.  1.
         14    1    4    4    0    0 -0.44605256315E+02  0.30207739115E+02 -0.19854027953E+03  0.20571917507E+03  0.00000000000E+00 0. -1.
         -5    1    5    5    0  501 -0.78539107152E+02  0.95810249264E+01 -0.11076269658E+03  0.13620077953E+03  0.47000000000E+01 0.  1.
         13    1    6    6    0    0  0.36960550164E+02  0.43148869694E+02 -0.68681201355E+02  0.89134811627E+02  0.00000000000E+00 0. -1.
        -14    1    6    6    0    0  0.92211202238E+01 -0.35905446934E+02 -0.37282098368E+02  0.52575517463E+02  0.00000000000E+00 0.  1.
</event>
<event>
12    1  0.2685360E-002  0.2313218E+03  0.7818608E-02  0.1125713E+00
          2   -1    0    0  502    0  0.00000000000E+00  0.00000000000E+00  0.10587218837E+04  0.10587218837E+04  0.00000000000E+00 0.  1.
         -2   -1    0    0    0  501 -0.00000000000E+00 -0.00000000000E+00 -0.51561281547E+02  0.51561281547E+02  0.00000000000E+00 0. -1.
          6    2    1    2  502    0  0.12706591302E+03 -0.91047084965E+02  0.58413357593E+03  0.62871063128E+03  0.17213281333E+03 0.  0.
         24    2    3    3    0    0  0.37605610042E+02  0.14215610713E+02  0.16539215519E+03  0.18774595203E+03  0.79232013784E+02 0.  0.
         -6    2    1    2    0  501 -0.12706591302E+03  0.91047084965E+02  0.42302702621E+03  0.48157253395E+03  0.16889322846E+03 0.  0.
        -24    2    5    5    0    0 -0.11912250427E+03  0.91410890546E+02  0.21624816218E+03  0.27458746515E+03  0.78031317025E+02 0.  0.
          5    1    3    3  502    0  0.89460302978E+02 -0.10526269568E+03  0.41874142074E+03  0.44096467926E+03  0.47000000000E+01 0. -1.
        -11    1    4    4    0    0  0.98839929778E+01  0.33698587072E+02  0.14271979619E+03  0.14697696524E+03  0.00000000000E+00 0.  1.
         12    1    4    4    0    0  0.27721617065E+02 -0.19482976360E+02  0.22672359005E+02  0.40768986783E+02  0.00000000000E+00 0. -1.
         -5    1    5    5    0  501 -0.79434087451E+01 -0.36380558110E+00  0.20677886403E+03  0.20698506880E+03  0.47000000000E+01 0.  1.
         11    1    6    6    0    0  0.10124338169E+02 -0.70964716865E+00  0.17637372795E+02  0.20349023111E+02  0.00000000000E+00 0. -1.
        -12    1    6    6    0    0 -0.12924684244E+03  0.92120537715E+02  0.19861078938E+03  0.25423844204E+03  0.00000000000E+00 0.  1.
</event>
<event>
12    1  0.2685360E-002  0.1796113E+03  0.7818608E-02  0.1168180E+00
         -1   -1    0    0    0  501 -0.00000000000E+00  0.00000000000E+00  0.20620724087E+04  0.20620724087E+04  0.00000000000E+00 0. -1.
          1   -1    0    0  502    0  0.00000000000E+00 -0.00000000000E+00 -0.16358055285E+02  0.16358055285E+02  0.00000000000E+00 0.  1.
          6    2    1    2  502    0  0.44862841200E+02 -0.20210275861E+02  0.80093313954E+03  0.82062737133E+03  0.17179714427E+03 0.  0.
         24    2    3    3    0    0  0.45768251191E+02  0.43725183651E+02  0.35268520626E+03  0.36781740850E+03  0.83043162103E+02 0.  0.
         -6    2    1    2    0  501 -0.44862841200E+02  0.20210275861E+02  0.12447812139E+04  0.12578030927E+04  0.17368713172E+03 0.  0.
        -24    2    5    5    0    0 -0.60506079907E+01 -0.82025959064E+01  0.11366328875E+04  0.11393470619E+04  0.77932753469E+02 0.  0.
          5    1    3    3  502    0 -0.90540999131E+00 -0.63935459513E+02  0.44824793328E+03  0.45280996283E+03  0.47000000000E+01 0. -1.
        -11    1    4    4    0    0  0.59065251244E+02  0.83733894614E+01  0.27552126845E+03  0.28190563479E+03  0.00000000000E+00 0.  1.
         12    1    4    4    0    0 -0.13297000053E+02  0.35351794190E+02  0.77163937810E+02  0.85911773705E+02  0.00000000000E+00 0. -1.
         -5    1    5    5    0  501 -0.38812233209E+02  0.28412871768E+02  0.10814832643E+03  0.11845603083E+03  0.47000000000E+01 0.  1.
         11    1    6    6    0    0 -0.24924039718E+02  0.90848662920E+01  0.99915082975E+03  0.99950293804E+03  0.00000000000E+00 0. -1.
        -12    1    6    6    0    0  0.18873431728E+02 -0.17287462198E+02  0.13748205772E+03  0.13984412382E+03  0.00000000000E+00 0.  1.
</event>
<event>
12    1  0.2685360E-002  0.2896810E+03  0.7818608E-02  0.1090516E+00
          2   -1    0    0  502    0  0.00000000000E+00  0.00000000000E+00  0.22701389993E+04  0.22701389993E+04  0.00000000000E+00 0.  1.
         -2   -1    0    0    0  501 -0.00000000000E+00 -0.00000000000E+00 -0.37187480232E+02  0.37187480232E+02  0.00000000000E+00 0. -1.
          6    2    1    2  502    0  0.17342825033E+03  0.15587439830E+03  0.10273730891E+04  0.10674448352E+04  0.17195588356E+03 0.  0.
         24    2    3    3    0    0  0.84078197600E+02  0.50877669224E+02  0.71432561783E+03  0.72535047056E+03  0.78832330386E+02 0.  0.
         -6    2    1    2    0  501 -0.17342825033E+03 -0.15587439830E+03  0.12055784300E+04  0.12398816444E+04  0.17179335010E+03 0.  0.
        -24    2    5    5    0    0 -0.19631978385E+03 -0.11368233310E+03  0.95278211391E+03  0.98252535420E+03  0.78084471261E+02 0.  0.
          5    1    3    3  502    0  0.89350052729E+02  0.10499672908E+03  0.31304747131E+03  0.34209436467E+03  0.47000000000E+01 0. -1.
        -11    1    4    4    0    0  0.97675323472E+02  0.32672675091E+02  0.56603838027E+03  0.57533244342E+03  0.00000000000E+00 0.  1.
         12    1    4    4    0    0 -0.13597125872E+02  0.18204994133E+02  0.14828723756E+03  0.15001802714E+03  0.00000000000E+00 0. -1.
         -5    1    5    5    0  501  0.22891533519E+02 -0.42192065208E+02  0.25279631606E+03  0.25735629016E+03  0.47000000000E+01 0.  1.
         13    1    6    6    0    0 -0.10236740341E+03 -0.89528905007E+02  0.43599567445E+03  0.45671297141E+03  0.00000000000E+00 0. -1.
        -14    1    6    6    0    0 -0.93952380439E+02 -0.24153428089E+02  0.51678643946E+03  0.52581238279E+03  0.00000000000E+00 0.  1.
</event>
<event>
12    1  0.2685360E-002  0.1791360E+03  0.7818608E-02  0.1168642E+00
          1   -1    0    0  502    0  0.00000000000E+00  0.00000000000E+00  0.22887153715E+04  0.22887153715E+04  0.00000000000E+00 0.  1.
         -1   -1    0    0    0  501 -0.00000000000E+00 -0.00000000000E+00 -0.14577253517E+02  0.14577253517E+02  0.00000000000E+00 0. -1.
          6    2    1    2  502    0  0.29374978166E+02 -0.41256556245E+02  0.13636020266E+04  0.13753511034E+04  0.17209060989E+03 0.  0.
         24    2    3    3    0    0  0.80814329399E+02 -0.25535000805E+01  0.82346680044E+03  0.83137308371E+03  0.80908322754E+02 0.  0.
         -6    2    1    2    0  501 -0.29374978166E+02  0.41256556245E+02  0.91053609142E+03  0.92794152162E+03  0.17156485940E+03 0.  0.
        -24    2    5    5    0    0 -0.21115770591E+02 -0.38771306496E+02  0.35498999092E+03  0.36658046747E+03  0.80089047345E+02 0.  0.
          5    1    3    3  502    0 -0.51439351233E+02 -0.38703056165E+02  0.54013522612E+03  0.54397801969E+03  0.47000000000E+01 0. -1.
        -11    1    4    4    0    0  0.75751323994E+00 -0.29764048219E+02  0.20329803198E+03  0.20546669365E+03  0.00000000000E+00 0.  1.
         12    1    4    4    0    0  0.80056816159E+02  0.27210548139E+02  0.62016876846E+03  0.62590639006E+03  0.00000000000E+00 0. -1.
         -5    1    5    5    0  501 -0.82592075747E+01  0.80027862742E+02  0.55554610050E+03  0.56136105414E+03  0.47000000000E+01 0.  1.
         11    1    6    6    0    0  0.20416299220E+02 -0.31545805573E+02  0.80087896332E+02  0.88464875866E+02  0.00000000000E+00 0. -1.
        -12    1    6    6    0    0 -0.41532069811E+02 -0.72255009235E+01  0.27490209459E+03  0.27811559161E+03  0.00000000000E+00 0.  1.
</event>
<event>
12    1  0.2685360E-002  0.1843197E+03  0.7818608E-02  0.1163687E+00
         -3   -1    0    0    0  501 -0.00000000000E+00  0.00000000000E+00  0.19163401042E+03  0.19163401042E+03  0.00000000000E+00 0.  1.
          3   -1    0    0  502    0  0.00000000000E+00 -0.00000000000E+00 -0.18016584853E+03  0.18016584853E+03  0.00000000000E+00 0. -1.
          6    2    1    2  502    0 -0.43407201827E+02  0.56606397833E+02  0.29200145604E+02  0.18888557647E+03  0.17244315889E+03 0.  0.
         24    2    3    3    0    0 -0.57779402276E+02  0.75145939940E+02  0.67965244669E+02  0.14333233649E+03  0.83303736910E+02 0.  0.
         -6    2    1    2    0  501  0.43407201827E+02 -0.56606397833E+02 -0.17731983718E+02  0.18291428248E+03  0.16749549858E+03 0.  0.
        -24    2    5    5    0    0  0.28738628090E+02 -0.78855840674E+02 -0.61968130950E+02  0.13105744606E+03  0.79321198683E+02 0.  0.
          5    1    3    3  502    0  0.14372200449E+02 -0.18539542108E+02 -0.38765099065E+02  0.45553239982E+02  0.47000000000E+01 0. -1.
        -11    1    4    4    0    0 -0.31276451989E+02 -0.13076306097E+02  0.21691276263E+02  0.40245716493E+02  0.00000000000E+00 0.  1.
         12    1    4    4    0    0 -0.26502950287E+02  0.88222246037E+02  0.46273968406E+02  0.10308661999E+03  0.00000000000E+00 0. -1.
         -5    1    5    5    0  501  0.14668573737E+02  0.22249442841E+02  0.44236147232E+02  0.51856836426E+02  0.47000000000E+01 0.  1.
         13    1    6    6    0    0 -0.77784699061E+01 -0.56054693824E+02 -0.12246817322E+01  0.56605062840E+02  0.00000000000E+00 0. -1.
        -14    1    6    6    0    0  0.36517097996E+02 -0.22801146850E+02 -0.60743449218E+02  0.74452383216E+02  0.00000000000E+00 0.  1.
</event>
<event>
12    1  0.2685360E-002  0.4698614E+03  0.7818608E-02  0.1021959E+00
         -2   -1    0    0    0  501 -0.00000000000E+00  0.00000000000E+00  0.54980824990E+03  0.54980824990E+03  0.00000000000E+00 0. -1.
          2   -1    0    0  502    0  0.00000000000E+00 -0.00000000000E+00 -0.40507756231E+03  0.40507756231E+03  0.00000000000E+00 0.  1.
          6    2    1    2  502    0  0.21487718785E+03 -0.38119687803E+03  0.11703283483E+03  0.48452132134E+03  0.17199116469E+03 0.  0.
         24    2    3    3    0    0  0.19603337801E+03 -0.28414431762E+03  0.14351334139E+03  0.38206354526E+03  0.78799714026E+02 0.  0.
         -6    2    1    2    0  501 -0.21487718785E+03  0.38119687803E+03  0.27697852765E+02  0.47036449088E+03  0.17027130574E+03 0.  0.
        -24    2    5    5    0    0 -0.19031249679E+03  0.28465247390E+03 -0.33596202179E+02  0.35330340774E+03  0.80303896453E+02 0.  0.
          5    1    3    3  502    0  0.18843809836E+02 -0.97052560405E+02 -0.26480506568E+02  0.10245777608E+03  0.47000000000E+01 0. -1.
        -13    1    4    4    0    0  0.30807070120E+02 -0.10806469175E+03  0.38884481182E+02  0.11890776278E+03  0.00000000000E+00 0.  1.
         14    1    4    4    0    0  0.16522630789E+03 -0.17607962587E+03  0.10462886021E+03  0.26315578249E+03  0.00000000000E+00 0. -1.
         -5    1    5    5    0  501 -0.24564691056E+02  0.96544404126E+02  0.61294054944E+02  0.11706108314E+03  0.47000000000E+01 0.  1.
         11    1    6    6    0    0 -0.16497441706E+03  0.21485446992E+03  0.21461557833E+01  0.27089408911E+03  0.00000000000E+00 0. -1.
        -12    1    6    6    0    0 -0.25338079727E+02  0.69798003977E+02 -0.35742357963E+02  0.82409318624E+02  0.00000000000E+00 0.  1.
</event>
<event>
12    1  0.2685360E-002  0.1752358E+03  0.7818608E-02  0.1172495E+00
          1   -1    0    0  502    0  0.00000000000E+00  0.00000000000E+00  0.45281793870E+02  0.45281793870E+02  0.00000000000E+00 0.  1.
         -1   -1    0    0    0  501 -0.00000000000E+00 -0.00000000000E+00 -0.71537775970E+03  0.71537775970E+03  0.00000000000E+00 0. -1.
          6    2    1    2  502    0  0.33712025060E+02  0.10892282897E+02 -0.42083555827E+03  0.45565618655E+03  0.17106972489E+03 0.  0.
         24    2    3    3    0    0  0.47237466511E+02 -0.19148334400E+02 -0.41035524769E+03  0.42076631461E+03  0.77812757654E+02 0.  0.
         -6    2    1    2    0  501 -0.33712025060E+02 -0.10892282897E+02 -0.24926040756E+03  0.30500336702E+03  0.17216608452E+03 0.  0.
        -24    2    5    5    0    0 -0.71165875438E+02 -0.39334908807E+02 -0.22338106555E+03  0.25111826500E+03  0.80928769263E+02 0.  0.
          5    1    3    3  502    0 -0.13525441451E+02  0.30040617297E+02 -0.10480310588E+02  0.34889871941E+02  0.47000000000E+01 0. -1.
        -11    1    4    4    0    0 -0.31432055056E+00 -0.33056085867E+01  0.29447987698E+01  0.44382074458E+01  0.00000000000E+00 0.  1.
         12    1    4    4    0    0  0.47551787061E+02 -0.15842725813E+02 -0.41330004646E+03  0.41632810716E+03  0.00000000000E+00 0. -1.
         -5    1    5    5    0  501  0.37453850379E+02  0.28442625910E+02 -0.25879342011E+02  0.53885102020E+02  0.47000000000E+01 0.  1.
         13    1    6    6    0    0 -0.53803438621E+02 -0.24468166198E+02 -0.53552007917E+02  0.79757875577E+02  0.00000000000E+00 0. -1.
        -14    1    6    6    0    0 -0.17362436817E+02 -0.14866742609E+02 -0.16982905763E+03  0.17136038942E+03  0.00000000000E+00 0.  1.
</event>
<event>
12    1  0.2685360E-002  0.1891225E+03  0.7818608E-02  0.1159255E+00
         -2   -1    0    0    0  501 -0.00000000000E+00  0.00000000000E+00  0.28307366142E+02  0.28307366142E+02  0.00000000000E+00 0.  1.
          2   -1    0    0  502    0  0.00000000000E+00 -0.00000000000E+00 -0.13528650218E+04  0.13528650218E+04  0.00000000000E+00 0. -1.
          6    2    1    2  502    0  0.70800593984E+02  0.41288649815E+02 -0.48706195613E+03  0.52273759596E+03  0.17119511793E+03 0.  0.
         24    2    3    3    0    0  0.78923244072E+02 -0.20003038274E+02 -0.40045241937E+03  0.41622022493E+03  0.79045148257E+02 0.  0.
         -6    2    1    2    0  501 -0.70800593984E+02 -0.41288649815E+02 -0.83749569954E+03  0.85843479200E+03  0.16968726721E+03 0.  0.
        -24    2    5    5    0    0 -0.34317485583E+02 -0.83299252076E+02 -0.41120240134E+03  0.42849994345E+03  0.80052054699E+02 0.  0.
          5    1    3    3  502    0 -0.81226500876E+01  0.61291688089E+02 -0.86609536758E+02  0.10651737103E+03  0.47000000000E+01 0. -1.
        -11    1    4    4    0    0  0.32388693933E+02  0.30716449454E+02 -0.15526379376E+03  0.16155300497E+03  0.00000000000E+00 0.  1.
         12    1    4    4    0    0  0.46534550139E+02 -0.50719487728E+02 -0.24518862561E+03  0.25466721996E+03  0.00000000000E+00 0. -1.
         -5    1    5    5    0  501 -0.36483108401E+02  0.42010602261E+02 -0.42629329820E+03  0.42993484855E+03  0.47000000000E+01 0.  1.
         11    1    6    6    0    0 -0.58917318870E+02 -0.69419659047E+02 -0.33763596018E+03  0.34969755666E+03  0.00000000000E+00 0. -1.
        -12    1    6    6    0    0  0.24599833287E+02 -0.13879593029E+02 -0.73566441158E+02  0.78802386798E+02  0.00000000000E+00 0.  1.
</event>
<event>
12    1  0.2685360E-002  0.2182028E+03  0.7818608E-02  0.1135230E+00
          2   -1    0    0  502    0  0.00000000000E+00  0.00000000000E+00  0.48684006602E+03  0.48684006602E+03  0.00000000000E+00 0. -1.
         -2   -1    0    0    0  501 -0.00000000000E+00 -0.00000000000E+00 -0.10934967546E+03  0.10934967546E+03  0.00000000000E+00 0.  1.
          6    2    1    2  502    0 -0.11368732747E+03 -0.48224520665E+02  0.28282233533E+03  0.35511566935E+03  0.17569363231E+03 0.  0.
         24    2    3    3    0    0  0.13700844850E+02 -0.37712187108E+02  0.86106526690E+02  0.12047241892E+03  0.74090131430E+02 0.  0.
         -6    2    1    2    0  501  0.11368732747E+03  0.48224520665E+02  0.94668055230E+02  0.24107407213E+03  0.18413108035E+03 0.  0.
        -24    2    5    5    0    0  0.83040698636E+02  0.26553910837E+02  0.13949888457E+03  0.18241638339E+03  0.78834829359E+02 0.  0.
          5    1    3    3  502    0 -0.12738817232E+03 -0.10512333557E+02  0.19671580864E+03  0.23464325043E+03  0.47000000000E+01 0. -1.
        -11    1    4    4    0    0 -0.30648237711E+02 -0.15048106813E+02  0.30013344473E+02  0.45459441702E+02  0.00000000000E+00 0.  1.
         12    1    4    4    0    0  0.44349082560E+02 -0.22664080295E+02  0.56093182217E+02  0.75012977216E+02  0.00000000000E+00 0. -1.
         -5    1    5    5    0  501  0.30646628829E+02  0.21670609828E+02 -0.44830829343E+02  0.58657688741E+02  0.47000000000E+01 0.  1.
         13    1    6    6    0    0  0.22205800928E+02 -0.26011501257E+02  0.61663825180E+02  0.70513283347E+02  0.00000000000E+00 0. -1.
        -14    1    6    6    0    0  0.60834897709E+02  0.52565412094E+02  0.77835059393E+02  0.11190310004E+03  0.00000000000E+00 0.  1.
</event>
<event>
12    1  0.2685360E-002  0.1737234E+03  0.7818608E-02  0.1174020E+00
         -1   -1    0    0    0  501 -0.00000000000E+00  0.00000000000E+00  0.62289138197E+02  0.62289138197E+02  0.00000000000E+00 0.  1.
          1   -1    0    0  502    0  0.00000000000E+00 -0.00000000000E+00 -0.49617238615E+03  0.49617238615E+03  0.00000000000E+00 0. -1.
          6    2    1    2  502    0 -0.38643849266E+02 -0.14216050913E+02 -0.26305538304E+03  0.31687684054E+03  0.17180615336E+03 0.  0.
         24    2    3    3    0    0 -0.41491412468E+02 -0.33943029237E+02 -0.60568064391E+02  0.11335665357E+03  0.79420236348E+02 0.  0.
         -6    2    1    2    0  501  0.38643849266E+02  0.14216050913E+02 -0.17082786491E+03  0.24158468381E+03  0.16578768601E+03 0.  0.
        -24    2    5    5    0    0  0.28871462323E+02  0.34334212746E+02 -0.19011223515E+03  0.21168122385E+03  0.81571312836E+02 0.  0.
          5    1    3    3  502    0  0.28475632026E+01  0.19726978323E+02 -0.20248731865E+03  0.20352018697E+03  0.47000000000E+01 0. -1.
        -11    1    4    4    0    0 -0.48653257268E+02  0.76600532144E+01 -0.15567013692E+02  0.51654116712E+02  0.00000000000E+00 0.  1.
         12    1    4    4    0    0  0.71618447998E+01 -0.41603082451E+02 -0.45001050699E+02  0.61702536856E+02  0.00000000000E+00 0. -1.
         -5    1    5    5    0  501  0.97723869430E+01 -0.20118161833E+02  0.19284370234E+02  0.29903459957E+02  0.47000000000E+01 0.  1.
         11    1    6    6    0    0  0.43298836801E+02  0.21472343279E+02 -0.47499506086E+02  0.67764694883E+02  0.00000000000E+00 0. -1.
        -12    1    6    6    0    0 -0.14427374478E+02  0.12861869467E+02 -0.14261272906E+03  0.14391652897E+03  0.00000000000E+00 0.  1.
</event>
<event>
12    1  0.2685360E-002  0.1857111E+03  0.7818608E-02  0.1162387E+00
          2   -1    0    0  502    0  0.00000000000E+00  0.00000000000E+00  0.64012384014E+03  0.64012384014E+03  0.00000000000E+00 0.  1.
         -2   -1    0    0    0  501 -0.00000000000E+00 -0.00000000000E+00 -0.72079249694E+02  0.72079249694E+02  0.00000000000E+00 0. -1.
          6    2    1    2  502    0 -0.68370982464E+02  0.19219868624E+02  0.46535952636E+03  0.50184533585E+03  0.17391163777E+03 0.  0.
         24    2    3    3    0    0 -0.36477632210E+02 -0.48131445971E+02  0.17838373368E+03  0.20531442523E+03  0.81767982889E+02 0.  0.
         -6    2    1    2    0  501  0.68370982464E+02 -0.19219868624E+02  0.10268506409E+03  0.21035775398E+03  0.16929904808E+03 0.  0.
        -24    2    5    5    0    0 -0.22624205591E+02 -0.29278638325E+02  0.29319358202E+02  0.92944296927E+02  0.80062002380E+02 0.  0.
          5    1    3    3  502    0 -0.31893350254E+02  0.67351314594E+02  0.28697579268E+03  0.29653091062E+03  0.47000000000E+01 0. -1.
        -13    1    4    4    0    0 -0.51667880696E+02 -0.59326298019E+00  0.86792002027E+02  0.10100877919E+03  0.00000000000E+00 0.  1.
         14    1    4    4    0    0  0.15190248486E+02 -0.47538182991E+02  0.91591731648E+02  0.10430564605E+03  0.00000000000E+00 0. -1.
         -5    1    5    5    0  501  0.90995188055E+02  0.10058769701E+02  0.73365705887E+02  0.11741345705E+03  0.47000000000E+01 0.  1.
         13    1    6    6    0    0  0.11091248523E+02 -0.46135865392E+02  0.28273117353E+02  0.55234980168E+02  0.00000000000E+00 0. -1.
        -14    1    6    6    0    0 -0.33715454114E+02  0.16857227067E+02  0.10462408489E+01  0.37709316759E+02  0.00000000000E+00 0.  1.
</event>
<event>
12    1  0.2685360E-002  0.1976754E+03  0.7818608E-02  0.1151715E+00
         -2   -1    0    0    0  501 -0.00000000000E+00  0.00000000000E+00  0.51737313830E+02  0.51737313830E+02  0.00000000000E+00 0.  1.
          2   -1    0    0  502    0  0.00000000000E+00 -0.00000000000E+00 -0.82140977634E+03  0.82140977634E+03  0.00000000000E+00 0. -1.
          6    2    1    2  502    0 -0.22729473819E+02 -0.96485445444E+02 -0.51124015944E+03  0.54864520927E+03  0.17268177341E+03 0.  0.
         24    2    3    3    0    0  0.24817896551E+02 -0.86384220739E+02 -0.19737696843E+03  0.23100550797E+03  0.79546938753E+02 0.  0.
         -6    2    1    2    0  501  0.22729473819E+02  0.96485445444E+02 -0.25843230307E+03  0.32450188090E+03  0.16937575173E+03 0.  0.
        -24    2    5    5    0    0  0.31368852536E+02  0.31378922266E+02 -0.23805798803E+03  0.25557655218E+03  0.81725924220E+02 0.  0.
          5    1    3    3  502    0 -0.47547370370E+02 -0.10101224705E+02 -0.31386319101E+03  0.31763970130E+03  0.47000000000E+01 0. -1.
        -13    1    4    4    0    0 -0.10693012974E+02 -0.17039804387E+02 -0.14641538548E+01  0.20170255490E+02  0.00000000000E+00 0.  1.
         14    1    4    4    0    0  0.35510909525E+02 -0.69344416352E+02 -0.19591281457E+03  0.21083525248E+03  0.00000000000E+00 0. -1.
         -5    1    5    5    0  501 -0.86393787162E+01  0.65106523178E+02 -0.20374315039E+02  0.68925328714E+02  0.47000000000E+01 0.  1.
         11    1    6    6    0    0  0.93234829402E+01  0.38833966715E+01 -0.21075189055E+03  0.21099376169E+03  0.00000000000E+00 0. -1.
        -12    1    6    6    0    0  0.22045369595E+02  0.27495525595E+02 -0.27306097482E+02  0.44582790492E+02  0.00000000000E+00 0.  1.
</event>
<event>
12    1  0.2685360E-002  0.2198872E+03  0.7818608E-02  0.1133967E+00
          3   -1    0    0  502    0  0.00000000000E+00  0.00000000000E+00  0.41121666889E+02  0.41121666889E+02  0.00000000000E+00 0.  1.
         -3   -1    0    0    0  501 -0.00000000000E+00 -0.00000000000E+00 -0.12056783022E+04  0.12056783022E+04  0.00000000000E+00 0. -1.
          6    2    1    2  502    0  0.13128641429E+03 -0.35520684691E+02 -0.48334655263E+03  0.53088742972E+03  0.17239411673E+03 0.  0.
         24    2    3    3    0    0  0.71895454627E+02 -0.82910159949E+02 -0.23140265422E+03  0.26769383862E+03  0.77908612072E+02 0.  0.
         -6    2    1    2    0  501 -0.13128641429E+03  0.35520684691E+02 -0.68121008272E+03  0.71591253941E+03  0.17316392712E+03 0.  0.
        -24    2    5    5    0    0 -0.89222489019E+02 -0.33397366406E+02 -0.49796624596E+03  0.51561409885E+03  0.93869484867E+02 0.  0.
          5    1    3    3  502    0  0.59390959662E+02  0.47389475258E+02 -0.25194389841E+03  0.26319359111E+03  0.47000000000E+01 0. -1.
        -13    1    4    4    0    0  0.35541932464E+02  0.79462220482E-01 -0.28766196070E+02  0.45724493588E+02  0.00000000000E+00 0.  1.
         14    1    4    4    0    0  0.36353522163E+02 -0.82989622170E+02 -0.20263645815E+03  0.22196934503E+03  0.00000000000E+00 0. -1.
         -5    1    5    5    0  501 -0.42063925271E+02  0.68918051097E+02 -0.18324383677E+03  0.20029844055E+03  0.47000000000E+01 0.  1.
         11    1    6    6    0    0 -0.62634713116E+02 -0.33452072684E+02 -0.47559493658E+03  0.48086660536E+03  0.00000000000E+00 0. -1.
        -12    1    6    6    0    0 -0.26587775903E+02  0.54706278508E-01 -0.22371309379E+02  0.34747493486E+02  0.00000000000E+00 0.  1.
</event>
<event>
12    1  0.2685360E-002  0.2120308E+03  0.7818608E-02  0.1139968E+00
          1   -1    0    0  502    0  0.00000000000E+00  0.00000000000E+00  0.84020400895E+02  0.84020400895E+02  0.00000000000E+00 0.  1.
         -1   -1    0    0    0  501 -0.00000000000E+00 -0.00000000000E+00 -0.70725088413E+03  0.70725088413E+03  0.00000000000E+00 0. -1.
          6    2    1    2  502    0  0.90504334357E+02  0.81921136797E+02 -0.50555567789E+03  0.54778365130E+03  0.17198336545E+03 0.  0.
         24    2    3    3    0    0  0.66471419043E+02  0.94367526909E+02 -0.50070803702E+03  0.51988950734E+03  0.79075165618E+02 0.  0.
         -6    2    1    2    0  501 -0.90504334357E+02 -0.81921136797E+02 -0.11767480534E+03  0.24348763373E+03  0.17474770606E+03 0.  0.
        -24    2    5    5    0    0  0.16453454713E+02 -0.96741887144E+01 -0.27523044210E+02  0.85978839731E+02  0.79186721233E+02 0.  0.
          5    1    3    3  502    0  0.24032915315E+02 -0.12446390111E+02 -0.48476408685E+01  0.27894143961E+02  0.47000000000E+01 0. -1.
        -11    1    4    4    0    0  0.55930365462E+02  0.10283678142E+03 -0.36048227747E+03  0.37901330025E+03  0.00000000000E+00 0.  1.
         12    1    4    4    0    0  0.10541053581E+02 -0.84692545124E+01 -0.14022575955E+03  0.14087620709E+03  0.00000000000E+00 0. -1.
         -5    1    5    5    0  501 -0.10695778907E+03 -0.72246948083E+02 -0.90151761135E+02  0.15750879400E+03  0.47000000000E+01 0.  1.
         11    1    6    6    0    0  0.29007851780E+01 -0.43642620437E+02 -0.22105176355E+02  0.49007465706E+02  0.00000000000E+00 0. -1.
        -12    1    6    6    0    0  0.13552669535E+02  0.33968431722E+02 -0.54178678544E+01  0.36971374025E+02  0.00000000000E+00 0.  1.
</event>
<event>
12    1  0.2685360E-002  0.1942118E+03  0.7818608E-02  0.1154716E+00
          2   -1    0    0  502    0  0.00000000000E+00  0.00000000000E+00  0.57902638418E+03  0.57902638418E+03  0.00000000000E+00 0.  1.
         -2   -1    0    0    0  501 -0.00000000000E+00 -0.00000000000E+00 -0.65241427834E+02  0.65241427834E+02  0.00000000000E+00 0. -1.
          6    2    1    2  502    0  0.79445868566E+02  0.33573992339E+02  0.24435860321E+03  0.31219168417E+03  0.17410818967E+03 0.  0.
         24    2    3    3    0    0  0.33790010434E+02 -0.44710322769E+02  0.17506628151E+03  0.19801459707E+03  0.73626082073E+02 0.  0.
         -6    2    1    2    0  501 -0.79445868566E+02 -0.33573992339E+02  0.26942635314E+03  0.33207612785E+03  0.17391128751E+03 0.  0.
        -24    2    5    5    0    0  0.86802133686E+01 -0.58706676066E+02  0.17149010032E+03  0.19786935557E+03  0.78877166828E+02 0.  0.
          5    1    3    3  502    0  0.45655858131E+02  0.78284315109E+02  0.69292321692E+02  0.11417708710E+03  0.47000000000E+01 0. -1.
        -11    1    4    4    0    0  0.52610264808E+02 -0.22309230606E+02  0.14594736535E+03  0.15673600476E+03  0.00000000000E+00 0.  1.
         12    1    4    4    0    0 -0.18820254374E+02 -0.22401092164E+02  0.29118916161E+02  0.41278592312E+02  0.00000000000E+00 0. -1.
         -5    1    5    5    0  501 -0.88126081934E+02  0.25132683727E+02  0.97936252822E+02  0.13420677228E+03  0.47000000000E+01 0.  1.
         13    1    6    6    0    0  0.35908228673E+02 -0.59519101478E+02  0.10402479871E+03  0.12511228186E+03  0.00000000000E+00 0. -1.
        -14    1    6    6    0    0 -0.27228015304E+02  0.81242541187E+00  0.67465301614E+02  0.72757073706E+02  0.00000000000E+00 0.  1.
</event>
<event>
12    1  0.2685360E-002  0.1842710E+03  0.7818608E-02  0.1163732E+00
         -2   -1    0    0    0  501 -0.00000000000E+00  0.00000000000E+00  0.93553356258E+02  0.93553356258E+02  0.00000000000E+00 0.  1.
          2   -1    0    0  502    0  0.00000000000E+00 -0.00000000000E+00 -0.36334057734E+03  0.36334057734E+03  0.00000000000E+00 0. -1.
          6    2    1    2  502    0  0.63322187795E+02 -0.53255366127E+01 -0.12780080825E+03  0.22460681382E+03  0.17342754515E+03 0.  0.
         24    2    3    3    0    0  0.11663887955E+02  0.57678340744E+02 -0.69716203829E+02  0.12443705903E+03  0.84625027682E+02 0.  0.
         -6    2    1    2    0  501 -0.63322187795E+02  0.53255366127E+01 -0.14198641283E+03  0.23228711978E+03  0.17250827162E+03 0.  0.
        -24    2    5    5    0    0 -0.90593748907E+02  0.50559583123E+02 -0.95676064439E+02  0.16188402768E+03  0.79303406758E+02 0.  0.
          5    1    3    3  502    0  0.51658299839E+02 -0.63003877357E+02 -0.58084604418E+02  0.10016975479E+03  0.47000000000E+01 0. -1.
        -13    1    4    4    0    0  0.45037834650E+02  0.45324675773E+02 -0.28445230215E+02  0.69941860898E+02  0.00000000000E+00 0.  1.
         14    1    4    4    0    0 -0.33373946695E+02  0.12353664971E+02 -0.41270973614E+02  0.54495198130E+02  0.00000000000E+00 0. -1.
         -5    1    5    5    0  501  0.27271561112E+02 -0.45234046510E+02 -0.46310348392E+02  0.70403092101E+02  0.47000000000E+01 0.  1.
         11    1    6    6    0    0  0.88103045894E+01  0.19067530659E+02 -0.36168969900E+02  0.41825668865E+02  0.00000000000E+00 0. -1.
        -12    1    6    6    0    0 -0.99404053496E+02  0.31492052463E+02 -0.59507094540E+02  0.12005835881E+03  0.00000000000E+00 0.  1.
</event>
<event>
12    1  0.2685360E-002  0.1976434E+03  0.7818608E-02  0.1151743E+00
          2   -1    0    0  502    0  0.00000000000E+00  0.00000000000E+00  0.28455704552E+03  0.28455704552E+03  0.00000000000E+00 0.  1.
         -2   -1    0    0    0  501 -0.00000000000E+00 -0.00000000000E+00 -0.13769717780E+03  0.13769717780E+03  0.00000000000E+00 0. -1.
          6    2    1    2  502    0  0.94378923303E+02  0.69182692825E+01  0.61776984396E+02  0.20712801500E+03  0.17358103347E+03 0.  0.
         24    2    3    3    0    0  0.11180436300E+02  0.58557722232E+02  0.23171832843E+02  0.10176640402E+03  0.79154647125E+02 0.  0.
         -6    2    1    2    0  501 -0.94378923303E+02 -0.69182692825E+01  0.85082883318E+02  0.21512620832E+03  0.17345012211E+03 0.  0.
        -24    2    5    5    0    0 -0.66539582075E+02 -0.68870785383E+02  0.80846156092E+02  0.14691196473E+03  0.76657180774E+02 0.  0.
          5    1    3    3  502    0  0.83198487003E+02 -0.51639452949E+02  0.38605151553E+02  0.10536161097E+03  0.47000000000E+01 0. -1.
        -11    1    4    4    0    0 -0.46737155533E+01 -0.14962039563E+02  0.21411563197E+02  0.26536037450E+02  0.00000000000E+00 0.  1.
         12    1    4    4    0    0  0.15854151853E+02  0.73519761795E+02  0.17602696458E+01  0.75230366572E+02  0.00000000000E+00 0. -1.
         -5    1    5    5    0  501 -0.27839341228E+02  0.61952516100E+02  0.42367272265E+01  0.68214243591E+02  0.47000000000E+01 0.  1.
         11    1    6    6    0    0  0.64228093982E+01  0.16027427864E+01 -0.91575632356E+01  0.11299656164E+02  0.00000000000E+00 0. -1.
        -12    1    6    6    0    0 -0.72962391473E+02 -0.70473528169E+02  0.90003719327E+02  0.13561230857E+03  0.00000000000E+00 0.  1.
</event>
<event>
12    1  0.2685360E-002  0.1806675E+03  0.7818608E-02  0.1167159E+00
         -2   -1    0    0    0  501 -0.00000000000E+00  0.00000000000E+00  0.53342953768E+02  0.53342953768E+02  0.00000000000E+00 0. -1.
          2   -1    0    0  502    0  0.00000000000E+00 -0.00000000000E+00 -0.63584628568E+03  0.63584628568E+03  0.00000000000E+00 0.  1.
          6    2    1    2  502    0  0.55372493135E+02  0.56140060106E+01 -0.22542545435E+03  0.28930615346E+03  0.17257979286E+03 0.  0.
         24    2    3    3    0    0  0.73003401183E+02 -0.18128060378E+02 -0.23427787321E+03  0.25808132432E+03  0.77857080164E+02 0.  0.
         -6    2    1    2    0  501 -0.55372493135E+02 -0.56140060106E+01 -0.35707787757E+03  0.39988308599E+03  0.17118481754E+03 0.  0.
        -24    2    5    5    0    0 -0.58870971751E+02 -0.49774469521E+02 -0.14115201267E+03  0.17940983359E+03  0.79502884092E+02 0.  0.
          5    1    3    3  502    0 -0.17630908048E+02  0.23742066388E+02  0.88524188607E+01  0.31224829138E+02  0.47000000000E+01 0. -1.
        -11    1    4    4    0    0  0.78967709907E+01  0.18480992811E+02 -0.11923813329E+03  0.12091996740E+03  0.00000000000E+00 0.  1.
         12    1    4    4    0    0  0.65106630192E+02 -0.36609053189E+02 -0.11503973992E+03  0.13716135692E+03  0.00000000000E+00 0. -1.
         -5    1    5    5    0  501  0.34984786169E+01  0.44160463510E+02 -0.21592586490E+03  0.22047325240E+03  0.47000000000E+01 0.  1.
         13    1    6    6    0    0 -0.51809167093E+02  0.22111295854E+01 -0.40105041725E+02  0.65555268748E+02  0.00000000000E+00 0. -1.
        -14    1    6    6    0    0 -0.70618046587E+01 -0.51985599106E+02 -0.10104697094E+03  0.11385456484E+03  0.00000000000E+00 0.  1.
</event>
<event>
12    1  0.2685360E-002  0.1797431E+03  0.7818608E-02  0.1168052E+00
          2   -1    0    0  502    0  0.00000000000E+00  0.00000000000E+00  0.34002405260E+03  0.34002405260E+03  0.00000000000E+00 0. -1.
         -2   -1    0    0    0  501 -0.00000000000E+00 -0.00000000000E+00 -0.12678785419E+03  0.12678785419E+03  0.00000000000E+00 0.  1.
          6    2    1    2  502    0  0.31291957601E+02  0.37221044463E+02  0.22398414924E+03  0.28794361469E+03  0.17429295273E+03 0.  0.
         24    2    3    3    0    0 -0.10349586874E+02  0.89352794339E+01  0.30199723812E+02  0.87672308040E+02  0.81163151194E+02 0.  0.
         -6    2    1    2    0  501 -0.31291957601E+02 -0.37221044463E+02 -0.10747950829E+02  0.17886829210E+03  0.17179567722E+03 0.  0.
        -24    2    5    5    0    0 -0.23322611950E+02 -0.91570589388E+02 -0.75332955376E+01  0.12364322975E+03  0.79383755593E+02 0.  0.
          5    1    3    3  502    0  0.41641544474E+02  0.28285765029E+02  0.19378442543E+03  0.20027130665E+03  0.47000000000E+01 0. -1.
        -11    1    4    4    0    0 -0.29697899181E+01 -0.29072881295E+02 -0.10915601093E+02  0.31196192494E+02  0.00000000000E+00 0.  1.
         12    1    4    4    0    0 -0.73797969556E+01  0.38008160729E+02  0.41115324905E+02  0.56476115545E+02  0.00000000000E+00 0. -1.
         -5    1    5    5    0  501 -0.79693456511E+01  0.54349544924E+02 -0.32146552910E+01  0.55225062356E+02  0.47000000000E+01 0.  1.
         11    1    6    6    0    0  0.26872046998E+02 -0.46956558529E+02 -0.14814852189E+02  0.56093717510E+02  0.00000000000E+00 0. -1.
        -12    1    6    6    0    0 -0.50194658948E+02 -0.44614030858E+02  0.72815566519E+01  0.67549512238E+02  0.00000000000E+00 0.  1.
</event>
<event>
12    1  0.2685360E-002  0.1957681E+03  0.7818608E-02  0.1153359E+00
          2   -1    0    0  502    0  0.00000000000E+00  0.00000000000E+00  0.43965525076E+02  0.43965525076E+02  0.00000000000E+00 0.  1.
         -2   -1    0    0    0  501 -0.00000000000E+00 -0.00000000000E+00 -0.10599440090E+04  0.10599440090E+04  0.00000000000E+00 0. -1.
          6    2    1    2  502    0  0.10532171132E+02 -0.94121667789E+02 -0.74143526480E+03  0.76694666248E+03  0.17178799789E+03 0.  0.
         24    2    3    3    0    0  0.68867946054E+02 -0.81332785523E+02 -0.44772899025E+03  0.46719329076E+03  0.80315043587E+02 0.  0.
         -6    2    1    2    0  501 -0.10532171132E+02  0.94121667789E+02 -0.27454321916E+03  0.33696287164E+03  0.17088060949E+03 0.  0.
        -24    2    5    5    0    0 -0.11972195701E+02 -0.50957061566E+01 -0.59975795539E+02  0.10051535052E+03  0.79604899020E+02 0.  0.
          5    1    3    3  502    0 -0.58335774922E+02 -0.12788882266E+02 -0.29370627455E+03  0.29975337172E+03  0.47000000000E+01 0. -1.
        -11    1    4    4    0    0  0.19058402948E+02 -0.11050916973E+01 -0.14994693008E+02  0.24275188341E+02  0.00000000000E+00 0.  1.
         12    1    4    4    0    0  0.49809543106E+02 -0.80227693826E+02 -0.43273429724E+03  0.44291810242E+03  0.00000000000E+00 0. -1.
         -5    1    5    5    0  501  0.14400245687E+01  0.99217373946E+02 -0.21456742362E+03  0.23644752112E+03  0.47000000000E+01 0.  1.
         13    1    6    6    0    0  0.20113727026E+02  0.26281492924E+02 -0.38482074805E+02  0.50755777666E+02  0.00000000000E+00 0. -1.
        -14    1    6    6    0    0 -0.32085922727E+02 -0.31377199081E+02 -0.21493720735E+02  0.49759572852E+02  0.00000000000E+00 0.  1.
</event>
<event>
12    1  0.2685360E-002  0.1807519E+03  0.7818608E-02  0.1167077E+00
          2   -1    0    0  502    0  0.00000000000E+00  0.00000000000E+00  0.26658720323E+04  0.26658720323E+04  0.00000000000E+00 0. -1.
         -2   -1    0    0    0  501 -0.00000000000E+00 -0.00000000000E+00 -0.12311434326E+02  0.12311434326E+02  0.00000000000E+00 0.  1.
          6    2    1    2  502    0 -0.54210532195E+02 -0.24351769940E+02  0.14139267752E+04  0.14253785349E+04  0.17024468188E+03 0.  0.
         24    2    3    3    0    0 -0.99734842875E+02 -0.10715096775E+02  0.85584493878E+03  0.86525725533E+03  0.78343515894E+02 0.  0.
         -6    2    1    2    0  501  0.54210532195E+02  0.24351769940E+02  0.12396338228E+04  0.12528049317E+04  0.17116188776E+03 0.  0.
        -24    2    5    5    0    0  0.23509684431E+02 -0.48084413640E+02  0.83273508472E+03  0.83834357551E+03  0.80668538942E+02 0.  0.
          5    1    3    3  502    0  0.45524310680E+02 -0.13636673166E+02  0.55808183638E+03  0.56012127956E+03  0.47000000000E+01 0. -1.
        -11    1    4    4    0    0 -0.58083874903E+02  0.32999833248E+02  0.43295167806E+03  0.43807520023E+03  0.00000000000E+00 0.  1.
         12    1    4    4    0    0 -0.41650967972E+02 -0.43714930023E+02  0.42289326072E+03  0.42718205510E+03  0.00000000000E+00 0. -1.
         -5    1    5    5    0  501  0.30700847765E+02  0.72436183580E+02  0.40689873810E+03  0.41446135624E+03  0.47000000000E+01 0.  1.
         13    1    6    6    0    0  0.44578362135E+02 -0.38725508251E+02  0.75383993533E+03  0.75614915424E+03  0.00000000000E+00 0. -1.
        -14    1    6    6    0    0 -0.21068677704E+02 -0.93589053893E+01  0.78895149390E+02  0.82194421268E+02  0.00000000000E+00 0.  1.
</event>
<event>
12    1  0.2685360E-002  0.1941769E+03  0.7818608E-02  0.1154747E+00
         -2   -1    0    0    0  501 -0.00000000000E+00  0.00000000000E+00  0.19195048965E+03  0.19195048965E+03  0.00000000000E+00 0.  1.
          2   -1    0    0  502    0  0.00000000000E+00 -0.00000000000E+00 -0.19776805675E+03  0.19776805675E+03  0.00000000000E+00 0. -1.
          6    2    1    2  502    0  0.66232382672E+02  0.60684843425E+02  0.13068376297E+02  0.19573645102E+03  0.17341452380E+03 0.  0.
         24    2    3    3    0    0 -0.72425041656E+01  0.34298160411E+02 -0.44791826875E+02  0.98449714272E+02  0.80356834254E+02 0.  0.
         -6    2    1    2    0  501 -0.66232382672E+02 -0.60684843425E+02 -0.18885943397E+02  0.19398209538E+03  0.17088884028E+03 0.  0.
        -24    2    5    5    0    0 -0.58298471329E+02 -0.77961335022E+02  0.39149654649E+02  0.13273142394E+03  0.81291167566E+02 0.  0.
          5    1    3    3  502    0  0.73474886838E+02  0.26386683014E+02  0.57860203172E+02  0.97286736750E+02  0.47000000000E+01 0. -1.
        -13    1    4    4    0    0  0.84758188019E+01  0.57362197099E+02 -0.20667995334E+02  0.61558323495E+02  0.00000000000E+00 0.  1.
         14    1    4    4    0    0 -0.15718322967E+02 -0.23064036688E+02 -0.24123831540E+02  0.36891390777E+02  0.00000000000E+00 0. -1.
         -5    1    5    5    0  501 -0.79339113433E+01  0.17276491597E+02 -0.58035598046E+02  0.61250671438E+02  0.47000000000E+01 0.  1.
         13    1    6    6    0    0 -0.13219333394E+02 -0.38945625123E+02 -0.22574713909E+02  0.46916204021E+02  0.00000000000E+00 0. -1.
        -14    1    6    6    0    0 -0.45079137935E+02 -0.39015709899E+02  0.61724368558E+02  0.85815219919E+02  0.00000000000E+00 0.  1.
</event>
<event>
12    1  0.2685360E-002  0.1851418E+03  0.7818608E-02  0.1162917E+00
          2   -1    0    0  502    0  0.00000000000E+00  0.00000000000E+00  0.17520639373E+04  0.17520639373E+04  0.00000000000E+00 0.  1.
         -2   -1    0    0    0  501 -0.00000000000E+00 -0.00000000000E+00 -0.22818500505E+02  0.22818500505E+02  0.00000000000E+00 0. -1.
          6    2    1    2  502    0 -0.51209773487E+02 -0.43565447858E+02  0.12020837161E+04  0.12163464226E+04  0.17312703439E+03 0.  0.
         24    2    3    3    0    0 -0.96360927126E+02 -0.26675822632E+02  0.66234934861E+03  0.67444314378E+03  0.78548499639E+02 0.  0.
         -6    2    1    2    0  501  0.51209773487E+02  0.43565447858E+02  0.52716172069E+03  0.55853601523E+03  0.17187964219E+03 0.  0.
        -24    2    5    5    0    0  0.38304247973E+01  0.82454165211E+02  0.25716952737E+03  0.28163348820E+03  0.79799087434E+02 0.  0.
          5    1    3    3  502    0  0.45151153638E+02 -0.16889625226E+02  0.53973436752E+03  0.54190327882E+03  0.47000000000E+01 0. -1.
        -13    1    4    4    0    0  0.18986122351E+01  0.10163307851E+02  0.20285420872E+03  0.20311752152E+03  0.00000000000E+00 0.  1.
         14    1    4    4    0    0 -0.98259539361E+02 -0.36839130483E+02  0.45949513990E+03  0.47132562226E+03  0.00000000000E+00 0. -1.
         -5    1    5    5    0  501  0.47379348690E+02 -0.38888717353E+02  0.26999219332E+03  0.27690252703E+03  0.47000000000E+01 0.  1.
         13    1    6    6    0    0  0.33465399103E+02  0.62207257163E+02  0.11464571522E+03  0.13466000074E+03  0.00000000000E+00 0. -1.
        -14    1    6    6    0    0 -0.29634974305E+02  0.20246908048E+02  0.14252381215E+03  0.14697348746E+03  0.00000000000E+00 0.  1.
</event>
<event>
12    1  0.2685360E-002  0.2567567E+03  0.7818608E-02  0.1109108E+00
          1   -1    0    0  502    0  0.00000000000E+00  0.00000000000E+00  0.22600925959E+03  0.22600925959E+03  0.00000000000E+00 0.  1.
         -1   -1    0    0    0  501 -0.00000000000E+00 -0.00000000000E+00 -0.34895087787E+03  0.34895087787E+03  0.00000000000E+00 0. -1.
          6    2    1    2  502    0 -0.18369189949E+03  0.41935404495E+02 -0.17752618355E+03  0.31058928875E+03  0.17160672585E+03 0.  0.
         24    2    3    3    0    0 -0.16859395912E+03 -0.65540065039E+01 -0.18018881359E+03  0.25951727704E+03  0.80089515442E+02 0.  0.
         -6    2    1    2    0  501  0.18369189949E+03 -0.41935404495E+02  0.54584565275E+02  0.26437084870E+03  0.17723199144E+03 0.  0.
        -24    2    5    5    0    0  0.69280559358E+02  0.11615351746E+02  0.84098039854E+02  0.13456031975E+03  0.78097932387E+02 0.  0.
          5    1    3    3  502    0 -0.15097940364E+02  0.48489410999E+02  0.26626300377E+01  0.51072011718E+02  0.47000000000E+01 0. -1.
        -11    1    4    4    0    0 -0.72694150281E+01 -0.15979107043E+02 -0.46776990161E+02  0.49962616678E+02  0.00000000000E+00 0.  1.
         12    1    4    4    0    0 -0.16132454410E+03  0.94251005387E+01 -0.13341182343E+03  0.20955466036E+03  0.00000000000E+00 0. -1.
         -5    1    5    5    0  501  0.11441134013E+03 -0.53550756241E+02 -0.29513474579E+02  0.12981052895E+03  0.47000000000E+01 0.  1.
         11    1    6    6    0    0  0.13745812443E+02 -0.31393694910E+02  0.34064968238E+02  0.48321149622E+02  0.00000000000E+00 0. -1.
        -12    1    6    6    0    0  0.55534746915E+02  0.43009046656E+02  0.50033071617E+02  0.86239170129E+02  0.00000000000E+00 0.  1.
</event>
<event>
12    1  0.2685360E-002  0.2184782E+03  0.7818608E-02  0.1135023E+00
         -2   -1    0    0    0  501 -0.00000000000E+00  0.00000000000E+00  0.38518436159E+02  0.38518436159E+02  0.00000000000E+00 0. -1.
          2   -1    0    0  502    0  0.00000000000E+00 -0.00000000000E+00 -0.12395814924E+04  0.12395814924E+04  0.00000000000E+00 0.  1.
          6    2    1    2  502    0 -0.10366303656E+03  0.88907464597E+02 -0.61374541993E+03  0.65179384131E+03  0.17175915895E+03 0.  0.
         24    2    3    3    0    0 -0.50385003283E+01  0.58838130203E+02 -0.19879017721E+03  0.22419483818E+03  0.85196706879E+02 0.  0.
         -6    2    1    2    0  501  0.10366303656E+03 -0.88907464597E+02 -0.58731763630E+03  0.62630608723E+03  0.16931257066E+03 0.  0.
        -24    2    5    5    0    0  0.12017449583E+03 -0.33252290357E+02 -0.49701873113E+03  0.51885326510E+03  0.81446100928E+02 0.  0.
          5    1    3    3  502    0 -0.98624536230E+02  0.30069334394E+02 -0.41495524272E+03  0.42759900313E+03  0.47000000000E+01 0. -1.
        -11    1    4    4    0    0 -0.21660405280E+02  0.59053306898E+02 -0.19777951472E+03  0.20754084575E+03  0.00000000000E+00 0.  1.
         12    1    4    4    0    0  0.16621904952E+02 -0.21517669432E+00 -0.10106624855E+01  0.16653992431E+02  0.00000000000E+00 0. -1.
         -5    1    5    5    0  501 -0.16511459276E+02 -0.55655174241E+02 -0.90298905172E+02  0.10745282212E+03  0.47000000000E+01 0.  1.
         11    1    6    6    0    0  0.63340627853E+02 -0.15407333609E+02 -0.11477070247E+03  0.13199142097E+03  0.00000000000E+00 0. -1.
        -12    1    6    6    0    0  0.56833867982E+02 -0.17844956748E+02 -0.38224802866E+03  0.38686184413E+03  0.00000000000E+00 0.  1.
</event>
<event>
12    1  0.2685360E-002  0.1787206E+03  0.7818608E-02  0.1169047E+00
         -2   -1    0    0    0  501 -0.00000000000E+00  0.00000000000E+00  0.63693942358E+02  0.63693942358E+02  0.00000000000E+00 0. -1.
          2   -1    0    0  502    0  0.00000000000E+00 -0.00000000000E+00 -0.63485970093E+03  0.63485970093E+03  0.00000000000E+00 0.  1.
          6    2    1    2  502    0  0.55427211639E+02 -0.29883920559E+02 -0.13010443957E+03  0.22396520159E+03  0.17107899295E+03 0.  0.
         24    2    3    3    0    0  0.17729386414E+02 -0.82761589315E+02 -0.93905712809E+02  0.14946948561E+03  0.79743541566E+02 0.  0.
         -6    2    1    2    0  501 -0.55427211639E+02  0.29883920559E+02 -0.44106131900E+03  0.47458844170E+03  0.16350497662E+03 0.  0.
        -24    2    5    5    0    0 -0.41236740251E+02 -0.38865545769E+02 -0.32054403142E+03  0.33503785874E+03  0.79315139266E+02 0.  0.
          5    1    3    3  502    0  0.37697825225E+02  0.52877668756E+02 -0.36198726766E+02  0.74495715979E+02  0.47000000000E+01 0. -1.
        -11    1    4    4    0    0 -0.29537863298E+02 -0.13651687824E+02 -0.25051234242E+02  0.41066023496E+02  0.00000000000E+00 0.  1.
         12    1    4    4    0    0  0.47267249713E+02 -0.69109901491E+02 -0.68854478566E+02  0.10840346211E+03  0.00000000000E+00 0. -1.
         -5    1    5    5    0  501 -0.14190471388E+02  0.68749466328E+02 -0.12051728758E+03  0.13955058296E+03  0.47000000000E+01 0.  1.
         13    1    6    6    0    0 -0.86223687515E+01 -0.52423872520E+02 -0.11761174429E+03  0.12905475600E+03  0.00000000000E+00 0. -1.
        -14    1    6    6    0    0 -0.32614371500E+02  0.13558326751E+02 -0.20293228714E+03  0.20598310274E+03  0.00000000000E+00 0.  1.
</event>
<event>
12    1  0.2685360E-002  0.1727748E+03  0.7818608E-02  0.1174985E+00
          2   -1    0    0  502    0  0.00000000000E+00  0.00000000000E+00  0.18320375909E+04  0.18320375909E+04  0.00000000000E+00 0.  1.
         -2   -1    0    0    0  501 -0.00000000000E+00 -0.00000000000E+00 -0.18947892351E+02  0.18947892351E+02  0.00000000000E+00 0. -1.
          6    2    1    2  502    0  0.18391379394E+02  0.16225014176E+02  0.56079537225E+03  0.58684749253E+03  0.17116376962E+03 0.  0.
         24    2    3    3    0    0  0.36376838307E+02  0.23088341635E+02  0.14867085372E+03  0.17424684933E+03  0.80016222548E+02 0.  0.
         -6    2    1    2    0  501 -0.18391379394E+02 -0.16225014176E+02  0.12522943263E+04  0.12641379907E+04  0.17088676362E+03 0.  0.
        -24    2    5    5    0    0 -0.71393846184E+02 -0.28632978110E+02  0.88337978866E+03  0.89119932936E+03  0.89215833418E+02 0.  0.
          5    1    3    3  502    0 -0.17985458914E+02 -0.68633274584E+01  0.41212451853E+03  0.41260064321E+03  0.47000000000E+01 0. -1.
        -11    1    4    4    0    0  0.88122672647E+00  0.29307791675E+02  0.13075577021E+03  0.13400296511E+03  0.00000000000E+00 0.  1.
         12    1    4    4    0    0  0.35495611581E+02 -0.62194500401E+01  0.17915083507E+02  0.40243884223E+02  0.00000000000E+00 0. -1.
         -5    1    5    5    0  501  0.53002466790E+02  0.12407963934E+02  0.36891453765E+03  0.37293866137E+03  0.47000000000E+01 0.  1.
         11    1    6    6    0    0  0.32350888332E+01 -0.29170969627E+02  0.98508470704E+02  0.10278779144E+03  0.00000000000E+00 0. -1.
        -12    1    6    6    0    0 -0.74628935017E+02  0.53799151696E+00  0.78487131795E+03  0.78841153792E+03  0.00000000000E+00 0.  1.
</event>
<event>
12    1  0.2685360E-002  0.4067636E+03  0.7818608E-02  0.1041463E+00
         -1   -1    0    0    0  501 -0.00000000000E+00  0.00000000000E+00  0.18898080903E+04  0.18898080903E+04  0.00000000000E+00 0. -1.
          1   -1    0    0  502    0  0.00000000000E+00 -0.00000000000E+00 -0.10576914027E+03  0.10576914027E+03  0.00000000000E+00 0.  1.
          6    2    1    2  502    0  0.36822288630E+03 -0.15717896631E+02  0.47793283406E+03  0.62759809452E+03  0.17211748346E+03 0.  0.
         24    2    3    3    0    0  0.34531917524E+03 -0.56789540877E+01  0.48279038542E+03  0.60169353599E+03  0.98341098689E+02 0.  0.
         -6    2    1    2    0  501 -0.36822288630E+03  0.15717896631E+02  0.13061061160E+04  0.13679791360E+04  0.17210050622E+03 0.  0.
        -24    2    5    5    0    0 -0.24561083386E+03 -0.56421793441E+02  0.86247735127E+03  0.90207526061E+03  0.79777778011E+02 0.  0.
          5    1    3    3  502    0  0.22903711052E+02 -0.10038942543E+02 -0.48575513627E+01  0.25904558529E+02  0.47000000000E+01 0. -1.
        -11    1    4    4    0    0  0.87783540364E+02 -0.43402801114E+02  0.15132777953E+03  0.18024941043E+03  0.00000000000E+00 0.  1.
         12    1    4    4    0    0  0.25753563488E+03  0.37723847026E+02  0.33146260589E+03  0.42144412556E+03  0.00000000000E+00 0. -1.
         -5    1    5    5    0  501 -0.12261205244E+03  0.72139690072E+02  0.44362876469E+03  0.46590387544E+03  0.47000000000E+01 0.  1.
         13    1    6    6    0    0 -0.60592219845E+02 -0.19249915006E+02  0.11783734720E+03  0.13389405038E+03  0.00000000000E+00 0. -1.
        -14    1    6    6    0    0 -0.18501861401E+03 -0.37171878436E+02  0.74464000407E+03  0.76818121023E+03  0.00000000000E+00 0.  1.
</event>
<event>
12    1  0.2685360E-002  0.1817953E+03  0.7818608E-02  0.1166077E+00
         -1   -1    0    0    0  501 -0.00000000000E+00  0.00000000000E+00  0.24952880863E+02  0.24952880863E+02  0.00000000000E+00 0.  1.
          1   -1    0    0  502    0  0.00000000000E+00 -0.00000000000E+00 -0.20882895131E+04  0.20882895131E+04  0.00000000000E+00 0. -1.
          6    2    1    2  502    0  0.27635228513E+02 -0.54129984013E+02 -0.16642697644E+04  0.16739797047E+04  0.16947106503E+03 0.  0.
         24    2    3    3    0    0  0.76887895975E+02 -0.82471803940E+01 -0.93402836847E+03  0.94062737239E+03  0.79944330873E+02 0.  0.
         -6    2    1    2    0  501 -0.27635228513E+02  0.54129984013E+02 -0.39906686781E+03  0.43926268928E+03  0.17321542710E+03 0.  0.
        -24    2    5    5    0    0  0.38747866243E+02  0.16891879825E+02 -0.30686001961E+03  0.31960657984E+03  0.78730943689E+02 0.  0.
          5    1    3    3  502    0 -0.49252667462E+02 -0.45882803619E+02 -0.73024139597E+03  0.73335233232E+03  0.47000000000E+01 0. -1.
        -11    1    4    4    0    0  0.85387084536E+02 -0.19427081607E+02 -0.89256161360E+03  0.89684703254E+03  0.00000000000E+00 0.  1.
         12    1    4    4    0    0 -0.84991885604E+01  0.11179901213E+02 -0.41466754875E+02  0.43780339848E+02  0.00000000000E+00 0. -1.
         -5    1    5    5    0  501 -0.66383094756E+02  0.37238104189E+02 -0.92206848191E+02  0.11965610944E+03  0.47000000000E+01 0.  1.
         13    1    6    6    0    0  0.34381102588E+02  0.38445212534E+02 -0.28084676503E+03  0.28554334174E+03  0.00000000000E+00 0. -1.
        -14    1    6    6    0    0  0.43667636550E+01 -0.21553332709E+02 -0.26013254580E+02  0.34063238095E+02  0.00000000000E+00 0.  1.
</event>
<event>
12    1  0.2685360E-002  0.1805230E+03  0.7818608E-02  0.1167298E+00
          1   -1    0    0  502    0  0.00000000000E+00  0.00000000000E+00  0.23890468542E+04  0.23890468542E+04  0.00000000000E+00 0. -1.
         -1   -1    0    0    0  501 -0.00000000000E+00 -0.00000000000E+00 -0.29879626901E+02  0.29879626901E+02  0.00000000000E+00 0.  1.
          6    2    1    2  502    0  0.56709742418E+02  0.61164882978E+00  0.20721129588E+04  0.20799881071E+04  0.17170335683E+03 0.  0.
         24    2    3    3    0    0  0.54736185466E+02  0.62500170692E+02  0.97686856279E+03  0.98298470647E+03  0.71305138945E+02 0.  0.
         -6    2    1    2    0  501 -0.56709742418E+02 -0.61164882978E+00  0.28705426850E+03  0.33893837398E+03  0.17106343646E+03 0.  0.
        -24    2    5    5    0    0  0.34531314479E+02 -0.14871231857E+02  0.14078036336E+03  0.16588805905E+03  0.79285384601E+02 0.  0.
          5    1    3    3  502    0  0.19735569523E+01 -0.61888521862E+02  0.10952443960E+04  0.10970034006E+04  0.47000000000E+01 0. -1.
        -11    1    4    4    0    0  0.66412065264E+02  0.30369106878E+02  0.75122152012E+03  0.75476262319E+03  0.00000000000E+00 0.  1.
         12    1    4    4    0    0 -0.11675879798E+02  0.32131063814E+02  0.22564704267E+03  0.22822208328E+03  0.00000000000E+00 0. -1.
         -5    1    5    5    0  501 -0.91241056897E+02  0.14259583027E+02  0.14627390514E+03  0.17305031493E+03  0.47000000000E+01 0.  1.
         13    1    6    6    0    0  0.25244621959E+02  0.18886444368E+02  0.12229990292E+03  0.12629827780E+03  0.00000000000E+00 0. -1.
        -14    1    6    6    0    0  0.92866925197E+01 -0.33757676224E+02  0.18480460437E+02  0.39589781257E+02  0.00000000000E+00 0.  1.
</event>
<event>
12    1  0.2685360E-002  0.1752856E+03  0.7818608E-02  0.1172445E+00
          1   -1    0    0  502    0  0.00000000000E+00  0.00000000000E+00  0.17237472177E+04  0.17237472177E+04  0.00000000000E+00 0. -1.
         -1   -1    0    0    0  501 -0.00000000000E+00 -0.00000000000E+00 -0.39819717454E+02  0.39819717454E+02  0.00000000000E+00 0.  1.
          6    2    1    2  502    0  0.67522598072E+01  0.33664993392E+02  0.18593155348E+03  0.25531371338E+03  0.17156813478E+03 0.  0.
         24    2    3    3    0    0 -0.39491925292E+02  0.48050958410E+01  0.35347811800E+02  0.95098322114E+02  0.78813209302E+02 0.  0.
         -6    2    1    2    0  501 -0.67522598072E+01 -0.33664993392E+02  0.14979959467E+04  0.15082532217E+04  0.17221207755E+03 0.  0.
        -24    2    5    5    0    0  0.40085640619E+02  0.27537702331E+02  0.97222839098E+03  0.97684643634E+03  0.81460004499E+02 0.  0.
          5    1    3    3  502    0  0.46244185099E+02  0.28859897551E+02  0.15058374168E+03  0.16021539127E+03  0.47000000000E+01 0. -1.
        -11    1    4    4    0    0 -0.24116006953E+02 -0.99668698703E+01 -0.21863373711E+02  0.34043022727E+02  0.00000000000E+00 0.  1.
         12    1    4    4    0    0 -0.15375918339E+02  0.14771965711E+02  0.57211185511E+02  0.61055299387E+02  0.00000000000E+00 0. -1.
         -5    1    5    5    0  501 -0.46837900426E+02 -0.61202695722E+02  0.52576755576E+03  0.53140678540E+03  0.47000000000E+01 0.  1.
         11    1    6    6    0    0 -0.64098415696E+01 -0.18470706160E+02  0.46594766996E+03  0.46635767840E+03  0.00000000000E+00 0. -1.
        -12    1    6    6    0    0  0.46495482188E+02  0.46008408490E+02  0.50628072101E+03  0.51048875794E+03  0.00000000000E+00 0.  1.
</event>
<event>
12    1  0.2685360E-002  0.2054820E+03  0.7818608E-02  0.1145195E+00
          2   -1    0    0  502    0  0.00000000000E+00  0.00000000000E+00  0.13184294463E+04  0.13184294463E+04  0.00000000000E+00 0.  1.
         -2   -1    0    0    0  501 -0.00000000000E+00 -0.00000000000E+00 -0.32031621875E+02  0.32031621875E+02  0.00000000000E+00 0. -1.
          6    2    1    2  502    0 -0.10350264424E+03  0.44079865870E+02  0.64758833630E+03  0.67900486571E+03  0.17035586988E+03 0.  0.
         24    2    3    3    0    0 -0.25369769277E+02  0.53384457589E+02  0.17928966757E+03  0.20411850592E+03  0.77627662960E+02 0.  0.
         -6    2    1    2    0  501  0.10350264424E+03 -0.44079865870E+02  0.63880948811E+03  0.67145620245E+03  0.17355125401E+03 0.  0.
        -24    2    5    5    0    0  0.67357706433E+02 -0.67495341189E+02  0.25266794166E+03  0.28289201868E+03  0.84226621641E+02 0.  0.
          5    1    3    3  502    0 -0.78132874967E+02 -0.93045917190E+01  0.46829866874E+03  0.47488635979E+03  0.47000000000E+01 0. -1.
        -11    1    4    4    0    0 -0.34698174515E+01 -0.18107697429E+02  0.15567079552E+02  0.24130111999E+02  0.00000000000E+00 0.  1.
         12    1    4    4    0    0 -0.21899951826E+02  0.71492155018E+02  0.16372258802E+03  0.17998839392E+03  0.00000000000E+00 0. -1.
         -5    1    5    5    0  501  0.36144937812E+02  0.23415475319E+02  0.38614154645E+03  0.38856418377E+03  0.47000000000E+01 0.  1.
         11    1    6    6    0    0 -0.65051957257E+01  0.45644606646E+01 -0.19291149584E+01  0.81776131671E+01  0.00000000000E+00 0. -1.
        -12    1    6    6    0    0  0.73862902159E+02 -0.72059801853E+02  0.25459705662E+03  0.27471440552E+03  0.00000000000E+00 0.  1.
</event>
<event>
12    1  0.2685360E-002  0.1927165E+03  0.7818608E-02  0.1156034E+00
          1   -1    0    0  502    0  0.00000000000E+00  0.00000000000E+00  0.44714925738E+03  0.44714925738E+03  0.00000000000E+00 0.  1.
         -1   -1    0    0    0  501 -0.00000000000E+00 -0.00000000000E+00 -0.85205858258E+02  0.85205858258E+02  0.00000000000E+00 0. -1.
          6    2    1    2  502    0  0.63553802629E+02 -0.67183617948E+02  0.14065245316E+03  0.24022284367E+03  0.17138021382E+03 0.  0.
         24    2    3    3    0    0  0.87453813134E+02 -0.46450165387E+02  0.15876453349E+03  0.20346384462E+03  0.79909772107E+02 0.  0.
         -6    2    1    2    0  501 -0.63553802629E+02  0.67183617948E+02  0.22129094596E+03  0.29213227197E+03  0.16678985945E+03 0.  0.
        -24    2    5    5    0    0 -0.23178275358E+02  0.73030628337E+02  0.60945152929E+02  0.12661117339E+03  0.80283076907E+02 0.  0.
          5    1    3    3  502    0 -0.23900010505E+02 -0.20733452561E+02 -0.18112080325E+02  0.36758999047E+02  0.47000000000E+01 0. -1.
        -13    1    4    4    0    0  0.49363777122E+02 -0.57439432771E+02  0.58665626145E+02  0.95800452085E+02  0.00000000000E+00 0.  1.
         14    1    4    4    0    0  0.38090036012E+02  0.10989267383E+02  0.10009890734E+03  0.10766339254E+03  0.00000000000E+00 0. -1.
         -5    1    5    5    0  501 -0.40375527270E+02 -0.58470103893E+01  0.16034579303E+03  0.16552109858E+03  0.47000000000E+01 0.  1.
         13    1    6    6    0    0 -0.50067707750E+02  0.32065604185E+02  0.46633179167E+02  0.75562105120E+02  0.00000000000E+00 0. -1.
        -14    1    6    6    0    0  0.26889432392E+02  0.40965024153E+02  0.14311973762E+02  0.51049068269E+02  0.00000000000E+00 0.  1.
</event>
<event>
12    1  0.2685360E-002  0.1868085E+03  0.7818608E-02  0.1161372E+00
          1   -1    0    0  502    0  0.00000000000E+00  0.00000000000E+00  0.18254052453E+04  0.18254052453E+04  0.00000000000E+00 0.  1.
         -1   -1    0    0    0  501 -0.00000000000E+00 -0.00000000000E+00 -0.32733771984E+02  0.32733771984E+02  0.00000000000E+00 0. -1.
          6    2    1    2  502    0 -0.37183823629E+02  0.63197060962E+02  0.14963913016E+04  0.15080443600E+04  0.17214632962E+03 0.  0.
         24    2    3    3    0    0 -0.82350035115E+01  0.88041057691E+02  0.65839840427E+03  0.66917044550E+03  0.80508280710E+02 0.  0.
         -6    2    1    2    0  501  0.37183823629E+02 -0.63197060962E+02  0.29628017170E+03  0.35009465733E+03  0.17148709482E+03 0.  0.
        -24    2    5    5    0    0  0.53726586819E+02 -0.58984178532E+02  0.31069470047E+03  0.32726309952E+03  0.64840264970E+02 0.  0.
          5    1    3    3  502    0 -0.28948820117E+02 -0.24843996729E+02  0.83799289737E+03  0.83887391448E+03  0.47000000000E+01 0. -1.
        -13    1    4    4    0    0  0.33608701269E+02  0.19822832082E+02  0.24657177956E+03  0.24964000470E+03  0.00000000000E+00 0.  1.
         14    1    4    4    0    0 -0.41843704781E+02  0.68218225610E+02  0.41182662471E+03  0.41953044079E+03  0.00000000000E+00 0. -1.
         -5    1    5    5    0  501 -0.16542763190E+02 -0.42128824297E+01 -0.14414528764E+02  0.22831557805E+02  0.47000000000E+01 0.  1.
         11    1    6    6    0    0  0.13722579855E+02 -0.18325326476E+02  0.18166455526E+02  0.29225791601E+02  0.00000000000E+00 0. -1.
        -12    1    6    6    0    0  0.40004006964E+02 -0.40658852056E+02  0.29252824494E+03  0.29803730792E+03  0.00000000000E+00 0.  1.
</event>
<event>
12    1  0.2685360E-002  0.1858961E+03  0.7818608E-02  0.1162216E+00
         -4   -1    0    0    0  501 -0.00000000000E+00  0.00000000000E+00  0.12774378419E+03  0.12774378419E+03  0.00000000000E+00 0.  1.
          4   -1    0    0  502    0  0.00000000000E+00 -0.00000000000E+00 -0.27088401946E+03  0.27088401946E+03  0.00000000000E+00 0. -1.
          6    2    1    2  502    0  0.44092266357E+02  0.20398389107E+02 -0.63869866547E+02  0.19511028633E+03  0.17784386902E+03 0.  0.
         24    2    3    3    0    0  0.13731862342E+02 -0.44739114909E+02  0.80766542534E+01  0.93311266605E+02  0.80321900408E+02 0.  0.
         -6    2    1    2    0  501 -0.44092266357E+02 -0.20398389107E+02 -0.79270368724E+02  0.20351751731E+03  0.18103968147E+03 0.  0.
        -24    2    5    5    0    0 -0.10395287201E+03  0.14210848966E+02 -0.37736056689E+02  0.12271974169E+03  0.51263800087E+02 0.  0.
          5    1    3    3  502    0  0.30360404016E+02  0.65137504016E+02 -0.71946520801E+02  0.10179901972E+03  0.47000000000E+01 0. -1.
        -11    1    4    4    0    0 -0.16238413680E+02 -0.26245359343E+02  0.36683658281E+02  0.47939500944E+02  0.00000000000E+00 0.  1.
         12    1    4    4    0    0  0.29970276022E+02 -0.18493755566E+02 -0.28607004027E+02  0.45371765661E+02  0.00000000000E+00 0. -1.
         -5    1    5    5    0  501  0.59860605653E+02 -0.34609238073E+02 -0.41534312034E+02  0.80797775621E+02  0.47000000000E+01 0.  1.
         13    1    6    6    0    0 -0.11885159879E+02 -0.11876275738E+01 -0.26033109835E+02  0.28642456114E+02  0.00000000000E+00 0. -1.
        -14    1    6    6    0    0 -0.92067712132E+02  0.15398476540E+02 -0.11702946855E+02  0.94077285579E+02  0.00000000000E+00 0.  1.
</event>
<event>
12    1  0.2685360E-002  0.2104934E+03  0.7818608E-02  0.1141176E+00
         -4   -1    0    0    0  501 -0.00000000000E+00  0.00000000000E+00  0.11495788247E+04  0.11495788247E+04  0.00000000000E+00 0.  1.
          4   -1    0    0  502    0  0.00000000000E+00 -0.00000000000E+00 -0.39797692233E+02  0.39797692233E+02  0.00000000000E+00 0. -1.
          6    2    1    2  502    0  0.12017307512E+03 -0.17254393874E+02  0.66066561931E+03  0.69340630008E+03  0.17202893468E+03 0.  0.
         24    2    3    3    0    0 -0.85794223117E+01 -0.51128493561E+01  0.30522975906E+03  0.31514532741E+03  0.77792183772E+02 0.  0.
         -6    2    1    2    0  501 -0.12017307512E+03  0.17254393874E+02  0.44911551316E+03  0.49597021685E+03  0.17187911376E+03 0.  0.
        -24    2    5    5    0    0 -0.11887937781E+03  0.23312540580E+02  0.20081071288E+03  0.24754369122E+03  0.79228502684E+02 0.  0.
          5    1    3    3  502    0  0.12875249743E+03 -0.12141544518E+02  0.35543586025E+03  0.37826097267E+03  0.47000000000E+01 0. -1.
        -13    1    4    4    0    0  0.27960997141E+02  0.33967222283E+01  0.22286735637E+03  0.22464018701E+03  0.00000000000E+00 0.  1.
         14    1    4    4    0    0 -0.36540419453E+02 -0.85095715844E+01  0.82362402690E+02  0.90505140402E+02  0.00000000000E+00 0. -1.
         -5    1    5    5    0  501 -0.12936973081E+01 -0.60581467055E+01  0.24830480028E+03  0.24842652563E+03  0.47000000000E+01 0.  1.
         11    1    6    6    0    0 -0.93608166754E+02  0.24408160216E+02  0.20007886184E+03  0.22223815631E+03  0.00000000000E+00 0. -1.
        -12    1    6    6    0    0 -0.25271211060E+02 -0.10956196357E+01  0.73185104143E+00  0.25305534904E+02  0.00000000000E+00 0.  1.
</event>
<event>
12    1  0.2685360E-002  0.1731190E+03  0.7818608E-02  0.1174634E+00
         -2   -1    0    0    0  501 -0.00000000000E+00  0.00000000000E+00  0.86961132102E+02  0.86961132102E+02  0.00000000000E+00 0.  1.
          2   -1    0    0  502    0  0.00000000000E+00 -0.00000000000E+00 -0.41699391820E+03  0.41699391820E+03  0.00000000000E+00 0. -1.
          6    2    1    2  502    0 -0.17890953333E+02 -0.76231211756E+01 -0.60155859372E+02  0.18339412189E+03  0.17215248572E+03 0.  0.
         24    2    3    3    0    0 -0.56224863924E+02 -0.23555496000E+02  0.11246175413E+02  0.10066764584E+03  0.79318356908E+02 0.  0.
         -6    2    1    2    0  501  0.17890953333E+02  0.76231211756E+01 -0.26987692672E+03  0.32056092840E+03  0.17189402274E+03 0.  0.
        -24    2    5    5    0    0  0.15480821689E+02 -0.63116113674E+02 -0.15451108082E+03  0.18513118100E+03  0.78591223660E+02 0.  0.
          5    1    3    3  502    0  0.38333910591E+02  0.15932374825E+02 -0.71402034785E+02  0.82726476054E+02  0.47000000000E+01 0. -1.
        -13    1    4    4    0    0 -0.31619613718E+02  0.23914247827E+02  0.23125190684E+02  0.45896248921E+02  0.00000000000E+00 0.  1.
         14    1    4    4    0    0 -0.24605250205E+02 -0.47469743827E+02 -0.11879015271E+02  0.54771396920E+02  0.00000000000E+00 0. -1.
         -5    1    5    5    0  501  0.24101316439E+01  0.70739234849E+02 -0.11536584590E+03  0.13542974741E+03  0.47000000000E+01 0.  1.
         13    1    6    6    0    0 -0.17847708212E+01 -0.13105368112E+02 -0.12267098403E+03  0.12338195331E+03  0.00000000000E+00 0. -1.
        -14    1    6    6    0    0  0.17265592510E+02 -0.50010745562E+02 -0.31840096791E+02  0.61749227688E+02  0.00000000000E+00 0.  1.
</event>
<event>
12    1  0.2685360E-002  0.2136280E+03  0.7818608E-02  0.1138725E+00
         -1   -1    0    0    0  501 -0.00000000000E+00  0.00000000000E+00  0.14130129186E+03  0.14130129186E+03  0.00000000000E+00 0. -1.
          1   -1    0    0  502    0  0.00000000000E+00 -0.00000000000E+00 -0.33150191324E+03  0.33150191324E+03  0.00000000000E+00 0.  1.
          6    2    1    2  502    0 -0.13533951200E+03 -0.57011769011E+01 -0.13478860508E+03  0.25692888081E+03  0.17174165135E+03 0.  0.
         24    2    3    3    0    0 -0.10251342243E+03  0.10022163700E+02 -0.16442713598E+03  0.20975570930E+03  0.79697735202E+02 0.  0.
         -6    2    1    2    0  501  0.13533951200E+03  0.57011769011E+01 -0.55412016305E+02  0.21587432429E+03  0.15868820187E+03 0.  0.
        -24    2    5    5    0    0  0.15236670338E+03  0.33189462567E+02 -0.44110792348E+02  0.18130065283E+03  0.81283528422E+02 0.  0.
          5    1    3    3  502    0 -0.32826089567E+02 -0.15723340601E+02  0.29638530898E+02  0.47173171504E+02  0.47000000000E+01 0. -1.
        -11    1    4    4    0    0  0.79572235083E+01 -0.13883343084E+02 -0.12034476731E+02  0.20022318830E+02  0.00000000000E+00 0.  1.
         12    1    4    4    0    0 -0.11047064594E+03  0.23905506783E+02 -0.15239265925E+03  0.18973339047E+03  0.00000000000E+00 0. -1.
         -5    1    5    5    0  501 -0.17027191382E+02 -0.27488285666E+02 -0.11301223957E+02  0.34573671459E+02  0.47000000000E+01 0.  1.
         13    1    6    6    0    0  0.45428658210E+02  0.86165648860E+01  0.24059321088E+02  0.52123498620E+02  0.00000000000E+00 0. -1.
        -14    1    6    6    0    0  0.10693804517E+03  0.24572897681E+02 -0.68170113437E+02  0.12917715421E+03  0.00000000000E+00 0.  1.
</event>
<event>
12    1  0.2685360E-002  0.2223155E+03  0.7818608E-02  0.1132168E+00
          1   -1    0    0  502    0  0.00000000000E+00  0.00000000000E+00  0.14402987198E+03  0.14402987198E+03  0.00000000000E+00 0. -1.
         -1   -1    0    0    0  501 -0.00000000000E+00 -0.00000000000E+00 -0.37455290555E+03  0.37455290555E+03  0.00000000000E+00 0.  1.
          6    2    1    2  502    0 -0.85083505469E+02 -0.11428149314E+03 -0.19058087541E+03  0.29321657089E+03  0.17133424876E+03 0.  0.
         24    2    3    3    0    0 -0.36446501875E+02  0.84436224854E+01 -0.96779379381E+02  0.13120477262E+03  0.80304432158E+02 0.  0.
         -6    2    1    2    0  501  0.85083505469E+02  0.11428149314E+03 -0.39942158171E+02  0.22536620664E+03  0.16998555386E+03 0.  0.
        -24    2    5    5    0    0  0.94122071595E+02  0.62043663294E+02 -0.79041702675E+02  0.15932568177E+03  0.80179184293E+02 0.  0.
          5    1    3    3  502    0 -0.48637003595E+02 -0.12272511563E+03 -0.93801496025E+02  0.16201179828E+03  0.47000000000E+01 0. -1.
        -11    1    4    4    0    0  0.16678254617E+01  0.37907036502E+02 -0.58246916638E+02  0.69515669859E+02  0.00000000000E+00 0.  1.
         12    1    4    4    0    0 -0.38114327336E+02 -0.29463414017E+02 -0.38532462743E+02  0.61689102756E+02  0.00000000000E+00 0. -1.
         -5    1    5    5    0  501 -0.90385661262E+01  0.52237829846E+02  0.39099544504E+02  0.66040524870E+02  0.47000000000E+01 0.  1.
         11    1    6    6    0    0  0.98262476316E+02  0.54610797770E+02 -0.39929665890E+02  0.11929891744E+03  0.00000000000E+00 0. -1.
        -12    1    6    6    0    0 -0.41404047206E+01  0.74328655232E+01 -0.39112036786E+02  0.40026764329E+02  0.00000000000E+00 0.  1.
</event>
<event>
12    1  0.2685360E-002  0.2041279E+03  0.7818608E-02  0.1146302E+00
          2   -1    0    0  502    0  0.00000000000E+00  0.00000000000E+00  0.86110868375E+03  0.86110868375E+03  0.00000000000E+00 0. -1.
         -2   -1    0    0    0  501 -0.00000000000E+00 -0.00000000000E+00 -0.53012218919E+02  0.53012218919E+02  0.00000000000E+00 0.  1.
          6    2    1    2  502    0  0.85522890870E+02 -0.68349356432E+02  0.26906773943E+03  0.33773459684E+03  0.17228293622E+03 0.  0.
         24    2    3    3    0    0  0.10812430965E+03 -0.55367305787E+01  0.19223911741E+03  0.23584751592E+03  0.83346570297E+02 0.  0.
         -6    2    1    2    0  501 -0.85522890870E+02  0.68349356432E+02  0.53902872540E+03  0.57638630583E+03  0.17228873251E+03 0.  0.
        -24    2    5    5    0    0 -0.88295205310E+02  0.92327928020E+02  0.52872203752E+03  0.54972218315E+03  0.79542417130E+02 0.  0.
          5    1    3    3  502    0 -0.22601418777E+02 -0.62812625853E+02  0.76828622023E+02  0.10188708092E+03  0.47000000000E+01 0. -1.
        -11    1    4    4    0    0  0.59216417510E+02  0.82053855313E+01  0.17034121702E+03  0.18052712447E+03  0.00000000000E+00 0.  1.
         12    1    4    4    0    0  0.48907892138E+02 -0.13742116110E+02  0.21897900394E+02  0.55320391450E+02  0.00000000000E+00 0. -1.
         -5    1    5    5    0  501  0.27723144401E+01 -0.23978571588E+02  0.10306687883E+02  0.26664122672E+02  0.47000000000E+01 0.  1.
         11    1    6    6    0    0 -0.98326891640E+02  0.60489156598E+02  0.37273154601E+03  0.39019984761E+03  0.00000000000E+00 0. -1.
        -12    1    6    6    0    0  0.10031686330E+02  0.31838771421E+02  0.15599049151E+03  0.15952233554E+03  0.00000000000E+00 0.  1.
</event>
<event>
12    1  0.2685360E-002  0.2619688E+03  0.7818608E-02  0.1105966E+00
         -2   -1    0    0    0  501 -0.00000000000E+00  0.00000000000E+00  0.20410301491E+03  0.20410301491E+03  0.00000000000E+00 0.  1.
          2   -1    0    0  502    0  0.00000000000E+00 -0.00000000000E+00 -0.34946288900E+03  0.34946288900E+03  0.00000000000E+00 0. -1.
          6    2    1    2  502    0 -0.17450293776E+03 -0.98579670151E+02 -0.19524975732E+02  0.26504854549E+03  0.17233769215E+03 0.  0.
         24    2    3    3    0    0 -0.13408428205E+03 -0.13725276256E+03 -0.12417550211E+02  0.20846337691E+03  0.80534889555E+02 0.  0.
         -6    2    1    2    0  501  0.17450293776E+03  0.98579670151E+02 -0.12583489836E+03  0.28851735841E+03  0.16504126092E+03 0.  0.
        -24    2    5    5    0    0  0.99969670910E+02 -0.16214575452E+01 -0.97405464188E+02  0.16035419449E+03  0.78924514637E+02 0.  0.
          5    1    3    3  502    0 -0.40418655713E+02  0.38673092407E+02 -0.71074255213E+01  0.56585168583E+02  0.47000000000E+01 0. -1.
        -13    1    4    4    0    0 -0.10221422026E+03 -0.54247479916E+02 -0.25772287125E+02  0.11855271690E+03  0.00000000000E+00 0.  1.
         14    1    4    4    0    0 -0.31870061790E+02 -0.83005282642E+02  0.13354736914E+02  0.89910660008E+02  0.00000000000E+00 0. -1.
         -5    1    5    5    0  501  0.74533266853E+02  0.10020112770E+03 -0.28429434170E+02  0.12816316392E+03  0.47000000000E+01 0.  1.
         13    1    6    6    0    0  0.26174336243E+02  0.24453520089E+02 -0.67790256747E+02  0.76671959883E+02  0.00000000000E+00 0. -1.
        -14    1    6    6    0    0  0.73795334667E+02 -0.26074977634E+02 -0.29615207442E+02  0.83682234608E+02  0.00000000000E+00 0.  1.
</event>
<event>
12    1  0.2685360E-002  0.2946497E+03  0.7818608E-02  0.1087946E+00
          1   -1    0    0  502    0  0.00000000000E+00  0.00000000000E+00  0.10803619412E+04  0.10803619412E+04  0.00000000000E+00 0.  1.
         -1   -1    0    0    0  501 -0.00000000000E+00 -0.00000000000E+00 -0.95854618263E+02  0.95854618263E+02  0.00000000000E+00 0. -1.
          6    2    1    2  502    0  0.13837101281E+03  0.19547823819E+03  0.25594242412E+03  0.39036154397E+03  0.17180608764E+03 0.  0.
         24    2    3    3    0    0  0.82416756709E+02  0.60078291946E+02  0.18830193528E+03  0.22892626297E+03  0.80917810764E+02 0.  0.
         -6    2    1    2    0  501 -0.13837101281E+03 -0.19547823819E+03  0.72856489880E+03  0.78585501548E+03  0.17147307308E+03 0.  0.
        -24    2    5    5    0    0 -0.47521364548E+02 -0.10726859929E+03  0.54523146640E+03  0.56299219574E+03  0.76928720460E+02 0.  0.
          5    1    3    3  502    0  0.55954256105E+02  0.13539994625E+03  0.67640488839E+02  0.16143528100E+03  0.47000000000E+01 0. -1.
        -11    1    4    4    0    0 -0.31361477046E+01  0.43233400835E+01  0.79611034755E+02  0.79789996532E+02  0.00000000000E+00 0.  1.
         12    1    4    4    0    0  0.85552904414E+02  0.55754951863E+02  0.10869090053E+03  0.14913626644E+03  0.00000000000E+00 0. -1.
         -5    1    5    5    0  501 -0.90849648265E+02 -0.88209638898E+02  0.18333343240E+03  0.22286281974E+03  0.47000000000E+01 0.  1.
         11    1    6    6    0    0 -0.32632343284E+02 -0.11981844140E+01  0.10774618122E+03  0.11258572308E+03  0.00000000000E+00 0. -1.
        -12    1    6    6    0    0 -0.14889021265E+02 -0.10607041488E+03  0.43748528517E+03  0.45040647266E+03  0.00000000000E+00 0.  1.
</event>
<event>
12    1  0.2685360E-002  0.1980244E+03  0.7818608E-02  0.1151417E+00
         -2   -1    0    0    0  501 -0.00000000000E+00  0.00000000000E+00  0.38626120289E+02  0.38626120289E+02  0.00000000000E+00 0.  1.
          2   -1    0    0  502    0  0.00000000000E+00 -0.00000000000E+00 -0.11658638523E+04  0.11658638523E+04  0.00000000000E+00 0. -1.
          6    2    1    2  502    0  0.97756030604E+02  0.34358716957E+01 -0.78083873307E+03  0.80563010030E+03  0.17251865033E+03 0.  0.
         24    2    3    3    0    0  0.12651672909E+03  0.28006328112E+02 -0.52164289171E+03  0.54364639988E+03  0.81543022264E+02 0.  0.
         -6    2    1    2    0  501 -0.97756030604E+02 -0.34358716957E+01 -0.34639899893E+03  0.39885987228E+03  0.17183970589E+03 0.  0.
        -24    2    5    5    0    0 -0.43908323007E+02 -0.66637381806E+02 -0.21628629739E+03  0.24444027638E+03  0.81257644551E+02 0.  0.
          5    1    3    3  502    0 -0.28760698484E+02 -0.24570456416E+02 -0.25919584137E+03  0.26198370042E+03  0.47000000000E+01 0.  1.
        -11    1    4    4    0    0  0.23229133735E+02 -0.30330474434E+00 -0.19864098504E+02  0.30565782457E+02  0.00000000000E+00 0.  1.
         12    1    4    4    0    0  0.10328759535E+03  0.28309632856E+02 -0.50177879320E+03  0.51308061742E+03  0.00000000000E+00 0. -1.
         -5    1    5    5    0  501 -0.53847707597E+02  0.63201510110E+02 -0.13011270154E+03  0.15441959590E+03  0.47000000000E+01 0.  1.
         11    1    6    6    0    0 -0.58555484142E+02 -0.15737054017E+02 -0.10667292347E+03  0.12270090543E+03  0.00000000000E+00 0. -1.
        -12    1    6    6    0    0  0.14647161135E+02 -0.50900327789E+02 -0.10961337391E+03  0.12173937095E+03  0.00000000000E+00 0.  1.
</event>
<event>
12    1  0.2685360E-002  0.3855419E+03  0.7818608E-02  0.1048904E+00
         -2   -1    0    0    0  501 -0.00000000000E+00  0.00000000000E+00  0.34135932170E+03  0.34135932170E+03  0.00000000000E+00 0. -1.
          2   -1    0    0  502    0  0.00000000000E+00 -0.00000000000E+00 -0.51692724312E+03  0.51692724312E+03  0.00000000000E+00 0.  1.
          6    2    1    2  502    0  0.18787783471E+03  0.28882337588E+03 -0.25803280664E+03  0.46335201079E+03  0.17145592253E+03 0.  0.
         24    2    3    3    0    0  0.11405295956E+03  0.75951854614E+02 -0.13490041454E+03  0.20654844239E+03  0.75414689605E+02 0.  0.
         -6    2    1    2    0  501 -0.18787783471E+03 -0.28882337588E+03  0.82464885224E+02  0.39493455402E+03  0.17451596327E+03 0.  0.
        -24    2    5    5    0    0 -0.58203820788E+02 -0.71647176381E+02  0.68056462857E+02  0.14153655847E+03  0.82945238615E+02 0.  0.
          5    1    3    3  502    0  0.73824875150E+02  0.21287152126E+03 -0.12313239210E+03  0.25680356840E+03  0.47000000000E+01 0. -1.
        -11    1    4    4    0    0  0.57344424404E+02  0.76170832947E+02 -0.10710457537E+03  0.14339375463E+03  0.00000000000E+00 0.  1.
         12    1    4    4    0    0  0.56708535159E+02 -0.21897833328E+00 -0.27795839172E+02  0.63154687765E+02  0.00000000000E+00 0. -1.
         -5    1    5    5    0  501 -0.12967401392E+03 -0.21717619950E+03  0.14408422368E+02  0.25339799555E+03  0.47000000000E+01 0.  1.
         11    1    6    6    0    0 -0.45514354111E+02 -0.89444956883E+02  0.64738447085E+02  0.11942789989E+03  0.00000000000E+00 0. -1.
        -12    1    6    6    0    0 -0.12689466677E+02  0.17797780502E+02  0.33180157715E+01  0.22108658575E+02  0.00000000000E+00 0.  1.
</event>
<event>
12    1  0.2685360E-002  0.2020396E+03  0.7818608E-02  0.1148030E+00
          2   -1    0    0  502    0  0.00000000000E+00  0.00000000000E+00  0.14903451609E+04  0.14903451609E+04  0.00000000000E+00 0.  1.
         -2   -1    0    0    0  501 -0.00000000000E+00 -0.00000000000E+00 -0.34565829631E+02  0.34565829631E+02  0.00000000000E+00 0. -1.
          6    2    1    2  502    0  0.35616825262E+02  0.91819641220E+02  0.37097266578E+03  0.42081535358E+03  0.17252663071E+03 0.  0.
         24    2    3    3    0    0  0.11951003040E+02  0.12603481122E+03  0.33046825712E+03  0.36256206080E+03  0.78831331678E+02 0.  0.
         -6    2    1    2    0  501 -0.35616825262E+02 -0.91819641220E+02  0.10848066655E+04  0.11040956369E+04  0.18033931703E+03 0.  0.
        -24    2    5    5    0    0 -0.72473139414E+02 -0.10259636524E+03  0.62140641367E+03  0.63908336929E+03  0.80642742173E+02 0.  0.
          5    1    3    3  502    0  0.23665822221E+02 -0.34215170004E+02  0.40504408660E+02  0.58253292789E+02  0.47000000000E+01 0. -1.
        -11    1    4    4    0    0 -0.75180127891E+01  0.87562158516E+02  0.12615764815E+03  0.15375111156E+03  0.00000000000E+00 0.  1.
         12    1    4    4    0    0  0.19469015830E+02  0.38472652708E+02  0.20431060896E+03  0.20881094923E+03  0.00000000000E+00 0. -1.
         -5    1    5    5    0  501  0.36856314153E+02  0.10776724020E+02  0.46340025180E+03  0.46501226763E+03  0.47000000000E+01 0.  1.
         13    1    6    6    0    0  0.70823613268E+01 -0.22917773418E+02  0.38195772216E+02  0.45103228217E+02  0.00000000000E+00 0. -1.
        -14    1    6    6    0    0 -0.79555500741E+02 -0.79678591822E+02  0.58321064145E+03  0.59398014108E+03  0.00000000000E+00 0.  1.
</event>
<event>
12    1  0.2685360E-002  0.2173932E+03  0.7818608E-02  0.1135842E+00
          1   -1    0    0  502    0  0.00000000000E+00  0.00000000000E+00  0.10285672054E+04  0.10285672054E+04  0.00000000000E+00 0.  1.
         -1   -1    0    0    0  501 -0.00000000000E+00 -0.00000000000E+00 -0.83455183703E+02  0.83455183703E+02  0.00000000000E+00 0. -1.
          6    2    1    2  502    0 -0.13325303282E+03 -0.13967093544E+02  0.84594133157E+03  0.87356069847E+03  0.17187235666E+03 0.  0.
         24    2    3    3    0    0 -0.12875228787E+03 -0.47226150347E+02  0.80498063360E+03  0.82039783226E+03  0.79065300878E+02 0.  0.
         -6    2    1    2    0  501  0.13325303282E+03  0.13967093544E+02  0.99170690104E+02  0.23846169062E+03  0.17052185097E+03 0.  0.
        -24    2    5    5    0    0  0.94911908808E+02 -0.18594221324E+02 -0.12170191859E+01  0.12607813669E+03  0.80871502492E+02 0.  0.
          5    1    3    3  502    0 -0.45007449587E+01  0.33259056802E+02  0.40960697969E+02  0.53162866201E+02  0.47000000000E+01 0. -1.
        -11    1    4    4    0    0 -0.10773200235E+03 -0.12110266568E+02  0.68744246254E+03  0.69593820286E+03  0.00000000000E+00 0.  1.
         12    1    4    4    0    0 -0.21020285519E+02 -0.35115883778E+02  0.11753817106E+03  0.12445962941E+03  0.00000000000E+00 0. -1.
         -5    1    5    5    0  501  0.38341124016E+02  0.32561314868E+02  0.10038770929E+03  0.11238355393E+03  0.47000000000E+01 0.  1.
         13    1    6    6    0    0  0.89133770929E+02 -0.75485689561E+01  0.28474892633E+02  0.93875606649E+02  0.00000000000E+00 0. -1.
        -14    1    6    6    0    0  0.57781378786E+01 -0.11045652368E+02 -0.29691911819E+02  0.32202530041E+02  0.00000000000E+00 0.  1.
</event>
<event>
12    1  0.2685360E-002  0.2187435E+03  0.7818608E-02  0.1134823E+00
         -2   -1    0    0    0  501 -0.00000000000E+00  0.00000000000E+00  0.34787062578E+03  0.34787062578E+03  0.00000000000E+00 0.  1.
          2   -1    0    0  502    0  0.00000000000E+00 -0.00000000000E+00 -0.16639981959E+03  0.16639981959E+03  0.00000000000E+00 0. -1.
          6    2    1    2  502    0  0.13828442179E+02  0.12683195287E+03  0.19922128637E+03  0.29923770032E+03  0.18323894310E+03 0.  0.
         24    2    3    3    0    0  0.46741940181E+02  0.14061715467E+03  0.20213597287E+03  0.26312792966E+03  0.80120925354E+02 0.  0.
         -6    2    1    2    0  501 -0.13828442179E+02 -0.12683195287E+03 -0.17750480179E+02  0.21503274505E+03  0.17218139219E+03 0.  0.
        -24    2    5    5    0    0 -0.19657057445E+02 -0.14824840813E+03 -0.48320096044E+02  0.17696400820E+03  0.81347637313E+02 0.  0.
          5    1    3    3  502    0 -0.32913498001E+02 -0.13785201798E+02 -0.29146865072E+01  0.36109770655E+02  0.47000000000E+01 0. -1.
        -11    1    4    4    0    0  0.63481282243E+02  0.83025416987E+02  0.99786441025E+02  0.14450061202E+03  0.00000000000E+00 0.  1.
         12    1    4    4    0    0 -0.16739342062E+02  0.57591737683E+02  0.10234953185E+03  0.11862731764E+03  0.00000000000E+00 0. -1.
         -5    1    5    5    0  501  0.58286152659E+01  0.21416455254E+02  0.30569615865E+02  0.38068736854E+02  0.47000000000E+01 0.  1.
         13    1    6    6    0    0  0.86344211465E+01 -0.48291021454E+02  0.19621344679E+02  0.52835339959E+02  0.00000000000E+00 0. -1.
        -14    1    6    6    0    0 -0.28291478592E+02 -0.99957386672E+02 -0.67941440723E+02  0.12412866824E+03  0.00000000000E+00 0.  1.
</event>
<event>
12    1  0.2685360E-002  0.2021467E+03  0.7818608E-02  0.1147940E+00
          3   -1    0    0  502    0  0.00000000000E+00  0.00000000000E+00  0.18384088171E+03  0.18384088171E+03  0.00000000000E+00 0.  1.
         -3   -1    0    0    0  501 -0.00000000000E+00 -0.00000000000E+00 -0.22630775539E+03  0.22630775539E+03  0.00000000000E+00 0. -1.
          6    2    1    2  502    0  0.88802783729E+01 -0.10405578780E+03  0.59568523439E+01  0.19553006917E+03  0.16519702643E+03 0.  0.
         24    2    3    3    0    0 -0.39669149501E+02 -0.72625143072E+02  0.43858718981E+02  0.12622224949E+03  0.84619242531E+02 0.  0.
         -6    2    1    2    0  501 -0.88802783729E+01  0.10405578780E+03 -0.48423726018E+02  0.21461856793E+03  0.18113477342E+03 0.  0.
        -24    2    5    5    0    0 -0.89665003591E+01 -0.17672783273E+02 -0.43925303351E+02  0.92716237126E+02  0.79209487785E+02 0.  0.
          5    1    3    3  502    0  0.48549427874E+02 -0.31430644723E+02 -0.37901866637E+02  0.69307819683E+02  0.47000000000E+01 0. -1.
        -13    1    4    4    0    0  0.42426706148E+01 -0.61742015646E+02  0.51286095989E+02  0.80376242707E+02  0.00000000000E+00 0.  1.
         14    1    4    4    0    0 -0.43911820115E+02 -0.10883127427E+02 -0.74273770079E+01  0.45846006780E+02  0.00000000000E+00 0. -1.
         -5    1    5    5    0  501  0.86221986158E-01  0.12172857107E+03 -0.44984226677E+01  0.12190233080E+03  0.47000000000E+01 0.  1.
         13    1    6    6    0    0 -0.24318061159E+02 -0.42484591591E+02 -0.13985174355E+02  0.50910644495E+02  0.00000000000E+00 0. -1.
        -14    1    6    6    0    0  0.15351560800E+02  0.24811808318E+02 -0.29940128995E+02  0.41805592631E+02  0.00000000000E+00 0.  1.
</event>
<event>
12    1  0.2685360E-002  0.2099425E+03  0.7818608E-02  0.1141611E+00
         -1   -1    0    0    0  501 -0.00000000000E+00  0.00000000000E+00  0.16583160763E+02  0.16583160763E+02  0.00000000000E+00 0.  1.
          1   -1    0    0  502    0  0.00000000000E+00 -0.00000000000E+00 -0.27643596267E+04  0.27643596267E+04  0.00000000000E+00 0. -1.
          6    2    1    2  502    0 -0.42807749092E+02 -0.11150345296E+03 -0.16477329766E+04  0.16610726472E+04  0.17283765158E+03 0.  0.
         24    2    3    3    0    0 -0.67929922247E+02 -0.69861775279E+02 -0.65019079045E+03  0.66233461548E+03  0.80274135966E+02 0.  0.
         -6    2    1    2    0  501  0.42807749092E+02  0.11150345296E+03 -0.11000434893E+04  0.11198701402E+04  0.17247587989E+03 0.  0.
        -24    2    5    5    0    0  0.23662968459E+02 -0.10875499605E+02 -0.41493941579E+03  0.42364258243E+03  0.81364035668E+02 0.  0.
          5    1    3    3  502    0  0.25122173155E+02 -0.41641677681E+02 -0.99754218614E+03  0.99873803173E+03  0.47000000000E+01 0. -1.
        -13    1    4    4    0    0 -0.46144945640E+02 -0.40248562528E+02 -0.57884034352E+03  0.58206996666E+03  0.00000000000E+00 0.  1.
         14    1    4    4    0    0 -0.21784976607E+02 -0.29613212751E+02 -0.71350446925E+02  0.80264648829E+02  0.00000000000E+00 0. -1.
         -5    1    5    5    0  501  0.19144780633E+02  0.12237895256E+03 -0.68510407355E+03  0.69622755781E+03  0.47000000000E+01 0.  1.
         11    1    6    6    0    0  0.14259481554E+02  0.23915466852E+02 -0.33257520527E+03  0.33373874442E+03  0.00000000000E+00 0. -1.
        -12    1    6    6    0    0  0.94034869060E+01 -0.34790966456E+02 -0.82364210520E+02  0.89903838003E+02  0.00000000000E+00 0.  1.
</event>
<event>
12    1  0.2685360E-002  0.2070291E+03  0.7818608E-02  0.1143940E+00
         -2   -1    0    0    0  501 -0.00000000000E+00  0.00000000000E+00  0.31637204474E+03  0.31637204474E+03  0.00000000000E+00 0. -1.
          2   -1    0    0  502    0  0.00000000000E+00 -0.00000000000E+00 -0.87429147054E+03  0.87429147054E+03  0.00000000000E+00 0.  1.
          6    2    1    2  502    0 -0.13258220028E+02  0.11384764761E+03 -0.82600985256E+03  0.85131151154E+03  0.17117811158E+03 0.  0.
         24    2    3    3    0    0 -0.73903583901E+01  0.64470054677E+02 -0.29311534523E+03  0.31608144472E+03  0.98893218870E+02 0.  0.
         -6    2    1    2    0  501  0.13258220028E+02 -0.11384764761E+03  0.26809042676E+03  0.33935200373E+03  0.17363823960E+03 0.  0.
        -24    2    5    5    0    0 -0.10717940270E+02  0.42325850364E+01  0.68119096324E+02  0.10583879083E+03  0.80180105640E+02 0.  0.
          5    1    3    3  502    0 -0.58678616375E+01  0.49377592930E+02 -0.53289450733E+03  0.53523006682E+03  0.47000000000E+01 0. -1.
        -11    1    4    4    0    0  0.37180346268E+02  0.29540263174E+02 -0.21136804385E+03  0.21663668954E+03  0.00000000000E+00 0.  1.
         12    1    4    4    0    0 -0.44570704658E+02  0.34929791502E+02 -0.81747301383E+02  0.99444755173E+02  0.00000000000E+00 0. -1.
         -5    1    5    5    0  501  0.23976160298E+02 -0.11808023264E+03  0.19997133044E+03  0.23351321290E+03  0.47000000000E+01 0.  1.
         13    1    6    6    0    0 -0.39334947653E+02  0.19167996668E+02  0.20527148074E+02  0.48332328841E+02  0.00000000000E+00 0. -1.
        -14    1    6    6    0    0  0.28617007383E+02 -0.14935411632E+02  0.47591948250E+02  0.57506461988E+02  0.00000000000E+00 0.  1.
</event>
<event>
12    1  0.2685360E-002  0.1961943E+03  0.7818608E-02  0.1152990E+00
         -2   -1    0    0    0  501 -0.00000000000E+00  0.00000000000E+00  0.21412827971E+02  0.21412827971E+02  0.00000000000E+00 0. -1.
          2   -1    0    0  502    0  0.00000000000E+00 -0.00000000000E+00 -0.18664601760E+04  0.18664601760E+04  0.00000000000E+00 0.  1.
          6    2    1    2  502    0 -0.39487346422E+02 -0.81097721287E+02 -0.73338962230E+03  0.75872298664E+03  0.17223281173E+03 0.  0.
         24    2    3    3    0    0 -0.68905497467E+02 -0.10302180172E+03 -0.57552028038E+03  0.59657826106E+03  0.96543095219E+02 0.  0.
         -6    2    1    2    0  501  0.39487346422E+02  0.81097721287E+02 -0.11116577257E+04  0.11291500173E+04  0.17624066368E+03 0.  0.
        -24    2    5    5    0    0  0.92834655413E+02  0.13299083346E+02 -0.55779613577E+03  0.56859017083E+03  0.57992365123E+02 0.  0.
          5    1    3    3  502    0  0.29418151045E+02  0.21924080438E+02 -0.15786934192E+03  0.16214472558E+03  0.47000000000E+01 0. -1.
        -13    1    4    4    0    0  0.12671477304E+02 -0.58641086733E+02 -0.16184458947E+03  0.17260653097E+03  0.00000000000E+00 0.  1.
         14    1    4    4    0    0 -0.81576974771E+02 -0.44380714992E+02 -0.41367569090E+03  0.42397173010E+03  0.00000000000E+00 0. -1.
         -5    1    5    5    0  501 -0.53347308992E+02  0.67798637940E+02 -0.55386158993E+03  0.56055984648E+03  0.47000000000E+01 0.  1.
         11    1    6    6    0    0  0.91216124625E+01  0.54739456558E+00 -0.75132740916E+01  0.11830162395E+02  0.00000000000E+00 0. -1.
        -12    1    6    6    0    0  0.83713042951E+02  0.12751688781E+02 -0.55028286168E+03  0.55676000843E+03  0.00000000000E+00 0.  1.
</event>
<event>
12    1  0.2685360E-002  0.1763781E+03  0.7818608E-02  0.1171355E+00
         -1   -1    0    0    0  501 -0.00000000000E+00  0.00000000000E+00  0.23555317944E+03  0.23555317944E+03  0.00000000000E+00 0. -1.
          1   -1    0    0  502    0  0.00000000000E+00 -0.00000000000E+00 -0.13411846650E+03  0.13411846650E+03  0.00000000000E+00 0.  1.
          6    2    1    2  502    0 -0.40038049526E+02  0.12048399726E+02  0.73240970911E+02  0.19000782024E+03  0.17026603474E+03 0.  0.
         24    2    3    3    0    0 -0.88489164380E+02  0.31210025546E+02  0.54656404338E+02  0.13449066479E+03  0.79347454105E+02 0.  0.
         -6    2    1    2    0  501  0.40038049526E+02 -0.12048399726E+02  0.28193742029E+02  0.17966382570E+03  0.17244127646E+03 0.  0.
        -24    2    5    5    0    0  0.42739454068E+02  0.33231493473E+02  0.66375359575E+02  0.12018700472E+03  0.84310347249E+02 0.  0.
          5    1    3    3  502    0  0.48451114853E+02 -0.19161625820E+02  0.18584566573E+02  0.55517155450E+02  0.47000000000E+01 0. -1.
        -13    1    4    4    0    0 -0.60153721446E+02 -0.18754091375E+02  0.41848268160E+02  0.75640357582E+02  0.00000000000E+00 0.  1.
         14    1    4    4    0    0 -0.28335442933E+02  0.49964116921E+02  0.12808136178E+02  0.58850307207E+02  0.00000000000E+00 0. -1.
         -5    1    5    5    0  501 -0.27014045412E+01 -0.45279893199E+02 -0.38181617546E+02  0.59476820973E+02  0.47000000000E+01 0.  1.
         13    1    6    6    0    0 -0.23230538737E+02  0.18196423757E+02  0.73800664490E+01  0.30417645345E+02  0.00000000000E+00 0. -1.
        -14    1    6    6    0    0  0.65969992805E+02  0.15035069717E+02  0.58995293126E+02  0.89769359378E+02  0.00000000000E+00 0.  1.
</event>
<event>
12    1  0.2685360E-002  0.1853764E+03  0.7818608E-02  0.1162699E+00
          2   -1    0    0  502    0  0.00000000000E+00  0.00000000000E+00  0.72851156486E+03  0.72851156486E+03  0.00000000000E+00 0. -1.
         -2   -1    0    0    0  501 -0.00000000000E+00 -0.00000000000E+00 -0.53872079408E+02  0.53872079408E+02  0.00000000000E+00 0.  1.
          6    2    1    2  502    0  0.23601560795E+02  0.62929302652E+02  0.20046107871E+03  0.27350907141E+03  0.17350918496E+03 0.  0.
         24    2    3    3    0    0  0.12508054324E+02  0.12024024205E+02  0.16721155433E+02  0.82467550626E+02  0.78868696491E+02 0.  0.
         -6    2    1    2    0  501 -0.23601560795E+02 -0.62929302652E+02  0.47417840674E+03  0.50887457285E+03  0.17202046004E+03 0.  0.
        -24    2    5    5    0    0  0.45086572658E+01  0.27465570940E+01  0.10113859904E+03  0.12902685200E+03  0.79943985097E+02 0.  0.
          5    1    3    3  502    0  0.11093506472E+02  0.50905278447E+02  0.18373992327E+03  0.19104152079E+03  0.47000000000E+01 0. -1.
        -13    1    4    4    0    0  0.44739800174E+02  0.46942901129E+01 -0.93047555232E+00  0.44995020436E+02  0.00000000000E+00 0.  1.
         14    1    4    4    0    0 -0.32231745850E+02  0.73297340921E+01  0.17651630986E+02  0.37472530190E+02  0.00000000000E+00 0. -1.
         -5    1    5    5    0  501 -0.28110218061E+02 -0.65675859746E+02  0.37303980770E+03  0.37984772086E+03  0.47000000000E+01 0.  1.
         13    1    6    6    0    0 -0.12470155252E+02 -0.10243068903E+01  0.10915927615E+03  0.10987402581E+03  0.00000000000E+00 0. -1.
        -14    1    6    6    0    0  0.16978812518E+02  0.37708639843E+01 -0.80206771101E+01  0.19152826189E+02  0.00000000000E+00 0.  1.
</event>
<event>
12    1  0.2685360E-002  0.2324542E+03  0.7818608E-02  0.1124924E+00
         -1   -1    0    0    0  501 -0.00000000000E+00  0.00000000000E+00  0.52055768312E+03  0.52055768312E+03  0.00000000000E+00 0. -1.
          1   -1    0    0  502    0  0.00000000000E+00 -0.00000000000E+00 -0.10506320586E+03  0.10506320586E+03  0.00000000000E+00 0.  1.
          6    2    1    2  502    0  0.14958065904E+03  0.35539762068E+02  0.24368974386E+03  0.33817661057E+03  0.17703468706E+03 0.  0.
         24    2    3    3    0    0  0.27263922556E+02  0.54434803161E+02  0.15988909694E+03  0.18863382396E+03  0.79446377837E+02 0.  0.
         -6    2    1    2    0  501 -0.14958065904E+03 -0.35539762068E+02  0.17180473340E+03  0.28744427841E+03  0.17166798922E+03 0.  0.
        -24    2    5    5    0    0 -0.47472579575E+02  0.81721628938E+00  0.15059192412E+03  0.17690033671E+03  0.79758935966E+02 0.  0.
          5    1    3    3  502    0  0.12231673649E+03 -0.18895041093E+02  0.83800646922E+02  0.14954278661E+03  0.47000000000E+01 0. -1.
        -13    1    4    4    0    0  0.63321118116E+01  0.18953943232E+02  0.14254093043E+03  0.14393493131E+03  0.00000000000E+00 0.  1.
         14    1    4    4    0    0  0.20931810744E+02  0.35480859929E+02  0.17348166511E+02  0.44698892644E+02  0.00000000000E+00 0. -1.
         -5    1    5    5    0  501 -0.10210807947E+03 -0.36356978357E+02  0.21212809287E+02  0.11054394170E+03  0.47000000000E+01 0.  1.
         11    1    6    6    0    0 -0.30906977206E+02  0.39293319627E+02  0.69302513566E+02  0.85452001696E+02  0.00000000000E+00 0. -1.
        -12    1    6    6    0    0 -0.16565602370E+02 -0.38476103338E+02  0.81289410551E+02  0.91448335019E+02  0.00000000000E+00 0.  1.
</event>
<event>
12    1  0.2685360E-002  0.2196883E+03  0.7818608E-02  0.1134116E+00
          1   -1    0    0  502    0  0.00000000000E+00  0.00000000000E+00  0.34553489979E+03  0.34553489979E+03  0.00000000000E+00 0.  1.
         -1   -1    0    0    0  501 -0.00000000000E+00 -0.00000000000E+00 -0.14942461257E+03  0.14942461257E+03  0.00000000000E+00 0. -1.
          6    2    1    2  502    0  0.11433376675E+03 -0.75118498383E+02  0.16119894028E+03  0.27235424763E+03  0.17168791115E+03 0.  0.
         24    2    3    3    0    0  0.67140617053E+02 -0.40666400167E+02  0.17948397823E+03  0.21094925546E+03  0.78252612594E+02 0.  0.
         -6    2    1    2    0  501 -0.11433376675E+03  0.75118498383E+02  0.34911346941E+02  0.22260526473E+03  0.17210259360E+03 0.  0.
        -24    2    5    5    0    0 -0.13646431216E+03  0.95114750138E+02  0.82849775984E+01  0.18234778507E+03  0.74247893423E+02 0.  0.
          5    1    3    3  502    0  0.47193149694E+02 -0.34452098216E+02 -0.18285037956E+02  0.61404992163E+02  0.47000000000E+01 0. -1.
        -13    1    4    4    0    0  0.82011223069E+02 -0.46906032026E+02  0.15789054321E+03  0.18399847875E+03  0.00000000000E+00 0.  1.
         14    1    4    4    0    0 -0.14870606017E+02  0.62396318591E+01  0.21593435027E+02  0.26950776710E+02  0.00000000000E+00 0. -1.
         -5    1    5    5    0  501  0.22130545415E+02 -0.19996251756E+02  0.26626369343E+02  0.40257479665E+02  0.47000000000E+01 0.  1.
         13    1    6    6    0    0 -0.60624295277E+02  0.42887310259E+02 -0.33207994089E+02  0.81347387361E+02  0.00000000000E+00 0. -1.
        -14    1    6    6    0    0 -0.75840016885E+02  0.52227439879E+02  0.41492971688E+02  0.10100039771E+03  0.00000000000E+00 0.  1.
</event>
<event>
12    1  0.2685360E-002  0.2198076E+03  0.7818608E-02  0.1134027E+00
         -1   -1    0    0    0  501 -0.00000000000E+00  0.00000000000E+00  0.17442387296E+03  0.17442387296E+03  0.00000000000E+00 0.  1.
          1   -1    0    0  502    0  0.00000000000E+00 -0.00000000000E+00 -0.49716285948E+03  0.49716285948E+03  0.00000000000E+00 0. -1.
          6    2    1    2  502    0  0.96963460591E+02  0.95995515376E+02 -0.38478291033E+03  0.44308685970E+03  0.17219473131E+03 0.  0.
         24    2    3    3    0    0  0.40881781603E+02 -0.64763761261E+01 -0.24251741492E+03  0.25894776974E+03  0.80783583716E+02 0.  0.
         -6    2    1    2    0  501 -0.96963460591E+02 -0.95995515376E+02  0.62043923808E+02  0.22849987274E+03  0.17246939351E+03 0.  0.
        -24    2    5    5    0    0 -0.64447834980E+02 -0.10993715628E+03  0.97412929847E+02  0.17825356095E+03  0.77751857372E+02 0.  0.
          5    1    3    3  502    0  0.56081678988E+02  0.10247189150E+03 -0.14226549541E+03  0.18413908996E+03  0.47000000000E+01 0. -1.
        -11    1    4    4    0    0  0.13096756994E+02  0.39528539633E+01  0.91698456467E+00  0.13710979502E+02  0.00000000000E+00 0.  1.
         12    1    4    4    0    0  0.27785024609E+02 -0.10429230089E+02 -0.24343439949E+03  0.24523679024E+03  0.00000000000E+00 0. -1.
         -5    1    5    5    0  501 -0.32515625610E+02  0.13941640909E+02 -0.35369006039E+02  0.50246311787E+02  0.47000000000E+01 0.  1.
         11    1    6    6    0    0 -0.44532850801E+02 -0.95760082186E+02  0.35053993365E+02  0.11127421351E+03  0.00000000000E+00 0. -1.
        -12    1    6    6    0    0 -0.19914984179E+02 -0.14177074098E+02  0.62358936483E+02  0.66979347444E+02  0.00000000000E+00 0.  1.
</event>
<event>
12    1  0.2685360E-002  0.2078179E+03  0.7818608E-02  0.1143306E+00
          2   -1    0    0  502    0  0.00000000000E+00  0.00000000000E+00  0.16240569229E+03  0.16240569229E+03  0.00000000000E+00 0.  1.
         -2   -1    0    0    0  501 -0.00000000000E+00 -0.00000000000E+00 -0.27969560117E+03  0.27969560117E+03  0.00000000000E+00 0. -1.
          6    2    1    2  502    0  0.51702884800E+02  0.10415527347E+03 -0.95559345146E+01  0.20786282730E+03  0.17202944457E+03 0.  0.
         24    2    3    3    0    0 -0.30828487277E+02  0.27868016231E+02 -0.90590073452E+00  0.95044007599E+02  0.85472339198E+02 0.  0.
         -6    2    1    2    0  501 -0.51702884800E+02 -0.10415527347E+03 -0.10773397436E+03  0.23423846617E+03  0.17245155990E+03 0.  0.
        -24    2    5    5    0    0  0.11423900185E+02 -0.25699310260E+02  0.34419386126E+01  0.84163475672E+02  0.79250764366E+02 0.  0.
          5    1    3    3  502    0  0.82531372077E+02  0.76287257239E+02 -0.86500337801E+01  0.11281881970E+03  0.47000000000E+01 0. -1.
        -13    1    4    4    0    0 -0.32235395078E+02 -0.21256292152E+02  0.17724690458E+02  0.42486648535E+02  0.00000000000E+00 0.  1.
         14    1    4    4    0    0  0.14069078007E+01  0.49124308383E+02 -0.18630591192E+02  0.52557359064E+02  0.00000000000E+00 0. -1.
         -5    1    5    5    0  501 -0.63126784985E+02 -0.78455963210E+02 -0.11117591298E+03  0.15007499049E+03  0.47000000000E+01 0.  1.
         11    1    6    6    0    0 -0.31218997323E+02 -0.16977443451E+02  0.15838977660E+02  0.38906716557E+02  0.00000000000E+00 0. -1.
        -12    1    6    6    0    0  0.42642897507E+02 -0.87218668089E+01 -0.12397039047E+02  0.45256759115E+02  0.00000000000E+00 0.  1.
</event>
<event>
12    1  0.2685360E-002  0.2199817E+03  0.7818608E-02  0.1133897E+00
         -1   -1    0    0    0  501 -0.00000000000E+00  0.00000000000E+00  0.34519516378E+03  0.34519516378E+03  0.00000000000E+00 0. -1.
          1   -1    0    0  502    0  0.00000000000E+00 -0.00000000000E+00 -0.15797180511E+03  0.15797180511E+03  0.00000000000E+00 0.  1.
          6    2    1    2  502    0 -0.92936947214E+02 -0.10766385182E+03  0.17677942062E+03  0.27981442486E+03  0.16375703850E+03 0.  0.
         24    2    3    3    0    0 -0.21893307816E+02 -0.11839328307E+03  0.10466119697E+03  0.17790540869E+03  0.78740598714E+02 0.  0.
         -6    2    1    2    0  501  0.92936947214E+02  0.10766385182E+03  0.10443938053E+02  0.22335254403E+03  0.17189677698E+03 0.  0.
        -24    2    5    5    0    0  0.35854963074E+02  0.13228570386E+03  0.22888894232E+02  0.15977931503E+03  0.78869780072E+02 0.  0.
          5    1    3    3  502    0 -0.71043639398E+02  0.10729431250E+02  0.72118223648E+02  0.10190901617E+03  0.47000000000E+01 0. -1.
        -11    1    4    4    0    0  0.10727752669E+02 -0.86968593310E+02  0.34040979121E+02  0.94007495229E+02  0.00000000000E+00 0.  1.
         12    1    4    4    0    0 -0.32621060485E+02 -0.31424689764E+02  0.70620217852E+02  0.83897913463E+02  0.00000000000E+00 0. -1.
         -5    1    5    5    0  501  0.57081984139E+02 -0.24621852041E+02 -0.12444956179E+02  0.63573229000E+02  0.47000000000E+01 0.  1.
         11    1    6    6    0    0  0.47164577787E+02  0.13756929531E+03  0.18778782577E+02  0.14663714088E+03  0.00000000000E+00 0. -1.
        -12    1    6    6    0    0 -0.11309614713E+02 -0.52835914489E+01  0.41101116551E+01  0.13142174149E+02  0.00000000000E+00 0.  1.
</event>
<event>
12    1  0.2685360E-002  0.1947187E+03  0.7818608E-02  0.1154273E+00
          1   -1    0    0  502    0  0.00000000000E+00  0.00000000000E+00  0.38797878978E+03  0.38797878978E+03  0.00000000000E+00 0. -1.
         -1   -1    0    0    0  501 -0.00000000000E+00 -0.00000000000E+00 -0.97841800248E+02  0.97841800248E+02  0.00000000000E+00 0.  1.
          6    2    1    2  502    0 -0.62928989720E+02 -0.66391318922E+02  0.15346624524E+03  0.24794461482E+03  0.17192084985E+03 0.  0.
         24    2    3    3    0    0 -0.80143057408E+02 -0.70383469184E+02  0.58367138141E+02  0.15110355141E+03  0.89715205234E+02 0.  0.
         -6    2    1    2    0  501  0.62928989720E+02  0.66391318922E+02  0.13667074428E+03  0.23787597520E+03  0.17186687366E+03 0.  0.
        -24    2    5    5    0    0  0.50974352107E+02 -0.20786132470E+02  0.46295057371E+02  0.11165127011E+03  0.85395116392E+02 0.  0.
          5    1    3    3  502    0  0.17214067687E+02  0.39921502615E+01  0.95099107104E+02  0.96841063408E+02  0.47000000000E+01 0. -1.
        -13    1    4    4    0    0 -0.24123102108E+02 -0.74750315495E+02  0.52789404124E+02  0.94637492093E+02  0.00000000000E+00 0.  1.
         14    1    4    4    0    0 -0.56019955300E+02  0.43668463110E+01  0.55777340164E+01  0.56466059321E+02  0.00000000000E+00 0. -1.
         -5    1    5    5    0  501  0.11954637613E+02  0.87177451392E+02  0.90375686912E+02  0.12622470510E+03  0.47000000000E+01 0.  1.
         13    1    6    6    0    0  0.25778932571E+02 -0.37017291191E+02  0.62888205713E+02  0.77393537388E+02  0.00000000000E+00 0. -1.
        -14    1    6    6    0    0  0.25195419536E+02  0.16231158722E+02 -0.16593148343E+02  0.34257732718E+02  0.00000000000E+00 0.  1.
</event>
<event>
12    1  0.2685360E-002  0.1990968E+03  0.7818608E-02  0.1150503E+00
          1   -1    0    0  502    0  0.00000000000E+00  0.00000000000E+00  0.58448226642E+03  0.58448226642E+03  0.00000000000E+00 0.  1.
         -1   -1    0    0    0  501 -0.00000000000E+00 -0.00000000000E+00 -0.67918579942E+02  0.67918579942E+02  0.00000000000E+00 0. -1.
          6    2    1    2  502    0 -0.70961862302E+02 -0.62710268877E+02  0.24333823666E+03  0.31287156868E+03  0.17235706352E+03 0.  0.
         24    2    3    3    0    0 -0.65989452824E+02 -0.43935472107E+02  0.26268987416E+03  0.28505442067E+03  0.77234183902E+02 0.  0.
         -6    2    1    2    0  501  0.70961862302E+02  0.62710268877E+02  0.27322544982E+03  0.33952927768E+03  0.17793206639E+03 0.  0.
        -24    2    5    5    0    0  0.10171359321E+03  0.57204985803E+01  0.22230766845E+03  0.25701737955E+03  0.79112924317E+02 0.  0.
          5    1    3    3  502    0 -0.49724094788E+01 -0.18774796770E+02 -0.19351637500E+02  0.27817148015E+02  0.47000000000E+01 0. -1.
        -11    1    4    4    0    0 -0.12229140253E+02 -0.10220507352E+02  0.18057584294E+03  0.18127781357E+03  0.00000000000E+00 0.  1.
         12    1    4    4    0    0 -0.53760312571E+02 -0.33714964755E+02  0.82114031221E+02  0.10377660709E+03  0.00000000000E+00 0. -1.
         -5    1    5    5    0  501 -0.30751730912E+02  0.56989770296E+02  0.50917781372E+02  0.82511898126E+02  0.47000000000E+01 0.  1.
         13    1    6    6    0    0  0.24421902426E+02  0.33409413692E+02  0.42333666941E+02  0.59200993218E+02  0.00000000000E+00 0. -1.
        -14    1    6    6    0    0  0.77291690788E+02 -0.27688915112E+02  0.17997400151E+03  0.19781638634E+03  0.00000000000E+00 0.  1.
</event>
<event>
12    1  0.2685360E-002  0.2746260E+03  0.7818608E-02  0.1098661E+00
         -2   -1    0    0    0  501 -0.00000000000E+00  0.00000000000E+00  0.14713292182E+03  0.14713292182E+03  0.00000000000E+00 0. -1.
          2   -1    0    0  502    0  0.00000000000E+00 -0.00000000000E+00 -0.68332709052E+03  0.68332709052E+03  0.00000000000E+00 0.  1.
          6    2    1    2  502    0  0.15548767879E+03  0.14740652538E+03 -0.47537107378E+03  0.54880515554E+03  0.17118510153E+03 0.  0.
         24    2    3    3    0    0  0.17423432773E+02  0.40475442832E+02 -0.23549089821E+03  0.25205512425E+03  0.78319761480E+02 0.  0.
         -6    2    1    2    0  501 -0.15548767879E+03 -0.14740652538E+03 -0.60823094929E+02  0.28165485680E+03  0.17240912824E+03 0.  0.
        -24    2    5    5    0    0 -0.12621108626E+03 -0.63477628483E+02 -0.93466029406E+02  0.18684541752E+03  0.78845822864E+02 0.  0.
          5    1    3    3  502    0  0.13806424602E+03  0.10693108255E+03 -0.23988017557E+03  0.29675003130E+03  0.47000000000E+01 0. -1.
        -11    1    4    4    0    0  0.44764205605E+02  0.34201253145E+02 -0.19367632051E+03  0.20170294234E+03  0.00000000000E+00 0.  1.
         12    1    4    4    0    0 -0.27340772831E+02  0.62741896878E+01 -0.41814577695E+02  0.50352181910E+02  0.00000000000E+00 0. -1.
         -5    1    5    5    0  501 -0.29276592528E+02 -0.83928896896E+02  0.32642934477E+02  0.94809439274E+02  0.47000000000E+01 0.  1.
         13    1    6    6    0    0 -0.12403118064E+03 -0.69986830550E+02 -0.63195260505E+02  0.15580606911E+03  0.00000000000E+00 0. -1.
        -14    1    6    6    0    0 -0.21799056229E+01  0.65092020668E+01 -0.30270768901E+02  0.31039348413E+02  0.00000000000E+00 0.  1.
</event>
<event>
12    1  0.2685360E-002  0.1871909E+03  0.7818608E-02  0.1161020E+00
          1   -1    0    0  502    0  0.00000000000E+00  0.00000000000E+00  0.79903649905E+03  0.79903649905E+03  0.00000000000E+00 0.  1.
         -1   -1    0    0    0  501 -0.00000000000E+00 -0.00000000000E+00 -0.85823691124E+02  0.85823691124E+02  0.00000000000E+00 0. -1.
          6    2    1    2  502    0 -0.74667858616E+02 -0.20207698929E+02  0.66451074432E+03  0.68996563011E+03  0.16880284718E+03 0.  0.
         24    2    3    3    0    0  0.15556666136E+02 -0.11600611044E+02  0.19633469599E+03  0.21307418643E+03  0.80478022067E+02 0.  0.
         -6    2    1    2    0  501  0.74667858616E+02  0.20207698929E+02  0.48702063609E+02  0.19489456006E+03  0.17212890035E+03 0.  0.
        -24    2    5    5    0    0  0.69428918803E+02 -0.45513872472E+02  0.41282063367E+01  0.11517197738E+03  0.79722361554E+02 0.  0.
          5    1    3    3  502    0 -0.90224524752E+02 -0.86070878847E+01  0.46817604833E+03  0.47689144368E+03  0.47000000000E+01 0. -1.
        -11    1    4    4    0    0  0.74978880311E+01 -0.45734655669E+02  0.92212880397E+02  0.10320412959E+03  0.00000000000E+00 0.  1.
         12    1    4    4    0    0  0.80587781050E+01  0.34134044625E+02  0.10412181559E+03  0.10987005684E+03  0.00000000000E+00 0. -1.
         -5    1    5    5    0  501  0.52389398129E+01  0.65721571401E+02  0.44573857272E+02  0.79722582685E+02  0.47000000000E+01 0.  1.
         13    1    6    6    0    0  0.42680675216E+02  0.16922243921E+02  0.10015947287E+02  0.46992782172E+02  0.00000000000E+00 0. -1.
        -14    1    6    6    0    0  0.26748243587E+02 -0.62436116393E+02 -0.58877409506E+01  0.68179195205E+02  0.00000000000E+00 0.  1.
</event>
<event>
12    1  0.2685360E-002  0.2104046E+03  0.7818608E-02  0.1141246E+00
          2   -1    0    0  502    0  0.00000000000E+00  0.00000000000E+00  0.16650702319E+04  0.16650702319E+04  0.00000000000E+00 0. -1.
         -2   -1    0    0    0  501 -0.00000000000E+00 -0.00000000000E+00 -0.38048785900E+02  0.38048785900E+02  0.00000000000E+00 0.  1.
          6    2    1    2  502    0 -0.79447851332E+02 -0.83829670843E+02  0.35675820868E+03  0.41616475234E+03  0.18049184700E+03 0.  0.
         24    2    3    3    0    0  0.12385803772E+02  0.11573669160E+02  0.11374804097E+03  0.13937738069E+03  0.78740583375E+02 0.  0.
         -6    2    1    2    0  501  0.79447851332E+02  0.83829670843E+02  0.12702632374E+04  0.12869542655E+04  0.17129861211E+03 0.  0.
        -24    2    5    5    0    0  0.60825144917E+02  0.55619371211E+01  0.34736522998E+03  0.36054427778E+03  0.74826063897E+02 0.  0.
          5    1    3    3  502    0 -0.91833655104E+02 -0.95403340003E+02  0.24301016772E+03  0.27678737165E+03  0.47000000000E+01 0. -1.
        -13    1    4    4    0    0 -0.12069667098E+02 -0.23757544403E+02  0.12591362564E+02  0.29472702474E+02  0.00000000000E+00 0.  1.
         14    1    4    4    0    0  0.24455470870E+02  0.35331213563E+02  0.10115667840E+03  0.10990467821E+03  0.00000000000E+00 0. -1.
         -5    1    5    5    0  501  0.18622706415E+02  0.78267733722E+02  0.92289800738E+03  0.92640998773E+03  0.47000000000E+01 0.  1.
         13    1    6    6    0    0  0.55629132017E+02  0.34959281778E+02  0.26189028861E+03  0.27000606471E+03  0.00000000000E+00 0. -1.
        -14    1    6    6    0    0  0.51960129002E+01 -0.29397344657E+02  0.85474941372E+02  0.90538213068E+02  0.00000000000E+00 0.  1.
</event>
<event>
12    1  0.2685360E-002  0.1904680E+03  0.7818608E-02  0.1158040E+00
         -2   -1    0    0    0  501 -0.00000000000E+00  0.00000000000E+00  0.19057129862E+02  0.19057129862E+02  0.00000000000E+00 0.  1.
          2   -1    0    0  502    0  0.00000000000E+00 -0.00000000000E+00 -0.19325494555E+04  0.19325494555E+04  0.00000000000E+00 0. -1.
          6    2    1    2  502    0  0.75616876031E+02 -0.27692099837E+02 -0.10752383756E+04  0.10919484026E+04  0.17242095320E+03 0.  0.
         24    2    3    3    0    0 -0.26035356538E+02 -0.21164011774E+02 -0.55417632193E+03  0.56100250501E+03  0.80539801709E+02 0.  0.
         -6    2    1    2    0  501 -0.75616876031E+02  0.27692099837E+02 -0.83825394999E+03  0.85965818278E+03  0.17279392990E+03 0.  0.
        -24    2    5    5    0    0 -0.35256288194E+02 -0.48968538834E+02 -0.36501749302E+03  0.37853380720E+03  0.80057162885E+02 0.  0.
          5    1    3    3  502    0  0.10165223257E+03 -0.65280880633E+01 -0.52106205370E+03  0.53094589755E+03  0.47000000000E+01 0. -1.
        -13    1    4    4    0    0 -0.44834974402E+02  0.13310291652E+02 -0.25414209613E+03  0.25840964343E+03  0.00000000000E+00 0.  1.
         14    1    4    4    0    0  0.18799617864E+02 -0.34474303426E+02 -0.30003422580E+03  0.30259286158E+03  0.00000000000E+00 0. -1.
         -5    1    5    5    0  501 -0.40360587837E+02  0.76660638671E+02 -0.47323645697E+03  0.48112437558E+03  0.47000000000E+01 0.  1.
         11    1    6    6    0    0 -0.25196116658E+02 -0.30896514635E+02 -0.35165871781E+03  0.35391141931E+03  0.00000000000E+00 0. -1.
        -12    1    6    6    0    0 -0.10060171535E+02 -0.18072024199E+02 -0.13358775213E+02  0.24622387885E+02  0.00000000000E+00 0.  1.
</event>
<event>
12    1  0.2685360E-002  0.1761328E+03  0.7818608E-02  0.1171599E+00
          1   -1    0    0  502    0  0.00000000000E+00  0.00000000000E+00  0.83158070426E+02  0.83158070426E+02  0.00000000000E+00 0. -1.
         -1   -1    0    0    0  501 -0.00000000000E+00 -0.00000000000E+00 -0.39132966958E+03  0.39132966958E+03  0.00000000000E+00 0.  1.
          6    2    1    2  502    0 -0.29181646322E+02 -0.21812842317E+02 -0.10255561817E+03  0.20353776535E+03  0.17199592592E+03 0.  0.
         24    2    3    3    0    0  0.45863594698E+02 -0.46234144790E+01 -0.80845092559E+02  0.12340848511E+03  0.81048626927E+02 0.  0.
         -6    2    1    2    0  501  0.29181646322E+02  0.21812842317E+02 -0.20561598099E+03  0.27094997466E+03  0.17265163931E+03 0.  0.
        -24    2    5    5    0    0  0.70762626601E+02 -0.44700056261E+01 -0.69792118244E+02  0.12641631869E+03  0.77992407247E+02 0.  0.
          5    1    3    3  502    0 -0.75045241020E+02 -0.17189427838E+02 -0.21710525607E+02  0.80129280237E+02  0.47000000000E+01 0. -1.
        -13    1    4    4    0    0  0.13236519599E+02 -0.33855890181E+02 -0.69061320147E+02  0.78044171413E+02  0.00000000000E+00 0.  1.
         14    1    4    4    0    0  0.32627075099E+02  0.29232475702E+02 -0.11783772412E+02  0.45364313700E+02  0.00000000000E+00 0. -1.
         -5    1    5    5    0  501 -0.41580980279E+02  0.26282847943E+02 -0.13582386275E+03  0.14453365597E+03  0.47000000000E+01 0.  1.
         13    1    6    6    0    0 -0.10815719863E+02  0.95597527046E-01  0.81141630242E+01  0.13521411784E+02  0.00000000000E+00 0. -1.
        -14    1    6    6    0    0  0.81578346464E+02 -0.45656031531E+01 -0.77906281268E+02  0.11289490690E+03  0.00000000000E+00 0.  1.
</event>
<event>
12    1  0.2685360E-002  0.2041836E+03  0.7818608E-02  0.1146257E+00
         -2   -1    0    0    0  501 -0.00000000000E+00  0.00000000000E+00  0.21963942164E+03  0.21963942164E+03  0.00000000000E+00 0. -1.
          2   -1    0    0  502    0  0.00000000000E+00 -0.00000000000E+00 -0.19025006329E+03  0.19025006329E+03  0.00000000000E+00 0.  1.
          6    2    1    2  502    0 -0.10087590720E+03 -0.47536575718E+02  0.24512630146E+02  0.20662340189E+03  0.17221116830E+03 0.  0.
         24    2    3    3    0    0 -0.22602002026E+02 -0.29642037094E+02  0.70214941802E+02  0.11411496965E+03  0.81869331183E+02 0.  0.
         -6    2    1    2    0  501  0.10087590720E+03  0.47536575718E+02  0.48767282073E+01  0.20326608304E+03  0.16987537594E+03 0.  0.
        -24    2    5    5    0    0  0.61579338742E+02 -0.12443441790E+00  0.62841017439E+02  0.11842658159E+03  0.79270620725E+02 0.  0.
          5    1    3    3  502    0 -0.78273905175E+02 -0.17894538625E+02 -0.45702311656E+02  0.92508432235E+02  0.47000000000E+01 0. -1.
        -11    1    4    4    0    0 -0.52812510575E+01  0.48946200821E+01 -0.17143241235E+02  0.18594075361E+02  0.00000000000E+00 0.  1.
         12    1    4    4    0    0 -0.17320750969E+02 -0.34536657176E+02  0.87358183037E+02  0.95520894293E+02  0.00000000000E+00 0. -1.
         -5    1    5    5    0  501  0.39296568459E+02  0.47661010136E+02 -0.57964289231E+02  0.84839501448E+02  0.47000000000E+01 0.  1.
         11    1    6    6    0    0  0.72464223029E+02 -0.20433914183E+02  0.37285730474E+02  0.84016868336E+02  0.00000000000E+00 0. -1.
        -12    1    6    6    0    0 -0.10884884287E+02  0.20309479765E+02  0.25555286964E+02  0.34409713252E+02  0.00000000000E+00 0.  1.
</event>
<event>
12    1  0.2685360E-002  0.1776632E+03  0.7818608E-02  0.1170084E+00
         -1   -1    0    0    0  501 -0.00000000000E+00  0.00000000000E+00  0.68787333466E+03  0.68787333466E+03  0.00000000000E+00 0. -1.
          1   -1    0    0  502    0  0.00000000000E+00 -0.00000000000E+00 -0.79861224447E+02  0.79861224447E+02  0.00000000000E+00 0.  1.
          6    2    1    2  502    0  0.95268639106E+01  0.47803082261E+02  0.52407631452E+02  0.18403055689E+03  0.16954288609E+03 0.  0.
         24    2    3    3    0    0 -0.16630618958E+02  0.73911105215E+02 -0.11030615574E+02  0.11046192255E+03  0.79628719015E+02 0.  0.
         -6    2    1    2    0  501 -0.95268639106E+01 -0.47803082261E+02  0.55560447876E+03  0.58370400222E+03  0.17215728152E+03 0.  0.
        -24    2    5    5    0    0  0.20086569308E+02  0.30556395171E+02  0.19654632494E+03  0.21497373366E+03  0.79032175491E+02 0.  0.
          5    1    3    3  502    0  0.26157482869E+02 -0.26108022953E+02  0.63438247027E+02  0.73568634338E+02  0.47000000000E+01 0. -1.
        -11    1    4    4    0    0 -0.96989542919E+01  0.40928222136E+01 -0.34820354601E+02  0.36376888302E+02  0.00000000000E+00 0.  1.
         12    1    4    4    0    0 -0.69316646663E+01  0.69818283001E+02  0.23789739026E+02  0.74085034246E+02  0.00000000000E+00 0. -1.
         -5    1    5    5    0  501 -0.29613433219E+02 -0.78359477433E+02  0.35905815382E+03  0.36873026857E+03  0.47000000000E+01 0.  1.
         11    1    6    6    0    0  0.38754152792E+02  0.93318246715E+00  0.44815638015E+02  0.59255350803E+02  0.00000000000E+00 0. -1.
        -12    1    6    6    0    0 -0.18667583483E+02  0.29623212704E+02  0.15173068693E+03  0.15571838286E+03  0.00000000000E+00 0.  1.
</event>
<event>
12    1  0.2685360E-002  0.2400521E+03  0.7818608E-02  0.1119758E+00
         -2   -1    0    0    0  501 -0.00000000000E+00  0.00000000000E+00  0.14113580504E+03  0.14113580504E+03  0.00000000000E+00 0. -1.
          2   -1    0    0  502    0  0.00000000000E+00 -0.00000000000E+00 -0.47050285249E+03  0.47050285249E+03  0.00000000000E+00 0.  1.
          6    2    1    2  502    0  0.85566468373E+02  0.14453230364E+03 -0.53268406459E+02  0.24553814702E+03  0.17099781054E+03 0.  0.
         24    2    3    3    0    0  0.36142031560E+02  0.50374610454E+02 -0.87207492916E+02  0.13381349562E+03  0.80355814754E+02 0.  0.
         -6    2    1    2    0  501 -0.85566468373E+02 -0.14453230364E+03 -0.27609864099E+03  0.36610051051E+03  0.17201138605E+03 0.  0.
        -24    2    5    5    0    0 -0.10780001551E+03 -0.12460209223E+03 -0.15794693145E+03  0.24414371318E+03  0.86674072254E+02 0.  0.
          5    1    3    3  502    0  0.49424436813E+02  0.94157693190E+02  0.33939086457E+02  0.11172465140E+03  0.47000000000E+01 0. -1.
        -11    1    4    4    0    0  0.23612509931E+02  0.68334354219E+02 -0.42079460703E+02  0.83652947377E+02  0.00000000000E+00 0.  1.
         12    1    4    4    0    0  0.12529521629E+02 -0.17959743765E+02 -0.45128032213E+02  0.50160548240E+02  0.00000000000E+00 0. -1.
         -5    1    5    5    0  501  0.22233547138E+02 -0.19930211415E+02 -0.11815170954E+03  0.12195679732E+03  0.47000000000E+01 0.  1.
         13    1    6    6    0    0 -0.12150316026E+03 -0.11865561786E+03 -0.13589040689E+03  0.21750488796E+03  0.00000000000E+00 0. -1.
        -14    1    6    6    0    0  0.13703144751E+02 -0.59464743721E+01 -0.22056524563E+02  0.26638825225E+02  0.00000000000E+00 0.  1.
</event>
<event>
12    1  0.2685360E-002  0.2348653E+03  0.7818608E-02  0.1123261E+00
         -2   -1    0    0    0  501 -0.00000000000E+00  0.00000000000E+00  0.25674334689E+02  0.25674334689E+02  0.00000000000E+00 0. -1.
          2   -1    0    0  502    0  0.00000000000E+00 -0.00000000000E+00 -0.25991395402E+04  0.25991395402E+04  0.00000000000E+00 0.  1.
          6    2    1    2  502    0 -0.55461364613E+02 -0.14969342626E+03 -0.74984820676E+03  0.78639923642E+03  0.17512093259E+03 0.  0.
         24    2    3    3    0    0  0.28941310133E+02 -0.28905668101E+02 -0.33745635930E+03  0.34844647655E+03  0.76583389245E+02 0.  0.
         -6    2    1    2    0  501  0.55461364613E+02  0.14969342626E+03 -0.18236169988E+04  0.18384146385E+04  0.16942650317E+03 0.  0.
        -24    2    5    5    0    0  0.83263935800E+02  0.56698866569E+02 -0.78803081175E+03  0.79827916085E+03  0.78162739869E+02 0.  0.
          5    1    3    3  502    0 -0.84402674747E+02 -0.12078775816E+03 -0.41239184746E+03  0.43795275987E+03  0.47000000000E+01 0. -1.
        -13    1    4    4    0    0  0.23253109240E+02 -0.54436305339E+02 -0.26137943653E+03  0.26799856020E+03  0.00000000000E+00 0.  1.
         14    1    4    4    0    0  0.56882008929E+01  0.25530637238E+02 -0.76076922775E+02  0.80447916356E+02  0.00000000000E+00 0. -1.
         -5    1    5    5    0  501 -0.27802571186E+02  0.92994559689E+02 -0.10355861870E+04  0.10401354777E+04  0.47000000000E+01 0.  1.
         11    1    6    6    0    0  0.33319334902E+02 -0.14811450769E+02 -0.33074013501E+03  0.33274403685E+03  0.00000000000E+00 0. -1.
        -12    1    6    6    0    0  0.49944600897E+02  0.71510317338E+02 -0.45729067675E+03  0.46553512401E+03  0.00000000000E+00 0.  1.
</event>
<event>
12    1  0.2685360E-002  0.1907717E+03  0.7818608E-02  0.1157767E+00
         -2   -1    0    0    0  501 -0.00000000000E+00  0.00000000000E+00  0.15143645036E+02  0.15143645036E+02  0.00000000000E+00 0. -1.
          2   -1    0    0  502    0  0.00000000000E+00 -0.00000000000E+00 -0.27689819598E+04  0.27689819598E+04  0.00000000000E+00 0.  1.
          6    2    1    2  502    0 -0.69110600756E+02 -0.13743497515E+02 -0.91377888979E+03  0.93484926225E+03  0.18435326100E+03 0.  0.
         24    2    3    3    0    0  0.35932330198E+01  0.52973773594E+02 -0.51633187072E+03  0.52530895327E+03  0.80819327232E+02 0.  0.
         -6    2    1    2    0  501  0.69110600756E+02  0.13743497515E+02 -0.18400594250E+04  0.18492763426E+04  0.17040875843E+03 0.  0.
        -24    2    5    5    0    0  0.31664924727E+02 -0.31954638597E+02 -0.15747580396E+04  0.15774355558E+04  0.80101703608E+02 0.  0.
          5    1    3    3  502    0 -0.72703833776E+02 -0.66717271109E+02 -0.39744701908E+03  0.40954030898E+03  0.47000000000E+01 0. -1.
        -11    1    4    4    0    0  0.17406897050E+01 -0.18990732763E+02 -0.19911774704E+03  0.20002888571E+03  0.00000000000E+00 0.  1.
         12    1    4    4    0    0  0.18525433148E+01  0.71964506357E+02 -0.31721412367E+03  0.32528006756E+03  0.00000000000E+00 0. -1.
         -5    1    5    5    0  501  0.37445676029E+02  0.45698136112E+02 -0.26530138533E+03  0.27184078677E+03  0.47000000000E+01 0.  1.
         13    1    6    6    0    0 -0.97850408921E+01 -0.76651459387E+01 -0.39142496279E+02  0.41068680310E+02  0.00000000000E+00 0. -1.
        -14    1    6    6    0    0  0.41449965619E+02 -0.24289492658E+02 -0.15356155434E+04  0.15363668755E+04  0.00000000000E+00 0.  1.
</event>
<event>
12    1  0.2685360E-002  0.1980041E+03  0.7818608E-02  0.1151434E+00
          1   -1    0    0  502    0  0.00000000000E+00  0.00000000000E+00  0.11152972067E+03  0.11152972067E+03  0.00000000000E+00 0. -1.
         -1   -1    0    0    0  501 -0.00000000000E+00 -0.00000000000E+00 -0.55257733092E+03  0.55257733092E+03  0.00000000000E+00 0.  1.
          6    2    1    2  502    0 -0.21230920487E+02  0.96252528986E+02 -0.19563684659E+02  0.19802522485E+03  0.17063396672E+03 0.  0.
         24    2    3    3    0    0 -0.12810717962E+02  0.13354862392E+03 -0.27361359920E+02  0.15872137965E+03  0.80277536672E+02 0.  0.
         -6    2    1    2    0  501  0.21230920487E+02 -0.96252528986E+02 -0.42148392559E+03  0.46608182674E+03  0.17282438591E+03 0.  0.
        -24    2    5    5    0    0  0.13750814342E+02 -0.53305277400E+02 -0.93433831841E+02  0.13511449842E+03  0.80594722267E+02 0.  0.
          5    1    3    3  502    0 -0.84202025257E+01 -0.37296094938E+02  0.77976752608E+01  0.39303845202E+02  0.47000000000E+01 0. -1.
        -13    1    4    4    0    0 -0.28534447187E+02  0.59742356825E+02 -0.46456964405E+02  0.80880241203E+02  0.00000000000E+00 0.  1.
         14    1    4    4    0    0  0.15723729225E+02  0.73806267099E+02  0.19095604485E+02  0.77841138445E+02  0.00000000000E+00 0. -1.
         -5    1    5    5    0  501  0.74801061455E+01 -0.42947251586E+02 -0.32805009375E+03  0.33096732832E+03  0.47000000000E+01 0.  1.
         13    1    6    6    0    0  0.96094148499E+01 -0.70760001957E+02 -0.92891255083E+02  0.11716699195E+03  0.00000000000E+00 0. -1.
        -14    1    6    6    0    0  0.41413994919E+01  0.17454724558E+02 -0.54257675853E+00  0.17947506475E+02  0.00000000000E+00 0.  1.
</event>
<event>
12    1  0.2685360E-002  0.4318216E+03  0.7818608E-02  0.1033286E+00
          1   -1    0    0  502    0  0.00000000000E+00  0.00000000000E+00  0.12193819721E+04  0.12193819721E+04  0.00000000000E+00 0.  1.
         -1   -1    0    0    0  501 -0.00000000000E+00 -0.00000000000E+00 -0.16652184380E+03  0.16652184380E+03  0.00000000000E+00 0. -1.
          6    2    1    2  502    0  0.24696412461E+03 -0.31003550122E+03  0.32783114180E+03  0.54176262388E+03  0.17005937859E+03 0.  0.
         24    2    3    3    0    0  0.17721496173E+03 -0.18065197267E+03  0.13200315932E+03  0.29686319166E+03  0.81625012118E+02 0.  0.
         -6    2    1    2    0  501 -0.24696412461E+03  0.31003550122E+03  0.72502898648E+03  0.84414119200E+03  0.17260947231E+03 0.  0.
        -24    2    5    5    0    0 -0.11118021042E+03  0.68273473370E+02  0.29443469801E+03  0.33196965752E+03  0.80559020410E+02 0.  0.
          5    1    3    3  502    0  0.69749162881E+02 -0.12938352855E+03  0.19582798247E+03  0.24489943222E+03  0.47000000000E+01 0. -1.
        -11    1    4    4    0    0  0.88562952980E+01 -0.54924767906E+02  0.23722916526E+02  0.60480913224E+02  0.00000000000E+00 0.  1.
         12    1    4    4    0    0  0.16835866643E+03 -0.12572720476E+03  0.10828024280E+03  0.23638227844E+03  0.00000000000E+00 0. -1.
         -5    1    5    5    0  501 -0.13578391419E+03  0.24176202785E+03  0.43059428847E+03  0.51217153447E+03  0.47000000000E+01 0.  1.
         13    1    6    6    0    0 -0.12167893199E+03  0.60931008796E+02  0.28573033681E+03  0.31648092470E+03  0.00000000000E+00 0. -1.
        -14    1    6    6    0    0  0.10498721571E+02  0.73424645739E+01  0.87043611939E+01  0.15488732822E+02  0.00000000000E+00 0.  1.
</event>
<event>
12    1  0.2685360E-002  0.1718833E+03  0.7818608E-02  0.1175898E+00
          1   -1    0    0  502    0  0.00000000000E+00  0.00000000000E+00  0.26510894438E+03  0.26510894438E+03  0.00000000000E+00 0.  1.
         -1   -1    0    0    0  501 -0.00000000000E+00 -0.00000000000E+00 -0.11475935256E+03  0.11475935256E+03  0.00000000000E+00 0. -1.
          6    2    1    2  502    0 -0.21486277325E+02  0.19322553062E+02  0.42186276804E+02  0.17528566954E+03  0.16766145301E+03 0.  0.
         24    2    3    3    0    0  0.45298133726E+02  0.22009188854E+02  0.51467942593E+02  0.10764237799E+03  0.80010043818E+02 0.  0.
         -6    2    1    2    0  501  0.21486277325E+02 -0.19322553062E+02  0.10816331501E+03  0.20458262740E+03  0.17123004278E+03 0.  0.
        -24    2    5    5    0    0  0.37421086523E+02 -0.67621978021E+02  0.39600309912E+02  0.11908567855E+03  0.81487082789E+02 0.  0.
          5    1    3    3  502    0 -0.66784411052E+02 -0.26866357923E+01 -0.92816657888E+01  0.67643291546E+02  0.47000000000E+01 0. -1.
        -11    1    4    4    0    0  0.14293227677E+02 -0.29518890862E+02  0.89610566319E+01  0.33999438395E+02  0.00000000000E+00 0.  1.
         12    1    4    4    0    0  0.31004906049E+02  0.51528079716E+02  0.42506885961E+02  0.73642939597E+02  0.00000000000E+00 0. -1.
         -5    1    5    5    0  501 -0.15934809198E+02  0.48299424960E+02  0.68563005100E+02  0.85496948857E+02  0.47000000000E+01 0.  1.
         13    1    6    6    0    0 -0.11132754202E+02 -0.50797553177E+02  0.43154265839E+02  0.67576773266E+02  0.00000000000E+00 0. -1.
        -14    1    6    6    0    0  0.48553840724E+02 -0.16824424844E+02 -0.35539559270E+01  0.51508905280E+02  0.00000000000E+00 0.  1.
</event>
<event>
12    1  0.2685360E-002  0.1956256E+03  0.7818608E-02  0.1153483E+00
         -2   -1    0    0    0  501 -0.00000000000E+00  0.00000000000E+00  0.33703072467E+02  0.33703072467E+02  0.00000000000E+00 0.  1.
          2   -1    0    0  502    0  0.00000000000E+00 -0.00000000000E+00 -0.11862070627E+04  0.11862070627E+04  0.00000000000E+00 0. -1.
          6    2    1    2  502    0 -0.86276523171E+02  0.40341758169E+02 -0.70108368717E+03  0.72774275394E+03  0.17035282094E+03 0.  0.
         24    2    3    3    0    0 -0.84609096169E+02  0.56860873680E+02 -0.69844118581E+03  0.71028611327E+03  0.79337346549E+02 0.  0.
         -6    2    1    2    0  501  0.86276523171E+02 -0.40341758169E+02 -0.45142030309E+03  0.49216738125E+03  0.17139820658E+03 0.  0.
        -24    2    5    5    0    0  0.61843430469E+02  0.45161509574E+02 -0.26488650553E+03  0.28546776237E+03  0.73910829376E+02 0.  0.
          5    1    3    3  502    0 -0.16674270019E+01 -0.16519115512E+02 -0.26425013538E+01  0.17456640670E+02  0.47000000000E+01 0. -1.
        -13    1    4    4    0    0 -0.86743380316E+01  0.44113034958E+02 -0.15403201051E+03  0.16045891765E+03  0.00000000000E+00 0.  1.
         14    1    4    4    0    0 -0.75934758138E+02  0.12747838722E+02 -0.54440917530E+03  0.54982719562E+03  0.00000000000E+00 0. -1.
         -5    1    5    5    0  501  0.24433092703E+02 -0.85503267742E+02 -0.18653379755E+03  0.20669961888E+03  0.47000000000E+01 0.  1.
         13    1    6    6    0    0  0.63572201155E+02  0.52264156561E+02 -0.15636429521E+03  0.17669963112E+03  0.00000000000E+00 0. -1.
        -14    1    6    6    0    0 -0.17287706866E+01 -0.71026469873E+01 -0.10852221032E+03  0.10876813125E+03  0.00000000000E+00 0.  1.
</event>
<event>
12    1  0.2685360E-002  0.1865193E+03  0.7818608E-02  0.1161639E+00
          1   -1    0    0  502    0  0.00000000000E+00  0.00000000000E+00  0.17666335421E+03  0.17666335421E+03  0.00000000000E+00 0.  1.
         -1   -1    0    0    0  501 -0.00000000000E+00 -0.00000000000E+00 -0.20088311681E+03  0.20088311681E+03  0.00000000000E+00 0. -1.
          6    2    1    2  502    0 -0.65097503295E+02  0.32645123196E+02 -0.38578794383E+02  0.19007386173E+03  0.17127860501E+03 0.  0.
         24    2    3    3    0    0 -0.10348238310E+03 -0.66394216466E+01 -0.20970783630E+02  0.13220498837E+03  0.79282404424E+02 0.  0.
         -6    2    1    2    0  501  0.65097503295E+02 -0.32645123196E+02  0.14359031781E+02  0.18747260928E+03  0.17215228269E+03 0.  0.
        -24    2    5    5    0    0  0.64952118810E+02  0.35228074606E+02 -0.22081483001E+02  0.11029234475E+03  0.78848046520E+02 0.  0.
          5    1    3    3  502    0  0.38384879807E+02  0.39284544842E+02 -0.17608010753E+02  0.57868873360E+02  0.47000000000E+01 0. -1.
        -11    1    4    4    0    0 -0.38711806925E+02  0.10416148219E+02  0.28287058023E+02  0.49063813455E+02  0.00000000000E+00 0.  1.
         12    1    4    4    0    0 -0.64770576178E+02 -0.17055569866E+02 -0.49257841653E+02  0.83141174915E+02  0.00000000000E+00 0. -1.
         -5    1    5    5    0  501  0.14538448557E+00 -0.67873197802E+02  0.36440514782E+02  0.77180264537E+02  0.47000000000E+01 0.  1.
         11    1    6    6    0    0  0.49799006211E+02 -0.17279295379E+02 -0.17098545092E+02  0.55415478999E+02  0.00000000000E+00 0. -1.
        -12    1    6    6    0    0  0.15153112599E+02  0.52507369985E+02 -0.49829379090E+01  0.54876865748E+02  0.00000000000E+00 0.  1.
</event>
<event>
12    1  0.2685360E-002  0.3166145E+03  0.7818608E-02  0.1077218E+00
         -2   -1    0    0    0  501 -0.00000000000E+00  0.00000000000E+00  0.10221295798E+03  0.10221295798E+03  0.00000000000E+00 0.  1.
          2   -1    0    0  502    0  0.00000000000E+00 -0.00000000000E+00 -0.10260943631E+04  0.10260943631E+04  0.00000000000E+00 0. -1.
          6    2    1    2  502    0 -0.15264100105E+03 -0.21707382859E+03 -0.34285528489E+03  0.46644927111E+03  0.17206061108E+03 0.  0.
         24    2    3    3    0    0 -0.18221068529E+03 -0.18500537618E+03 -0.30676982847E+03  0.40964256349E+03  0.79193302208E+02 0.  0.
         -6    2    1    2    0  501  0.15264100105E+03  0.21707382859E+03 -0.58102612028E+03  0.66185805001E+03  0.17333321570E+03 0.  0.
        -24    2    5    5    0    0  0.18184659760E+03  0.18543614887E+03 -0.52454061910E+03  0.59067791591E+03  0.79390105783E+02 0.  0.
          5    1    3    3  502    0  0.29569684236E+02 -0.32068452411E+02 -0.36085456415E+02  0.56806707619E+02  0.47000000000E+01 0. -1.
        -13    1    4    4    0    0 -0.58085779385E+02 -0.31686245882E+02 -0.38170645594E+02  0.76387002362E+02  0.00000000000E+00 0.  1.
         14    1    4    4    0    0 -0.12412490591E+03 -0.15331913029E+03 -0.26859918288E+03  0.33325556113E+03  0.00000000000E+00 0. -1.
         -5    1    5    5    0  501 -0.29205596542E+02  0.31637679721E+02 -0.56485501175E+02  0.71180134100E+02  0.47000000000E+01 0.  1.
         11    1    6    6    0    0 -0.18363441588E+01  0.32455723036E+02 -0.59944327661E+02  0.68191411016E+02  0.00000000000E+00 0. -1.
        -12    1    6    6    0    0  0.18368294175E+03  0.15298042583E+03 -0.46459629144E+03  0.52248650490E+03  0.00000000000E+00 0.  1.
</event>
<event>
12    1  0.2685360E-002  0.1827547E+03  0.7818608E-02  0.1165163E+00
         -3   -1    0    0    0  501 -0.00000000000E+00  0.00000000000E+00  0.14073220398E+03  0.14073220398E+03  0.00000000000E+00 0.  1.
          3   -1    0    0  502    0  0.00000000000E+00 -0.00000000000E+00 -0.28009637496E+03  0.28009637496E+03  0.00000000000E+00 0. -1.
          6    2    1    2  502    0 -0.61668492710E+02  0.99094332715E+00  0.12469902231E+02  0.18340040603E+03  0.17226788879E+03 0.  0.
         24    2    3    3    0    0 -0.79994618694E+02  0.53759853038E+02 -0.68273532455E+01  0.12411399279E+03  0.77899997662E+02 0.  0.
         -6    2    1    2    0  501  0.61668492710E+02 -0.99094332715E+00 -0.15183407322E+03  0.23742817291E+03  0.17179803998E+03 0.  0.
        -24    2    5    5    0    0  0.35629101298E+02  0.38255927989E+02 -0.16305578993E+03  0.18878268248E+03  0.79490639012E+02 0.  0.
          5    1    3    3  502    0  0.18326125984E+02 -0.52768909711E+02  0.19297255476E+02  0.59286413238E+02  0.47000000000E+01 0. -1.
        -13    1    4    4    0    0 -0.75184357861E+02  0.29252677900E+02  0.24254109116E+02  0.84241727430E+02  0.00000000000E+00 0.  1.
         14    1    4    4    0    0 -0.48102608328E+01  0.24507175138E+02 -0.31081462362E+02  0.39872265362E+02  0.00000000000E+00 0. -1.
         -5    1    5    5    0  501  0.26039391412E+02 -0.39246871316E+02  0.11221716710E+02  0.48645490430E+02  0.47000000000E+01 0.  1.
         13    1    6    6    0    0 -0.17673103087E+02 -0.13627162789E+00 -0.84747581299E+02  0.86570836190E+02  0.00000000000E+00 0. -1.
        -14    1    6    6    0    0  0.53302204385E+02  0.38392199617E+02 -0.78308208629E+02  0.10221184629E+03  0.00000000000E+00 0.  1.
</event>
<event>
12    1  0.2685360E-002  0.1802225E+03  0.7818608E-02  0.1167588E+00
          2   -1    0    0  502    0  0.00000000000E+00  0.00000000000E+00  0.10713611855E+04  0.10713611855E+04  0.00000000000E+00 0.  1.
         -2   -1    0    0    0  501 -0.00000000000E+00 -0.00000000000E+00 -0.30535962898E+02  0.30535962898E+02  0.00000000000E+00 0. -1.
          6    2    1    2  502    0  0.83030355498E+01  0.56018484506E+02  0.48153640877E+03  0.51504585630E+03  0.17374668377E+03 0.  0.
         24    2    3    3    0    0 -0.44326563630E+02 -0.23707859142E+01  0.35342172569E+03  0.36466419641E+03  0.78119108356E+02 0.  0.
         -6    2    1    2    0  501 -0.83030355498E+01 -0.56018484506E+02  0.55928881380E+03  0.58685129206E+03  0.16847388743E+03 0.  0.
        -24    2    5    5    0    0 -0.44053535250E+02  0.18925171992E+02  0.30371614345E+03  0.31808721390E+03  0.81468421818E+02 0.  0.
          5    1    3    3  502    0  0.52629599180E+02  0.58389270420E+02  0.12811468308E+03  0.15038165989E+03  0.47000000000E+01 0. -1.
        -13    1    4    4    0    0 -0.16007687588E+02 -0.21256743320E+02  0.30091631974E+03  0.30209059350E+03  0.00000000000E+00 0.  1.
         14    1    4    4    0    0 -0.28318876043E+02  0.18885957406E+02  0.52505405948E+02  0.62573602911E+02  0.00000000000E+00 0. -1.
         -5    1    5    5    0  501  0.35750499701E+02 -0.74943656497E+02  0.25557267035E+03  0.26876407816E+03  0.47000000000E+01 0.  1.
         13    1    6    6    0    0 -0.25748670202E+02 -0.12372649054E+00  0.28389385371E+03  0.28505916842E+03  0.00000000000E+00 0. -1.
        -14    1    6    6    0    0 -0.18304865048E+02  0.19048898482E+02  0.19822289734E+02  0.33028045478E+02  0.00000000000E+00 0.  1.
</event>
<event>
12    1  0.2685360E-002  0.1954378E+03  0.7818608E-02  0.1153646E+00
         -2   -1    0    0    0  501 -0.00000000000E+00  0.00000000000E+00  0.83546322900E+02  0.83546322900E+02  0.00000000000E+00 0. -1.
          2   -1    0    0  502    0  0.00000000000E+00 -0.00000000000E+00 -0.46127652766E+03  0.46127652766E+03  0.00000000000E+00 0.  1.
          6    2    1    2  502    0 -0.53348213949E+02  0.78501416987E+02 -0.16282833317E+03  0.25407613057E+03  0.17039104918E+03 0.  0.
         24    2    3    3    0    0 -0.10268074072E+02  0.11279038071E+03 -0.10849951812E+03  0.17658199124E+03  0.81129223305E+02 0.  0.
         -6    2    1    2    0  501  0.53348213949E+02 -0.78501416987E+02 -0.21490187159E+03  0.29074672000E+03  0.17129604892E+03 0.  0.
        -24    2    5    5    0    0 -0.25745624613E+02 -0.13444961543E+01 -0.10775729282E+03  0.13676270624E+03  0.80173304827E+02 0.  0.
          5    1    3    3  502    0 -0.43080139877E+02 -0.34288963719E+02 -0.54328815056E+02  0.77494139327E+02  0.47000000000E+01 0. -1.
        -11    1    4    4    0    0 -0.20591947715E+02  0.11608822727E+03 -0.11436780968E+03  0.16425742209E+03  0.00000000000E+00 0.  1.
         12    1    4    4    0    0  0.10323873643E+02 -0.32978465600E+01  0.58682915624E+01  0.12324569152E+02  0.00000000000E+00 0. -1.
         -5    1    5    5    0  501  0.79093838562E+02 -0.77156920833E+02 -0.10714457877E+03  0.15398401375E+03  0.47000000000E+01 0.  1.
         11    1    6    6    0    0  0.24678319267E+02  0.99867785876E+00 -0.68497523280E+02  0.72814335778E+02  0.00000000000E+00 0. -1.
        -12    1    6    6    0    0 -0.50423943881E+02 -0.23431740131E+01 -0.39259769536E+02  0.63948370464E+02  0.00000000000E+00 0.  1.
</event>
<event>
12    1  0.2685360E-002  0.1738366E+03  0.7818608E-02  0.1173905E+00
         -2   -1    0    0    0  501 -0.00000000000E+00  0.00000000000E+00  0.14113814758E+02  0.14113814758E+02  0.00000000000E+00 0.  1.
          2   -1    0    0  502    0  0.00000000000E+00 -0.00000000000E+00 -0.21459880201E+04  0.21459880201E+04  0.00000000000E+00 0. -1.
          6    2    1    2  502    0  0.84849349808E+01  0.28768473439E+02 -0.11147983607E+04  0.11282054677E+04  0.17079980410E+03 0.  0.
         24    2    3    3    0    0  0.21598121899E+02  0.16670389730E+02 -0.11030375712E+04  0.11063256717E+04  0.80747927261E+02 0.  0.
         -6    2    1    2    0  501 -0.84849349808E+01 -0.28768473439E+02 -0.10170758446E+04  0.10318963671E+04  0.17166018663E+03 0.  0.
        -24    2    5    5    0    0  0.41489771808E+01  0.50233535011E+02 -0.47521874143E+03  0.48414446772E+03  0.77604067933E+02 0.  0.
          5    1    3    3  502    0 -0.13113186918E+02  0.12098083709E+02 -0.11760789560E+02  0.21879795969E+02  0.47000000000E+01 0. -1.
        -13    1    4    4    0    0  0.27893692485E+02  0.46769232617E+02 -0.71818947010E+03  0.72025102163E+03  0.00000000000E+00 0.  1.
         14    1    4    4    0    0 -0.62955705864E+01 -0.30098842887E+02 -0.38484810108E+03  0.38607465011E+03  0.00000000000E+00 0. -1.
         -5    1    5    5    0  501 -0.12633912162E+02 -0.79002008451E+02 -0.54185710317E+03  0.54775189943E+03  0.47000000000E+01 0.  1.
         11    1    6    6    0    0 -0.34365345925E+02  0.37016175483E+02 -0.22205914995E+03  0.22773107017E+03  0.00000000000E+00 0. -1.
        -12    1    6    6    0    0  0.38514323106E+02  0.13217359529E+02 -0.25315959149E+03  0.25641339754E+03  0.00000000000E+00 0.  1.
</event>
<event>
12    1  0.2685360E-002  0.2041544E+03  0.7818608E-02  0.1146281E+00
          2   -1    0    0  502    0  0.00000000000E+00  0.00000000000E+00  0.40559814938E+03  0.40559814938E+03  0.00000000000E+00 0.  1.
         -2   -1    0    0    0  501 -0.00000000000E+00 -0.00000000000E+00 -0.10358489527E+03  0.10358489527E+03  0.00000000000E+00 0. -1.
          6    2    1    2  502    0 -0.10841445836E+03  0.15664741372E+02  0.17409374022E+03  0.26868761195E+03  0.17287372134E+03 0.  0.
         24    2    3    3    0    0 -0.77559573382E+02  0.55259185389E+02  0.17903914625E+03  0.21802903948E+03  0.80078593734E+02 0.  0.
         -6    2    1    2    0  501  0.10841445836E+03 -0.15664741372E+02  0.12791951389E+03  0.24049543270E+03  0.17168451361E+03 0.  0.
        -24    2    5    5    0    0  0.10329334311E+03 -0.70917717822E+02  0.95502361744E+02  0.17605880506E+03  0.78594938198E+02 0.  0.
          5    1    3    3  502    0 -0.30854884981E+02 -0.39594444017E+02 -0.49454060293E+01  0.50658572473E+02  0.47000000000E+01 0. -1.
        -11    1    4    4    0    0 -0.16707039684E+02 -0.16503633339E+02  0.70893390393E+02  0.74681777495E+02  0.00000000000E+00 0.  1.
         12    1    4    4    0    0 -0.60852533697E+02  0.71762818728E+02  0.10814575585E+03  0.14334726198E+03  0.00000000000E+00 0. -1.
         -5    1    5    5    0  501  0.51211152538E+01  0.55252976450E+02  0.32417152144E+02  0.64436627637E+02  0.47000000000E+01 0.  1.
         11    1    6    6    0    0  0.23067295988E+02 -0.32070526547E+02 -0.71078952624E+01  0.40139020818E+02  0.00000000000E+00 0. -1.
        -12    1    6    6    0    0  0.80226047121E+02 -0.38847191276E+02  0.10261025701E+03  0.13591978425E+03  0.00000000000E+00 0.  1.
</event>
<event>
12    1  0.2685360E-002  0.1737781E+03  0.7818608E-02  0.1173964E+00
         -2   -1    0    0    0  501 -0.00000000000E+00  0.00000000000E+00  0.23075225641E+03  0.23075225641E+03  0.00000000000E+00 0.  1.
          2   -1    0    0  502    0  0.00000000000E+00 -0.00000000000E+00 -0.13097483454E+03  0.13097483454E+03  0.00000000000E+00 0. -1.
          6    2    1    2  502    0  0.73872014805E+01 -0.21410518281E+02  0.44717225017E+02  0.17910863251E+03  0.17195142043E+03 0.  0.
         24    2    3    3    0    0  0.56994927277E+02 -0.26483261104E+02  0.69627436286E+02  0.12316877370E+03  0.79829706726E+02 0.  0.
         -6    2    1    2    0  501 -0.73872014805E+01  0.21410518281E+02  0.55060196852E+02  0.18261845845E+03  0.17264094256E+03 0.  0.
        -24    2    5    5    0    0 -0.33253366995E+02 -0.48226023990E+02  0.30887726743E+02  0.10435796491E+03  0.80653563902E+02 0.  0.
          5    1    3    3  502    0 -0.49607725796E+02  0.50727428229E+01 -0.24910211269E+02  0.55939858812E+02  0.47000000000E+01 0. -1.
        -13    1    4    4    0    0  0.44876228093E+02  0.13439622113E+02  0.62064003889E+01  0.47254827226E+02  0.00000000000E+00 0.  1.
         14    1    4    4    0    0  0.12118699184E+02 -0.39922883217E+02  0.63421035897E+02  0.75913946469E+02  0.00000000000E+00 0. -1.
         -5    1    5    5    0  501  0.25866165514E+02  0.69636542271E+02  0.24172470108E+02  0.78260493539E+02  0.47000000000E+01 0.  1.
         11    1    6    6    0    0 -0.15716537353E+02 -0.38664440105E+01 -0.25685159625E+02  0.30359287881E+02  0.00000000000E+00 0. -1.
        -12    1    6    6    0    0 -0.17536829642E+02 -0.44359579979E+02  0.56572886368E+02  0.73998677028E+02  0.00000000000E+00 0.  1.
</event>
<event>
12    1  0.2685360E-002  0.2005803E+03  0.7818608E-02  0.1149250E+00
          2   -1    0    0  502    0  0.00000000000E+00  0.00000000000E+00  0.41485928438E+03  0.41485928438E+03  0.00000000000E+00 0. -1.
         -2   -1    0    0    0  501 -0.00000000000E+00 -0.00000000000E+00 -0.10404467882E+03  0.10404467882E+03  0.00000000000E+00 0.  1.
          6    2    1    2  502    0 -0.40968349670E+02 -0.87295399053E+02  0.22478696471E+03  0.30298535708E+03  0.17880731174E+03 0.  0.
         24    2    3    3    0    0  0.18794790413E+02  0.47701228984E+01  0.36040883250E+02  0.84593813034E+02  0.74034922294E+02 0.  0.
         -6    2    1    2    0  501  0.40968349670E+02  0.87295399053E+02  0.86027640850E+02  0.21591860612E+03  0.17297744681E+03 0.  0.
        -24    2    5    5    0    0  0.25811957971E+02  0.19217277303E+02  0.11211292267E+03  0.14130708691E+03  0.79767314482E+02 0.  0.
          5    1    3    3  502    0 -0.59763140082E+02 -0.92065521952E+02  0.18874608146E+03  0.21839154405E+03  0.47000000000E+01 0. -1.
        -11    1    4    4    0    0  0.26139691883E+02 -0.18547308480E+02 -0.90479445658E+01  0.33303925361E+02  0.00000000000E+00 0.  1.
         12    1    4    4    0    0 -0.73449014702E+01  0.23317431378E+02  0.45088827816E+02  0.51289887673E+02  0.00000000000E+00 0. -1.
         -5    1    5    5    0  501  0.15156391699E+02  0.68078121750E+02 -0.26085281823E+02  0.74611519205E+02  0.47000000000E+01 0.  1.
         13    1    6    6    0    0 -0.28297443482E+02  0.79263745041E+01  0.27549038173E+02  0.40280543996E+02  0.00000000000E+00 0. -1.
        -14    1    6    6    0    0  0.54109401452E+02  0.11290902799E+02  0.84563884500E+02  0.10102654291E+03  0.00000000000E+00 0.  1.
</event>
<event>
12    1  0.2685360E-002  0.1750584E+03  0.7818608E-02  0.1172673E+00
         -4   -1    0    0    0  501 -0.00000000000E+00  0.00000000000E+00  0.27593060785E+03  0.27593060785E+03  0.00000000000E+00 0.  1.
          4   -1    0    0  502    0  0.00000000000E+00 -0.00000000000E+00 -0.11116875426E+03  0.11116875426E+03  0.00000000000E+00 0. -1.
          6    2    1    2  502    0 -0.13279277436E+02 -0.26801275444E+02  0.76712140075E+02  0.19168768094E+03  0.17310334201E+03 0.  0.
         24    2    3    3    0    0 -0.49806745242E+02 -0.70842416686E+02  0.54556835983E+02  0.13015049279E+03  0.80394916172E+02 0.  0.
         -6    2    1    2    0  501  0.13279277436E+02  0.26801275444E+02  0.88049713515E+02  0.19541168118E+03  0.17186717405E+03 0.  0.
        -24    2    5    5    0    0  0.20528615892E+02 -0.20027649870E+02  0.11023677441E+03  0.14287734169E+03  0.86251130464E+02 0.  0.
          5    1    3    3  502    0  0.36527467806E+02  0.44041141242E+02  0.22155304092E+02  0.61537188151E+02  0.47000000000E+01 0. -1.
        -11    1    4    4    0    0 -0.11530606962E+02 -0.67732221063E+02  0.60183508517E+02  0.91338181307E+02  0.00000000000E+00 0.  1.
         12    1    4    4    0    0 -0.38276138280E+02 -0.31101956224E+01 -0.56266725340E+01  0.38812311478E+02  0.00000000000E+00 0. -1.
         -5    1    5    5    0  501 -0.72493384554E+01  0.46828925315E+02 -0.22187060895E+02  0.52534339487E+02  0.47000000000E+01 0.  1.
         13    1    6    6    0    0 -0.54364638790E+01 -0.24577257899E+02 -0.41335211893E+01  0.25508483741E+02  0.00000000000E+00 0. -1.
        -14    1    6    6    0    0  0.25965079771E+02  0.45496080291E+01  0.11437029560E+03  0.11736885795E+03  0.00000000000E+00 0.  1.
</event>
<event>
12    1  0.2685360E-002  0.1766168E+03  0.7818608E-02  0.1171118E+00
         -2   -1    0    0    0  501 -0.00000000000E+00  0.00000000000E+00  0.38454919437E+02  0.38454919437E+02  0.00000000000E+00 0.  1.
          2   -1    0    0  502    0  0.00000000000E+00 -0.00000000000E+00 -0.12787210408E+04  0.12787210408E+04  0.00000000000E+00 0. -1.
          6    2    1    2  502    0  0.18677992314E+02 -0.26266712544E+02 -0.10206423639E+04  0.10359872312E+04  0.17469945810E+03 0.  0.
         24    2    3    3    0    0  0.94066338389E+01 -0.21761068416E+02 -0.21286759065E+03  0.22813301589E+03  0.78549557162E+02 0.  0.
         -6    2    1    2    0  501 -0.18677992314E+02  0.26266712544E+02 -0.21962375743E+03  0.28118872900E+03  0.17260851341E+03 0.  0.
        -24    2    5    5    0    0 -0.68537722536E+02  0.53742927040E+02 -0.13527351483E+03  0.17931631620E+03  0.79181410855E+02 0.  0.
          5    1    3    3  502    0  0.92713584748E+01 -0.45056441275E+01 -0.80777477326E+03  0.80785421533E+03  0.47000000000E+01 0. -1.
        -13    1    4    4    0    0  0.43013606260E+02 -0.89231850270E+01 -0.90697277390E+02  0.10077593800E+03  0.00000000000E+00 0.  1.
         14    1    4    4    0    0 -0.33606972421E+02 -0.12837883389E+02 -0.12217031326E+03  0.12735707789E+03  0.00000000000E+00 0. -1.
         -5    1    5    5    0  501  0.49859730222E+02 -0.27476214496E+02 -0.84350242603E+02  0.10187241279E+03  0.47000000000E+01 0.  1.
         13    1    6    6    0    0 -0.38928690255E+02  0.39207994376E+02 -0.13549961091E+03  0.14633131689E+03  0.00000000000E+00 0. -1.
        -14    1    6    6    0    0 -0.29609032281E+02  0.14534932664E+02  0.22609607395E+00  0.32984999312E+02  0.00000000000E+00 0.  1.
</event>
<event>
12    1  0.2685360E-002  0.1752562E+03  0.7818608E-02  0.1172475E+00
          2   -1    0    0  502    0  0.00000000000E+00  0.00000000000E+00  0.43878165348E+03  0.43878165348E+03  0.00000000000E+00 0.  1.
         -2   -1    0    0    0  501 -0.00000000000E+00 -0.00000000000E+00 -0.13107460893E+03  0.13107460893E+03  0.00000000000E+00 0. -1.
          6    2    1    2  502    0  0.32429653539E+02  0.62587246630E+01 -0.40746598227E+02  0.17970971812E+03  0.17188497159E+03 0.  0.
         24    2    3    3    0    0  0.88283661996E+01  0.70766360686E+02 -0.46579952109E+01  0.10197469939E+03  0.72741491201E+02 0.  0.
         -6    2    1    2    0  501 -0.32429653539E+02 -0.62587246630E+01  0.34845364277E+03  0.39014654429E+03  0.17234712297E+03 0.  0.
        -24    2    5    5    0    0 -0.35142636117E+02  0.60812622634E+02  0.18772191897E+03  0.21589757603E+03  0.80243781875E+02 0.  0.
          5    1    3    3  502    0  0.23601287339E+02 -0.64507636023E+02 -0.36088603016E+02  0.77735018730E+02  0.47000000000E+01 0. -1.
        -11    1    4    4    0    0 -0.30693311351E+02  0.18978333299E+02  0.37824875418E+01  0.36284483027E+02  0.00000000000E+00 0.  1.
         12    1    4    4    0    0  0.39521677550E+02  0.51788027386E+02 -0.84404827527E+01  0.65690216365E+02  0.00000000000E+00 0. -1.
         -5    1    5    5    0  501  0.27129825782E+01 -0.67071347297E+02  0.16073172380E+03  0.17424896826E+03  0.47000000000E+01 0.  1.
         13    1    6    6    0    0  0.18762166479E+02  0.34541168408E+01  0.10032866927E+02  0.21554772857E+02  0.00000000000E+00 0. -1.
        -14    1    6    6    0    0 -0.53904802596E+02  0.57358505794E+02  0.17768905204E+03  0.19434280317E+03  0.00000000000E+00 0.  1.
</event>
<event>
12    1  0.2685360E-002  0.1908066E+03  0.7818608E-02  0.1157736E+00
          2   -1    0    0  502    0  0.00000000000E+00  0.00000000000E+00  0.11118582660E+04  0.11118582660E+04  0.00000000000E+00 0.  1.
         -2   -1    0    0    0  501 -0.00000000000E+00 -0.00000000000E+00 -0.38535208155E+02  0.38535208155E+02  0.00000000000E+00 0. -1.
          6    2    1    2  502    0 -0.82341438858E+02  0.13122914004E+02  0.76140806284E+03  0.78513386207E+03  0.17245468912E+03 0.  0.
         24    2    3    3    0    0 -0.54448739062E+02  0.65056306385E+02  0.62911546116E+03  0.64022526190E+03  0.83097137856E+02 0.  0.
         -6    2    1    2    0  501  0.82341438858E+02 -0.13122914004E+02  0.31191499503E+03  0.36525961210E+03  0.17079606753E+03 0.  0.
        -24    2    5    5    0    0  0.10782340417E+03 -0.33725583005E+02  0.29949151339E+03  0.32990097210E+03  0.79851007295E+02 0.  0.
          5    1    3    3  502    0 -0.27892699796E+02 -0.51933392381E+02  0.13229260168E+03  0.14490860018E+03  0.47000000000E+01 0. -1.
        -13    1    4    4    0    0 -0.14156371932E+02  0.73932622832E+02  0.34398022916E+03  0.35212048171E+03  0.00000000000E+00 0.  1.
         14    1    4    4    0    0 -0.40292367130E+02 -0.88763164472E+01  0.28513523200E+03  0.28810478019E+03  0.00000000000E+00 0. -1.
         -5    1    5    5    0  501 -0.25481965316E+02  0.20602669002E+02  0.12423481638E+02  0.35358639996E+02  0.47000000000E+01 0.  1.
         11    1    6    6    0    0  0.47012690364E+02 -0.53081264367E+02  0.11977329775E+03  0.13918856467E+03  0.00000000000E+00 0. -1.
        -12    1    6    6    0    0  0.60810713810E+02  0.19355681361E+02  0.17971821564E+03  0.19071240743E+03  0.00000000000E+00 0.  1.
</event>
<event>
12    1  0.2685360E-002  0.2615779E+03  0.7818608E-02  0.1106199E+00
          1   -1    0    0  502    0  0.00000000000E+00  0.00000000000E+00  0.47395256719E+03  0.47395256719E+03  0.00000000000E+00 0. -1.
         -1   -1    0    0    0  501 -0.00000000000E+00 -0.00000000000E+00 -0.40205805719E+03  0.40205805719E+03  0.00000000000E+00 0.  1.
          6    2    1    2  502    0 -0.14784746467E+03  0.13043683153E+03  0.38661101889E+03  0.46684348374E+03  0.17205266215E+03 0.  0.
         24    2    3    3    0    0 -0.11382651790E+03  0.15194524508E+03  0.24745922825E+03  0.32191126679E+03  0.79667812559E+02 0.  0.
         -6    2    1    2    0  501  0.14784746467E+03 -0.13043683153E+03 -0.31471650889E+03  0.40916714064E+03  0.17175164683E+03 0.  0.
        -24    2    5    5    0    0  0.10313372595E+03 -0.10089662716E+02 -0.13420005077E+03  0.18760215893E+03  0.80290408431E+02 0.  0.
          5    1    3    3  502    0 -0.34020946774E+02 -0.21508413552E+02  0.13915179063E+03  0.14493221695E+03  0.47000000000E+01 0. -1.
        -13    1    4    4    0    0 -0.12274054564E+02  0.19274994916E+02 -0.56974453433E+00  0.22858312564E+02  0.00000000000E+00 0.  1.
         14    1    4    4    0    0 -0.10155246334E+03  0.13267025016E+03  0.24802897279E+03  0.29905295422E+03  0.00000000000E+00 0. -1.
         -5    1    5    5    0  501  0.44713738725E+02 -0.12034716881E+03 -0.18051645812E+03  0.22156498172E+03  0.47000000000E+01 0.  1.
         13    1    6    6    0    0  0.83070259275E+02 -0.22312770069E+02 -0.48512288384E+02  0.98752062299E+02  0.00000000000E+00 0. -1.
        -14    1    6    6    0    0  0.20063466674E+02  0.12223107353E+02 -0.85687762384E+02  0.88850096627E+02  0.00000000000E+00 0.  1.
</event>
<event>
12    1  0.2685360E-002  0.2015598E+03  0.7818608E-02  0.1148430E+00
         -4   -1    0    0    0  501 -0.00000000000E+00  0.00000000000E+00  0.28292905094E+02  0.28292905094E+02  0.00000000000E+00 0.  1.
          4   -1    0    0  502    0  0.00000000000E+00 -0.00000000000E+00 -0.15744927820E+04  0.15744927820E+04  0.00000000000E+00 0. -1.
          6    2    1    2  502    0  0.87706664202E+02 -0.55899463897E+02 -0.10093131494E+04  0.10291568254E+04  0.17214391851E+03 0.  0.
         24    2    3    3    0    0  0.92710659708E+02 -0.12119614583E+01 -0.36889185510E+03  0.38636814542E+03  0.67841047791E+02 0.  0.
         -6    2    1    2    0  501 -0.87706664202E+02  0.55899463897E+02 -0.53688672749E+03  0.57362886169E+03  0.17316322878E+03 0.  0.
        -24    2    5    5    0    0  0.12061537278E+01  0.65682317468E+02 -0.19529050030E+03  0.22048403892E+03  0.78480636330E+02 0.  0.
          5    1    3    3  502    0 -0.50039955063E+01 -0.54687502439E+02 -0.64042129433E+03  0.64278867999E+03  0.47000000000E+01 0. -1.
        -11    1    4    4    0    0  0.99653480372E+02 -0.84263178194E+01 -0.28823426722E+03  0.30509148100E+03  0.00000000000E+00 0.  1.
         12    1    4    4    0    0 -0.69428206632E+01  0.72143563611E+01 -0.80657587880E+02  0.81276664419E+02  0.00000000000E+00 0. -1.
         -5    1    5    5    0  501 -0.88912817930E+02 -0.97828535713E+01 -0.34159622719E+03  0.35314482277E+03  0.47000000000E+01 0.  1.
         13    1    6    6    0    0 -0.18660076052E+02  0.10365711059E+02 -0.13353185094E+03  0.13522722218E+03  0.00000000000E+00 0. -1.
        -14    1    6    6    0    0  0.19866229780E+02  0.55316606409E+02 -0.61758649360E+02  0.85256816743E+02  0.00000000000E+00 0.  1.
</event>
<event>
12    1  0.2685360E-002  0.1949420E+03  0.7818608E-02  0.1154078E+00
         -2   -1    0    0    0  501 -0.00000000000E+00  0.00000000000E+00  0.16443485555E+03  0.16443485555E+03  0.00000000000E+00 0. -1.
          2   -1    0    0  502    0  0.00000000000E+00 -0.00000000000E+00 -0.24260926221E+03  0.24260926221E+03  0.00000000000E+00 0.  1.
          6    2    1    2  502    0 -0.12859094746E+02  0.89900699952E+02 -0.83738713972E+02  0.21406401263E+03  0.17482487556E+03 0.  0.
         24    2    3    3    0    0 -0.26153140400E+02  0.12975927134E+03 -0.70420089363E+02  0.16973667203E+03  0.79561885320E+02 0.  0.
         -6    2    1    2    0  501  0.12859094746E+02 -0.89900699952E+02  0.55643073105E+01  0.19298010514E+03  0.17018480336E+03 0.  0.
        -24    2    5    5    0    0  0.42881198102E+02  0.51390098532E+01 -0.38177085467E+01  0.92760419694E+02  0.82004353484E+02 0.  0.
          5    1    3    3  502    0  0.13294045654E+02 -0.39858571385E+02 -0.13318624609E+02  0.44327340594E+02  0.47000000000E+01 0. -1.
        -13    1    4    4    0    0  0.10311807006E+02  0.46986218385E+02 -0.62602691327E+02  0.78950206100E+02  0.00000000000E+00 0.  1.
         14    1    4    4    0    0 -0.36464947406E+02  0.82773052951E+02 -0.78173980366E+01  0.90786465931E+02  0.00000000000E+00 0. -1.
         -5    1    5    5    0  501 -0.30022103357E+02 -0.95039709805E+02  0.93820158571E+01  0.10021968545E+03  0.47000000000E+01 0.  1.
         11    1    6    6    0    0  0.11372040560E+02  0.42305338418E+02 -0.44355899102E+01  0.44031118802E+02  0.00000000000E+00 0. -1.
        -12    1    6    6    0    0  0.31509157542E+02 -0.37166328564E+02  0.61788136353E+00  0.48729300891E+02  0.00000000000E+00 0.  1.
</event>
<event>
12    1  0.2685360E-002  0.1991353E+03  0.7818608E-02  0.1150471E+00
          2   -1    0    0  502    0  0.00000000000E+00  0.00000000000E+00  0.25448499715E+04  0.25448499715E+04  0.00000000000E+00 0.  1.
         -2   -1    0    0    0  501 -0.00000000000E+00 -0.00000000000E+00 -0.16718828385E+02  0.16718828385E+02  0.00000000000E+00 0. -1.
          6    2    1    2  502    0 -0.44108958806E+02 -0.83888958802E+02  0.15820762162E+04  0.15942368366E+04  0.17217136711E+03 0.  0.
         24    2    3    3    0    0 -0.47971887725E+01  0.11700472001E+02  0.39789813715E+03  0.40554740389E+03  0.77368308666E+02 0.  0.
         -6    2    1    2    0  501  0.44108958806E+02  0.83888958802E+02  0.94605492694E+03  0.96733196331E+03  0.17812423979E+03 0.  0.
        -24    2    5    5    0    0  0.66667245390E+02 -0.10274967410E+02  0.45144186429E+03  0.46330826046E+03  0.79402083171E+02 0.  0.
          5    1    3    3  502    0 -0.39311770033E+02 -0.95589430803E+02  0.11841780790E+04  0.11886894327E+04  0.47000000000E+01 0. -1.
        -11    1    4    4    0    0  0.10930408523E+02 -0.18294436019E+02  0.31869691534E+03  0.31940864745E+03  0.00000000000E+00 0.  1.
         12    1    4    4    0    0 -0.15727597295E+02  0.29994908020E+02  0.79201221814E+02  0.86138756437E+02  0.00000000000E+00 0. -1.
         -5    1    5    5    0  501 -0.22558286584E+02  0.94163926212E+02  0.49461306265E+03  0.50402370285E+03  0.47000000000E+01 0.  1.
         13    1    6    6    0    0  0.14017924150E+01 -0.15714464952E+02  0.14317276012E+02  0.21304784043E+02  0.00000000000E+00 0. -1.
        -14    1    6    6    0    0  0.65265452975E+02  0.54394975425E+01  0.43712458828E+03  0.44200347642E+03  0.00000000000E+00 0.  1.
</event>
<event>
12    1  0.2685360E-002  0.3317601E+03  0.7818608E-02  0.1070361E+00
          1   -1    0    0  502    0  0.00000000000E+00  0.00000000000E+00  0.16446126127E+03  0.16446126127E+03  0.00000000000E+00 0. -1.
         -1   -1    0    0    0  501 -0.00000000000E+00 -0.00000000000E+00 -0.67332255363E+03  0.67332255363E+03  0.00000000000E+00 0.  1.
          6    2    1    2  502    0  0.28235314992E+03  0.31248222523E+02 -0.22143200532E+03  0.39842813029E+03  0.17033229097E+03 0.  0.
         24    2    3    3    0    0  0.22733491550E+03 -0.19097110202E+02 -0.21400884820E+03  0.32333584103E+03  0.81856066115E+02 0.  0.
         -6    2    1    2    0  501 -0.28235314992E+03 -0.31248222523E+02 -0.28742928704E+03  0.43935568460E+03  0.17238929742E+03 0.  0.
        -24    2    5    5    0    0 -0.18634269322E+03 -0.53301769652E+02 -0.26646402121E+03  0.33852910524E+03  0.77680129547E+02 0.  0.
          5    1    3    3  502    0  0.55018234415E+02  0.50345332726E+02 -0.74231571217E+01  0.75092289265E+02  0.47000000000E+01 0. -1.
        -13    1    4    4    0    0  0.21136307553E+03 -0.26702394121E+02 -0.15980261994E+03  0.26631606202E+03  0.00000000000E+00 0.  1.
         14    1    4    4    0    0  0.15971839969E+02  0.76052839191E+01 -0.54206228264E+02  0.57019779007E+02  0.00000000000E+00 0. -1.
         -5    1    5    5    0  501 -0.96010456693E+02  0.22053547129E+02 -0.20965265830E+02  0.10082657937E+03  0.47000000000E+01 0.  1.
         13    1    6    6    0    0 -0.22245302866E+02 -0.75640768034E+01 -0.15208180574E+01  0.23545310468E+02  0.00000000000E+00 0. -1.
        -14    1    6    6    0    0 -0.16409739036E+03 -0.45737692849E+02 -0.26494320315E+03  0.31498379477E+03  0.00000000000E+00 0.  1.
</event>
<event>
12    1  0.2685360E-002  0.2918571E+03  0.7818608E-02  0.1089384E+00
         -2   -1    0    0    0  501 -0.00000000000E+00  0.00000000000E+00  0.37367589363E+03  0.37367589363E+03  0.00000000000E+00 0. -1.
          2   -1    0    0  502    0  0.00000000000E+00 -0.00000000000E+00 -0.26460198831E+03  0.26460198831E+03  0.00000000000E+00 0.  1.
          6    2    1    2  502    0  0.23205302673E+03 -0.42254137485E+02  0.17329334614E+03  0.33934494359E+03  0.17172765524E+03 0.  0.
         24    2    3    3    0    0  0.11019494153E+03 -0.30899669909E+02  0.16480533092E+02  0.14037091212E+03  0.79590641786E+02 0.  0.
         -6    2    1    2    0  501 -0.23205302673E+03  0.42254137485E+02 -0.64219440820E+02  0.29893293834E+03  0.17205448468E+03 0.  0.
        -24    2    5    5    0    0 -0.99851790061E+02 -0.28230246481E+02  0.10585910322E+02  0.13141235477E+03  0.79936341519E+02 0.  0.
          5    1    3    3  502    0  0.12185808520E+03 -0.11354467575E+02  0.15681281305E+03  0.19897403147E+03  0.47000000000E+01 0. -1.
        -11    1    4    4    0    0  0.39237311007E+02  0.21253837788E+02  0.26243836334E+02  0.51769017195E+02  0.00000000000E+00 0.  1.
         12    1    4    4    0    0  0.70957630525E+02 -0.52153507698E+02 -0.97633032415E+01  0.88601894929E+02  0.00000000000E+00 0. -1.
         -5    1    5    5    0  501 -0.13220123667E+03  0.70484383965E+02 -0.74805351142E+02  0.16752058357E+03  0.47000000000E+01 0.  1.
         11    1    6    6    0    0 -0.90098126689E+01 -0.36430094202E+02  0.14212860315E+02  0.40128965676E+02  0.00000000000E+00 0. -1.
        -12    1    6    6    0    0 -0.90841977392E+02  0.81998477214E+01 -0.36269499927E+01  0.91283389099E+02  0.00000000000E+00 0.  1.
</event>
<event>
12    1  0.2685360E-002  0.2231937E+03  0.7818608E-02  0.1131524E+00
         -2   -1    0    0    0  501 -0.00000000000E+00  0.00000000000E+00  0.10228329444E+03  0.10228329444E+03  0.00000000000E+00 0. -1.
          2   -1    0    0  502    0  0.00000000000E+00 -0.00000000000E+00 -0.60199365969E+03  0.60199365969E+03  0.00000000000E+00 0.  1.
          6    2    1    2  502    0  0.13808220566E+02 -0.14103054383E+03 -0.40331206197E+03  0.46072480919E+03  0.17183261978E+03 0.  0.
         24    2    3    3    0    0  0.71582372296E+02 -0.12116224435E+03 -0.30200945983E+03  0.34233178096E+03  0.78593949817E+02 0.  0.
         -6    2    1    2    0  501 -0.13808220566E+02  0.14103054383E+03 -0.96398303281E+02  0.24355214494E+03  0.17304546565E+03 0.  0.
        -24    2    5    5    0    0 -0.58567886774E+02  0.31101631490E+02 -0.19900878965E+02  0.10226612506E+03  0.75264908880E+02 0.  0.
          5    1    3    3  502    0 -0.57774151730E+02 -0.19868299477E+02 -0.10130260214E+03  0.11839302823E+03  0.47000000000E+01 0. -1.
        -11    1    4    4    0    0 -0.14525349596E+02 -0.20720490470E+02 -0.79841231796E+02  0.83755279242E+02  0.00000000000E+00 0.  1.
         12    1    4    4    0    0  0.86107721892E+02 -0.10044175388E+03 -0.22216822803E+03  0.25857650172E+03  0.00000000000E+00 0. -1.
         -5    1    5    5    0  501  0.44759666208E+02  0.10992891234E+03 -0.76497424316E+02  0.14128601988E+03  0.47000000000E+01 0.  1.
         13    1    6    6    0    0 -0.97221289528E+01 -0.12762178928E+02 -0.31733166018E+02  0.35558217445E+02  0.00000000000E+00 0. -1.
        -14    1    6    6    0    0 -0.48845757821E+02  0.43863810418E+02  0.11832287052E+02  0.66707907615E+02  0.00000000000E+00 0.  1.
</event>
<event>
12    1  0.2685360E-002  0.1772221E+03  0.7818608E-02  0.1170519E+00
         -1   -1    0    0    0  501 -0.00000000000E+00  0.00000000000E+00  0.49422756252E+02  0.49422756252E+02  0.00000000000E+00 0.  1.
          1   -1    0    0  502    0  0.00000000000E+00 -0.00000000000E+00 -0.67447267567E+03  0.67447267567E+03  0.00000000000E+00 0. -1.
          6    2    1    2  502    0  0.27488952329E+02 -0.39275500645E+02 -0.22552750357E+03  0.28683482050E+03  0.17062635181E+03 0.  0.
         24    2    3    3    0    0  0.60850721453E+02 -0.74378838706E+02 -0.13275186066E+03  0.18207479998E+03  0.79329403936E+02 0.  0.
         -6    2    1    2    0  501 -0.27488952329E+02  0.39275500645E+02 -0.39952241584E+03  0.43706061142E+03  0.17060366305E+03 0.  0.
        -24    2    5    5    0    0 -0.75424365748E+02  0.53558751543E+02 -0.23824524235E+03  0.26813982583E+03  0.81122104739E+02 0.  0.
          5    1    3    3  502    0 -0.33361769124E+02  0.35103338060E+02 -0.92775642913E+02  0.10476002052E+03  0.47000000000E+01 0. -1.
        -13    1    4    4    0    0 -0.42620250050E+01 -0.18443811155E+02  0.51691771986E+01  0.19622930973E+02  0.00000000000E+00 0.  1.
         14    1    4    4    0    0  0.65112746458E+02 -0.55935027551E+02 -0.13792103786E+03  0.16245186900E+03  0.00000000000E+00 0. -1.
         -5    1    5    5    0  501  0.47935413419E+02 -0.14283250897E+02 -0.16127717350E+03  0.16892078560E+03  0.47000000000E+01 0.  1.
         13    1    6    6    0    0  0.75858501469E+01  0.11934422517E+02 -0.19783474356E+01  0.14278985322E+02  0.00000000000E+00 0. -1.
        -14    1    6    6    0    0 -0.83010215895E+02  0.41624329026E+02 -0.23626689491E+03  0.25386084050E+03  0.00000000000E+00 0.  1.
</event>
<event>
12    1  0.2685360E-002  0.1708961E+03  0.7818608E-02  0.1176917E+00
          2   -1    0    0  502    0  0.00000000000E+00  0.00000000000E+00  0.28143745671E+04  0.28143745671E+04  0.00000000000E+00 0. -1.
         -2   -1    0    0    0  501 -0.00000000000E+00 -0.00000000000E+00 -0.10388865964E+02  0.10388865964E+02  0.00000000000E+00 0.  1.
          6    2    1    2  502    0 -0.30508315584E+02 -0.70335291295E+01  0.13961569296E+04  0.14060568965E+04  0.16358971915E+03 0.  0.
         24    2    3    3    0    0 -0.23576084674E+02  0.61481455115E+01  0.37008605923E+03  0.37986718040E+03  0.82108172815E+02 0.  0.
         -6    2    1    2    0  501  0.30508315584E+02  0.70335291295E+01  0.14078287715E+04  0.14187065365E+04  0.17252871974E+03 0.  0.
        -24    2    5    5    0    0 -0.17463715266E+02 -0.53034753277E+02  0.76344882647E+03  0.76974034494E+03  0.80798648416E+02 0.  0.
          5    1    3    3  502    0 -0.69322309108E+01 -0.13181674641E+02  0.10260708704E+04  0.10261897161E+04  0.47000000000E+01 0. -1.
        -13    1    4    4    0    0 -0.29256641864E+02  0.40096789474E+02  0.25315964489E+03  0.25797966862E+03  0.00000000000E+00 0.  1.
         14    1    4    4    0    0  0.56805571899E+01 -0.33948643963E+02  0.11692641435E+03  0.12188751178E+03  0.00000000000E+00 0. -1.
         -5    1    5    5    0  501  0.47972030850E+02  0.60068282406E+02  0.64437994500E+03  0.64896619158E+03  0.47000000000E+01 0.  1.
         13    1    6    6    0    0 -0.26916387780E+02  0.45381698174E+01  0.45525856742E+03  0.45607614509E+03  0.00000000000E+00 0. -1.
        -14    1    6    6    0    0  0.94526725144E+01 -0.57572923094E+02  0.30819025906E+03  0.31366419985E+03  0.00000000000E+00 0.  1.
</event>
<event>
12    1  0.2685360E-002  0.2375474E+03  0.7818608E-02  0.1121438E+00
          2   -1    0    0  502    0  0.00000000000E+00  0.00000000000E+00  0.11811763821E+04  0.11811763821E+04  0.00000000000E+00 0. -1.
         -2   -1    0    0    0  501 -0.00000000000E+00 -0.00000000000E+00 -0.49478048200E+02  0.49478048200E+02  0.00000000000E+00 0.  1.
          6    2    1    2  502    0  0.11833773602E+03  0.11217433473E+03  0.45225817342E+03  0.51097423906E+03  0.17311937043E+03 0.  0.
         24    2    3    3    0    0  0.30925054677E+02  0.34710867434E+02  0.83074490365E+02  0.12372722815E+03  0.79030707392E+02 0.  0.
         -6    2    1    2    0  501 -0.11833773602E+03 -0.11217433473E+03  0.67944016048E+03  0.71968019124E+03  0.17237675265E+03 0.  0.
        -24    2    5    5    0    0 -0.10041975620E+03 -0.14535146833E+03  0.51050359917E+03  0.54652295651E+03  0.82838640970E+02 0.  0.
          5    1    3    3  502    0  0.87412681345E+02  0.77463467297E+02  0.36918368306E+03  0.38724701091E+03  0.47000000000E+01 0. -1.
        -13    1    4    4    0    0  0.26691903800E+02  0.58073971368E+02  0.42625251216E+02  0.76824188379E+02  0.00000000000E+00 0.  1.
         14    1    4    4    0    0  0.42331508770E+01 -0.23363103933E+02  0.40449239149E+02  0.46903039768E+02  0.00000000000E+00 0. -1.
         -5    1    5    5    0  501 -0.17917979821E+02  0.33177133603E+02  0.16893656131E+03  0.17315723474E+03  0.47000000000E+01 0.  1.
         13    1    6    6    0    0  0.22952026997E+01  0.39822432470E+01  0.70518573327E+02  0.70668206436E+02  0.00000000000E+00 0. -1.
        -14    1    6    6    0    0 -0.10271495890E+03 -0.14933371158E+03  0.43998502584E+03  0.47585475007E+03  0.00000000000E+00 0.  1.
</event>
<event>
12    1  0.2685360E-002  0.1757328E+03  0.7818608E-02  0.1171998E+00
          2   -1    0    0  502    0  0.00000000000E+00  0.00000000000E+00  0.13008450432E+04  0.13008450432E+04  0.00000000000E+00 0. -1.
         -2   -1    0    0    0  501 -0.00000000000E+00 -0.00000000000E+00 -0.39271228988E+02  0.39271228988E+02  0.00000000000E+00 0.  1.
          6    2    1    2  502    0 -0.14307181526E+02 -0.56779314415E+02  0.10634028542E+04  0.10787271683E+04  0.17145870466E+03 0.  0.
         24    2    3    3    0    0 -0.35664228744E+02 -0.29845622691E+02  0.30736199547E+03  0.32189071488E+03  0.83543627293E+02 0.  0.
         -6    2    1    2    0  501  0.14307181526E+02  0.56779314415E+02  0.19817096006E+03  0.26138910389E+03  0.16007482074E+03 0.  0.
        -24    2    5    5    0    0 -0.33805494997E+02  0.10459047847E+02  0.16527528613E+03  0.18679277623E+03  0.79519921244E+02 0.  0.
          5    1    3    3  502    0  0.21357047218E+02 -0.26933691724E+02  0.75604085872E+03  0.75683645345E+03  0.47000000000E+01 0. -1.
        -11    1    4    4    0    0  0.83339069368E+01 -0.34617774897E+02  0.53934312102E+02  0.64627814179E+02  0.00000000000E+00 0.  1.
         12    1    4    4    0    0 -0.43998135681E+02  0.47721522061E+01  0.25342768337E+03  0.25726290070E+03  0.00000000000E+00 0. -1.
         -5    1    5    5    0  501  0.48112676523E+02  0.46320266567E+02  0.32895673930E+02  0.74596327660E+02  0.47000000000E+01 0.  1.
         13    1    6    6    0    0 -0.23561641746E+02 -0.15119595967E+02  0.11004619600E+02  0.30080804452E+02  0.00000000000E+00 0. -1.
        -14    1    6    6    0    0 -0.10243853251E+02  0.25578643814E+02  0.15427066653E+03  0.15671197178E+03  0.00000000000E+00 0.  1.
</event>
<event>
12    1  0.2685360E-002  0.1858905E+03  0.7818608E-02  0.1162221E+00
         -1   -1    0    0    0  501 -0.00000000000E+00  0.00000000000E+00  0.13248019735E+03  0.13248019735E+03  0.00000000000E+00 0.  1.
          1   -1    0    0  502    0  0.00000000000E+00 -0.00000000000E+00 -0.31734982713E+03  0.31734982713E+03  0.00000000000E+00 0. -1.
          6    2    1    2  502    0 -0.68807856478E+02 -0.69334324713E+01  0.26435712813E+01  0.18550771143E+03  0.17211487133E+03 0.  0.
         24    2    3    3    0    0  0.73699850376E+01  0.43904313196E+02 -0.97922269446E+01  0.92964321610E+02  0.81022046303E+02 0.  0.
         -6    2    1    2    0  501  0.68807856478E+02  0.69334324713E+01 -0.18751320106E+03  0.26432231305E+03  0.17298118685E+03 0.  0.
        -24    2    5    5    0    0  0.52387277251E+02  0.64062455807E+02 -0.16369334143E+03  0.20011299564E+03  0.80007974187E+02 0.  0.
          5    1    3    3  502    0 -0.76177841516E+02 -0.50837745667E+02  0.12435798226E+02  0.92543389824E+02  0.47000000000E+01 0. -1.
        -11    1    4    4    0    0 -0.35066609562E+02  0.16992380292E+02 -0.16407557915E+02  0.42280208737E+02  0.00000000000E+00 0.  1.
         12    1    4    4    0    0  0.42436594599E+02  0.26911932904E+02  0.66153309706E+01  0.50684112873E+02  0.00000000000E+00 0. -1.
         -5    1    5    5    0  501  0.16420579228E+02 -0.57129023335E+02 -0.23819859631E+02  0.64209317410E+02  0.47000000000E+01 0.  1.
         13    1    6    6    0    0  0.71337180244E+02  0.43733184336E+02 -0.14215031689E+03  0.16494937796E+03  0.00000000000E+00 0. -1.
        -14    1    6    6    0    0 -0.18949902993E+02  0.20329271471E+02 -0.21543024537E+02  0.35163617678E+02  0.00000000000E+00 0.  1.
</event>
<event>
12    1  0.2685360E-002  0.2607279E+03  0.7818608E-02  0.1106707E+00
          2   -1    0    0  502    0  0.00000000000E+00  0.00000000000E+00  0.68132336027E+03  0.68132336027E+03  0.00000000000E+00 0. -1.
         -2   -1    0    0    0  501 -0.00000000000E+00 -0.00000000000E+00 -0.10042452290E+03  0.10042452290E+03  0.00000000000E+00 0.  1.
          6    2    1    2  502    0 -0.10161733366E+03 -0.16757013293E+03  0.32171903780E+03  0.41401080576E+03  0.17174392581E+03 0.  0.
         24    2    3    3    0    0  0.16342454630E+02 -0.56265463815E+02  0.12945848461E+03  0.16243685772E+03  0.78697873330E+02 0.  0.
         -6    2    1    2    0  501  0.10161733366E+03  0.16757013293E+03  0.25917979958E+03  0.36773707741E+03  0.17219337282E+03 0.  0.
        -24    2    5    5    0    0  0.73604283788E+02  0.17217087498E+03  0.26931929277E+03  0.33722810966E+03  0.78291223705E+02 0.  0.
          5    1    3    3  502    0 -0.11795978829E+03 -0.11130466911E+03  0.19226055319E+03  0.25157394804E+03  0.47000000000E+01 0. -1.
        -11    1    4    4    0    0 -0.12238965462E+02  0.33922291234E+01 -0.41399447396E+01  0.13358092545E+02  0.00000000000E+00 0.  1.
         12    1    4    4    0    0  0.28581420092E+02 -0.59657692938E+02  0.13359842935E+03  0.14907876518E+03  0.00000000000E+00 0. -1.
         -5    1    5    5    0  501  0.28013049874E+02 -0.46007420509E+01 -0.10139493189E+02  0.30508967744E+02  0.47000000000E+01 0.  1.
         11    1    6    6    0    0  0.63794820306E+02  0.12494784057E+03  0.24704877644E+03  0.28410357249E+03  0.00000000000E+00 0. -1.
        -12    1    6    6    0    0  0.98094634820E+01  0.47223034406E+02  0.22270516322E+02  0.53124537170E+02  0.00000000000E+00 0.  1.
</event>
<event>
12    1  0.2685360E-002  0.2001422E+03  0.7818608E-02  0.1149619E+00
          1   -1    0    0  502    0  0.00000000000E+00  0.00000000000E+00  0.25548352619E+03  0.25548352619E+03  0.00000000000E+00 0. -1.
         -1   -1    0    0    0  501 -0.00000000000E+00 -0.00000000000E+00 -0.15794317851E+03  0.15794317851E+03  0.00000000000E+00 0.  1.
          6    2    1    2  502    0  0.89632841490E+02 -0.48779482545E+02  0.31101103590E+02  0.20256241959E+03  0.17219399233E+03 0.  0.
         24    2    3    3    0    0  0.12201257307E+03 -0.30680578658E+02 -0.64933222852E+01  0.14953932843E+03  0.80569731413E+02 0.  0.
         -6    2    1    2    0  501 -0.89632841490E+02  0.48779482545E+02  0.66439244082E+02  0.21086428511E+03  0.17215135604E+03 0.  0.
        -24    2    5    5    0    0 -0.23681049809E+02 -0.35662465343E+02  0.44627591092E+02  0.10142060281E+03  0.80386026351E+02 0.  0.
          5    1    3    3  502    0 -0.32379731581E+02 -0.18098903886E+02  0.37594425875E+02  0.53023091159E+02  0.47000000000E+01 0. -1.
        -11    1    4    4    0    0  0.66682733246E+02 -0.53183753320E+02 -0.21479334839E+02  0.87957150678E+02  0.00000000000E+00 0.  1.
         12    1    4    4    0    0  0.55329839826E+02  0.22503174661E+02  0.14986012554E+02  0.61582177757E+02  0.00000000000E+00 0. -1.
         -5    1    5    5    0  501 -0.65951791681E+02  0.84441947888E+02  0.21811652990E+02  0.10944368230E+03  0.47000000000E+01 0.  1.
         11    1    6    6    0    0 -0.14384134251E+02  0.10015549165E+02  0.51409520629E+02  0.54315314180E+02  0.00000000000E+00 0. -1.
        -12    1    6    6    0    0 -0.92969155582E+01 -0.45678014509E+02 -0.67819295368E+01  0.47105288626E+02  0.00000000000E+00 0.  1.
</event>
<event>
12    1  0.2685360E-002  0.1844764E+03  0.7818608E-02  0.1163540E+00
         -1   -1    0    0    0  501 -0.00000000000E+00  0.00000000000E+00  0.25106507182E+03  0.25106507182E+03  0.00000000000E+00 0.  1.
          1   -1    0    0  502    0  0.00000000000E+00 -0.00000000000E+00 -0.18643812061E+03  0.18643812061E+03  0.00000000000E+00 0. -1.
          6    2    1    2  502    0 -0.10091470194E+02 -0.66939372508E+02  0.14663588613E+03  0.23587458320E+03  0.17190700549E+03 0.  0.
         24    2    3    3    0    0 -0.23339604513E+02 -0.11027557257E+03  0.12286114211E+03  0.18448520928E+03  0.78958806724E+02 0.  0.
         -6    2    1    2    0  501  0.10091470194E+02  0.66939372508E+02 -0.82008934912E+02  0.20162860923E+03  0.17130648934E+03 0.  0.
        -24    2    5    5    0    0 -0.36891100595E+02  0.42820096542E+01 -0.84621274987E+02  0.12312879140E+03  0.81367377876E+02 0.  0.
          5    1    3    3  502    0  0.13248134319E+02  0.43336200060E+02  0.23774744012E+02  0.51389373916E+02  0.47000000000E+01 0. -1.
        -11    1    4    4    0    0  0.23792989449E+02 -0.93697625652E+01  0.30482962661E+02  0.39788312480E+02  0.00000000000E+00 0.  1.
         12    1    4    4    0    0 -0.47132593961E+02 -0.10090581000E+03  0.92378179452E+02  0.14469689680E+03  0.00000000000E+00 0. -1.
         -5    1    5    5    0  501  0.46982570789E+02  0.62657362854E+02  0.26123400752E+01  0.78499817824E+02  0.47000000000E+01 0.  1.
         11    1    6    6    0    0 -0.17556173740E+01  0.63877438348E+01 -0.87557737525E+02  0.87807988613E+02  0.00000000000E+00 0. -1.
        -12    1    6    6    0    0 -0.35135483221E+02 -0.21057341806E+01  0.29364625383E+01  0.35320802791E+02  0.00000000000E+00 0.  1.
</event>
<event>
12    1  0.2685360E-002  0.3717988E+03  0.7818608E-02  0.1054007E+00
         -2   -1    0    0    0  501 -0.00000000000E+00  0.00000000000E+00  0.11387945302E+03  0.11387945302E+03  0.00000000000E+00 0. -1.
          2   -1    0    0  502    0  0.00000000000E+00 -0.00000000000E+00 -0.15073585707E+04  0.15073585707E+04  0.00000000000E+00 0.  1.
          6    2    1    2  502    0  0.94047461282E+02 -0.31453203392E+03 -0.33572081753E+03  0.49929658061E+03  0.16974475765E+03 0.  0.
         24    2    3    3    0    0  0.37315197795E+01 -0.19256614447E+03 -0.13851585082E+03  0.25040998721E+03  0.80142850779E+02 0.  0.
         -6    2    1    2    0  501 -0.94047461282E+02  0.31453203392E+03 -0.10577583001E+04  0.11219414431E+04  0.17923352053E+03 0.  0.
        -24    2    5    5    0    0 -0.77588620450E+02  0.20134910031E+03 -0.88761777067E+03  0.91687764894E+03  0.78980137386E+02 0.  0.
          5    1    3    3  502    0  0.90315941503E+02 -0.12196588945E+03 -0.19720496671E+03  0.24888659340E+03  0.47000000000E+01 0. -1.
        -13    1    4    4    0    0  0.31980628675E+02 -0.44278241459E+02 -0.56619858761E+02  0.78671034588E+02  0.00000000000E+00 0.  1.
         14    1    4    4    0    0 -0.28249108895E+02 -0.14828790301E+03 -0.81895992063E+02  0.17173895262E+03  0.00000000000E+00 0. -1.
         -5    1    5    5    0  501 -0.16458840832E+02  0.11318293361E+03 -0.17014052944E+03  0.20506379413E+03  0.47000000000E+01 0.  1.
         13    1    6    6    0    0 -0.62166924406E+02  0.72972369594E+02 -0.47100415513E+03  0.48066059477E+03  0.00000000000E+00 0. -1.
        -14    1    6    6    0    0 -0.15421696044E+02  0.12837673071E+03 -0.41661361554E+03  0.43621705417E+03  0.00000000000E+00 0.  1.
</event>
<event>
12    1  0.2685360E-002  0.2288543E+03  0.7818608E-02  0.1127449E+00
         -3   -1    0    0    0  501 -0.00000000000E+00  0.00000000000E+00  0.14605334536E+03  0.14605334536E+03  0.00000000000E+00 0. -1.
          3   -1    0    0  502    0  0.00000000000E+00 -0.00000000000E+00 -0.39452103634E+03  0.39452103634E+03  0.00000000000E+00 0.  1.
          6    2    1    2  502    0  0.13333685372E+03  0.72751447782E+02 -0.42593180938E+02  0.23262537503E+03  0.17096460550E+03 0.  0.
         24    2    3    3    0    0  0.15986567373E+03  0.47786527801E+02 -0.51414333285E+02  0.19485067120E+03  0.86502974082E+02 0.  0.
         -6    2    1    2    0  501 -0.13333685372E+03 -0.72751447782E+02 -0.20587451003E+03  0.30794900667E+03  0.17139657847E+03 0.  0.
        -24    2    5    5    0    0 -0.26332947570E+02 -0.41436285607E+02 -0.16364080543E+03  0.18863324443E+03  0.79961226923E+02 0.  0.
          5    1    3    3  502    0 -0.26528820010E+02  0.24964919980E+02  0.88211523474E+01  0.37774703830E+02  0.47000000000E+01 0. -1.
        -11    1    4    4    0    0  0.90101135765E+02  0.56111828721E+01  0.12663682250E+02  0.91159579242E+02  0.00000000000E+00 0.  1.
         12    1    4    4    0    0  0.69764537963E+02  0.42175344929E+02 -0.64078015536E+02  0.10369109196E+03  0.00000000000E+00 0. -1.
         -5    1    5    5    0  501 -0.10700390615E+03 -0.31315162175E+02 -0.42233704603E+02  0.11931576223E+03  0.47000000000E+01 0.  1.
         11    1    6    6    0    0 -0.28258664700E+02 -0.50402834027E+02 -0.55552552159E+02  0.80156620812E+02  0.00000000000E+00 0. -1.
        -12    1    6    6    0    0  0.19257171301E+01  0.89665484198E+01 -0.10808825327E+03  0.10847662362E+03  0.00000000000E+00 0.  1.
</event>
<event>
12    1  0.2685360E-002  0.1753109E+03  0.7818608E-02  0.1172420E+00
         -2   -1    0    0    0  501 -0.00000000000E+00  0.00000000000E+00  0.20542650831E+02  0.20542650831E+02  0.00000000000E+00 0. -1.
          2   -1    0    0  502    0  0.00000000000E+00 -0.00000000000E+00 -0.17909790825E+04  0.17909790825E+04  0.00000000000E+00 0.  1.
          6    2    1    2  502    0  0.29259317477E+01  0.34999557979E+01 -0.12664024429E+04  0.12789445110E+04  0.17861439987E+03 0.  0.
         24    2    3    3    0    0 -0.48007374149E+02 -0.48216887329E+02 -0.84030119383E+03  0.84667931688E+03  0.78295549583E+02 0.  0.
         -6    2    1    2    0  501 -0.29259317477E+01 -0.34999557979E+01 -0.50403398875E+03  0.53257722240E+03  0.17195181080E+03 0.  0.
        -24    2    5    5    0    0 -0.33656340119E+02  0.49861766464E+02 -0.21344832702E+03  0.23550156166E+03  0.79258136816E+02 0.  0.
          5    1    3    3  502    0  0.50933305897E+02  0.51716843127E+02 -0.42610124911E+03  0.43226519407E+03  0.47000000000E+01 0. -1.
        -11    1    4    4    0    0 -0.21816044916E+01 -0.54854908624E+02 -0.54666768105E+03  0.54941730397E+03  0.00000000000E+00 0.  1.
         12    1    4    4    0    0 -0.45825769657E+02  0.66380212945E+01 -0.29363351278E+03  0.29726201291E+03  0.00000000000E+00 0. -1.
         -5    1    5    5    0  501  0.30730408371E+02 -0.53361722262E+02 -0.29058566173E+03  0.29707566074E+03  0.47000000000E+01 0.  1.
         11    1    6    6    0    0 -0.54512221733E+02  0.27596601197E+02 -0.93190138624E+02  0.11143409107E+03  0.00000000000E+00 0. -1.
        -12    1    6    6    0    0  0.20855881614E+02  0.22265165267E+02 -0.12025818840E+03  0.12406747059E+03  0.00000000000E+00 0.  1.
</event>
<event>
12    1  0.2685360E-002  0.2529478E+03  0.7818608E-02  0.1111456E+00
          2   -1    0    0  502    0  0.00000000000E+00  0.00000000000E+00  0.13310773455E+04  0.13310773455E+04  0.00000000000E+00 0.  1.
         -2   -1    0    0    0  501 -0.00000000000E+00 -0.00000000000E+00 -0.48967595012E+02  0.48967595012E+02  0.00000000000E+00 0. -1.
          6    2    1    2  502    0  0.16832310137E+03 -0.78440910885E+02  0.73408093405E+03  0.77637543277E+03  0.17145947606E+03 0.  0.
         24    2    3    3    0    0  0.16125236748E+03 -0.36092666788E+02  0.69208102126E+03  0.71613050162E+03  0.81004621783E+02 0.  0.
         -6    2    1    2    0  501 -0.16832310137E+03  0.78440910885E+02  0.54802881649E+03  0.60366950778E+03  0.17203385705E+03 0.  0.
        -24    2    5    5    0    0 -0.25735682349E+02  0.69717378754E+02  0.22441491545E+03  0.24989653111E+03  0.81014713115E+02 0.  0.
          5    1    3    3  502    0  0.70707338863E+01 -0.42348244097E+02  0.41999912789E+02  0.60244931156E+02  0.47000000000E+01 0. -1.
        -13    1    4    4    0    0  0.13272648758E+03 -0.30703680045E+02  0.39901566132E+03  0.42163080349E+03  0.00000000000E+00 0.  1.
         14    1    4    4    0    0  0.28525879900E+02 -0.53889867430E+01  0.29306535994E+03  0.29449969813E+03  0.00000000000E+00 0. -1.
         -5    1    5    5    0  501 -0.14258741902E+03  0.87235321306E+01  0.32361390104E+03  0.35377297667E+03  0.47000000000E+01 0.  1.
         13    1    6    6    0    0 -0.78919754636E+01  0.70402704533E+02  0.91163348343E+02  0.11545380099E+03  0.00000000000E+00 0. -1.
        -14    1    6    6    0    0 -0.17843706886E+02 -0.68532577913E+00  0.13325156711E+03  0.13444273012E+03  0.00000000000E+00 0.  1.
</event>
<event>
12    1  0.2685360E-002  0.3400400E+03  0.7818608E-02  0.1066779E+00
         -2   -1    0    0    0  501 -0.00000000000E+00  0.00000000000E+00  0.11534344125E+03  0.11534344125E+03  0.00000000000E+00 0. -1.
          2   -1    0    0  502    0  0.00000000000E+00 -0.00000000000E+00 -0.11151022864E+04  0.11151022864E+04  0.00000000000E+00 0.  1.
          6    2    1    2  502    0 -0.29236092534E+03  0.16703265774E+02 -0.69539955225E+03  0.77408005470E+03  0.17281633042E+03 0.  0.
         24    2    3    3    0    0 -0.25190660100E+03 -0.32421586301E+02 -0.60448568885E+03  0.66300699763E+03  0.98322103270E+02 0.  0.
         -6    2    1    2    0  501  0.29236092534E+03 -0.16703265774E+02 -0.30435929294E+03  0.45636567298E+03  0.17286161669E+03 0.  0.
        -24    2    5    5    0    0  0.21031112589E+03  0.49976792231E+02 -0.23266776764E+03  0.32853701999E+03  0.84106087610E+02 0.  0.
          5    1    3    3  502    0 -0.40454324343E+02  0.49124852076E+02 -0.90913863401E+02  0.11107305708E+03  0.47000000000E+01 0. -1.
        -13    1    4    4    0    0 -0.11107228032E+03 -0.62119354972E+02 -0.25335595895E+03  0.28352267573E+03  0.00000000000E+00 0.  1.
         14    1    4    4    0    0 -0.14083432067E+03  0.29697768670E+02 -0.35112972991E+03  0.37948432190E+03  0.00000000000E+00 0. -1.
         -5    1    5    5    0  501  0.82049799449E+02 -0.66680058005E+02 -0.71691525295E+02  0.12782865299E+03  0.47000000000E+01 0.  1.
         13    1    6    6    0    0  0.66894339710E+02 -0.11515233665E+02 -0.34010868964E+02  0.75922279334E+02  0.00000000000E+00 0. -1.
        -14    1    6    6    0    0  0.14341678618E+03  0.61492025896E+02 -0.19865689868E+03  0.25261474066E+03  0.00000000000E+00 0.  1.
</event>
<event>
12    1  0.2685360E-002  0.2795702E+03  0.7818608E-02  0.1095924E+00
          4   -1    0    0  502    0  0.00000000000E+00  0.00000000000E+00  0.23992704558E+03  0.23992704558E+03  0.00000000000E+00 0. -1.
         -4   -1    0    0    0  501 -0.00000000000E+00 -0.00000000000E+00 -0.33412622918E+03  0.33412622918E+03  0.00000000000E+00 0.  1.
          6    2    1    2  502    0  0.20412825666E+03 -0.76028012923E+02 -0.92331652984E+02  0.29347139080E+03  0.17364250389E+03 0.  0.
         24    2    3    3    0    0  0.19131383627E+03 -0.72067626618E+01 -0.77425622576E+02  0.22174375596E+03  0.80762893080E+02 0.  0.
         -6    2    1    2    0  501 -0.20412825666E+03  0.76028012923E+02 -0.18675306193E+01  0.28058188397E+03  0.17684485298E+03 0.  0.
        -24    2    5    5    0    0 -0.11910600898E+03  0.11821918460E+03 -0.49103358588E+01  0.18550177968E+03  0.78897286925E+02 0.  0.
          5    1    3    3  502    0  0.12814420390E+02 -0.68821250261E+02 -0.14906030408E+02  0.71727634842E+02  0.47000000000E+01 0. -1.
        -13    1    4    4    0    0  0.11950839370E+03 -0.26489535907E+02 -0.81866220222E+02  0.14726177267E+03  0.00000000000E+00 0.  1.
         14    1    4    4    0    0  0.71805442566E+02  0.19282773245E+02  0.44405976462E+01  0.74481983282E+02  0.00000000000E+00 0. -1.
         -5    1    5    5    0  501 -0.85022247678E+02 -0.42191171676E+02  0.30428052394E+01  0.95080104288E+02  0.47000000000E+01 0.  1.
         13    1    6    6    0    0 -0.12950830339E+03  0.97853151177E+02 -0.11356784716E+01  0.16232353374E+03  0.00000000000E+00 0. -1.
        -14    1    6    6    0    0  0.10402294408E+02  0.20366033422E+02 -0.37746573872E+01  0.23178245937E+02  0.00000000000E+00 0.  1.
</event>
<event>
12    1  0.2685360E-002  0.1978358E+03  0.7818608E-02  0.1151578E+00
         -2   -1    0    0    0  501 -0.00000000000E+00  0.00000000000E+00  0.46674707964E+03  0.46674707964E+03  0.00000000000E+00 0.  1.
          2   -1    0    0  502    0  0.00000000000E+00 -0.00000000000E+00 -0.85587000966E+02  0.85587000966E+02  0.00000000000E+00 0. -1.
          6    2    1    2  502    0  0.25786191820E+02  0.91433607539E+02  0.23045209579E+03  0.30413306233E+03  0.17425188340E+03 0.  0.
         24    2    3    3    0    0  0.30729476086E+02  0.38523758289E+02  0.23880925630E+03  0.25013472588E+03  0.55759658744E+02 0.  0.
         -6    2    1    2    0  501 -0.25786191820E+02 -0.91433607539E+02  0.15070798288E+03  0.24820101828E+03  0.17281729397E+03 0.  0.
        -24    2    5    5    0    0  0.49935909523E+02 -0.73022548105E+02  0.92061530186E+02  0.15055727729E+03  0.79788976757E+02 0.  0.
          5    1    3    3  502    0 -0.49432842664E+01  0.52909849249E+02 -0.83571605101E+01  0.53998336444E+02  0.47000000000E+01 0. -1.
        -11    1    4    4    0    0 -0.71330887438E+01  0.10909580641E+02  0.14181595452E+03  0.14241371023E+03  0.00000000000E+00 0.  1.
         12    1    4    4    0    0  0.37862564830E+02  0.27614177649E+02  0.96993301784E+02  0.10772101565E+03  0.00000000000E+00 0. -1.
         -5    1    5    5    0  501 -0.75722101343E+02 -0.18411059433E+02  0.58646452693E+02  0.97643740991E+02  0.47000000000E+01 0.  1.
         11    1    6    6    0    0  0.15222539570E+02 -0.80679734865E+02  0.52908184588E+02  0.97674056562E+02  0.00000000000E+00 0. -1.
        -12    1    6    6    0    0  0.34713369954E+02  0.76571867602E+01  0.39153345598E+02  0.52883220724E+02  0.00000000000E+00 0.  1.
</event>
<event>
12    1  0.2685360E-002  0.2039414E+03  0.7818608E-02  0.1146456E+00
          1   -1    0    0  502    0  0.00000000000E+00  0.00000000000E+00  0.11546661750E+04  0.11546661750E+04  0.00000000000E+00 0.  1.
         -1   -1    0    0    0  501 -0.00000000000E+00 -0.00000000000E+00 -0.36132545465E+02  0.36132545465E+02  0.00000000000E+00 0. -1.
          6    2    1    2  502    0 -0.42261801427E+02 -0.91111516026E+02  0.54074548127E+03  0.57950565787E+03  0.18257536467E+03 0.  0.
         24    2    3    3    0    0  0.24833948699E+02 -0.99692673400E+02  0.43440850181E+03  0.45339015865E+03  0.79350711212E+02 0.  0.
         -6    2    1    2    0  501  0.42261801427E+02  0.91111516026E+02  0.57778814828E+03  0.61129306260E+03  0.17248969789E+03 0.  0.
        -24    2    5    5    0    0 -0.35064406091E+01  0.11115044545E+03  0.49686298582E+03  0.51607088772E+03  0.84199868268E+02 0.  0.
          5    1    3    3  502    0 -0.67095750126E+02  0.85811573744E+01  0.10633697945E+03  0.12611549923E+03  0.47000000000E+01 0. -1.
        -13    1    4    4    0    0 -0.14393219799E+02 -0.62741626402E+02  0.32636478807E+03  0.33265244829E+03  0.00000000000E+00 0.  1.
         14    1    4    4    0    0  0.39227168498E+02 -0.36951046998E+02  0.10804371374E+03  0.12073771036E+03  0.00000000000E+00 0. -1.
         -5    1    5    5    0  501  0.45768242036E+02 -0.20038929422E+02  0.80925162453E+02  0.95222174883E+02  0.47000000000E+01 0.  1.
         13    1    6    6    0    0  0.15841374575E+02  0.22657652686E+02  0.31230372586E+02  0.41709166205E+02  0.00000000000E+00 0. -1.
        -14    1    6    6    0    0 -0.19347815184E+02  0.88492792762E+02  0.46563261324E+03  0.47436172151E+03  0.00000000000E+00 0.  1.
</event>
<event>
12    1  0.2685360E-002  0.2244324E+03  0.7818608E-02  0.1130621E+00
          4   -1    0    0  502    0  0.00000000000E+00  0.00000000000E+00  0.78534861645E+02  0.78534861645E+02  0.00000000000E+00 0.  1.
         -4   -1    0    0    0  501 -0.00000000000E+00 -0.00000000000E+00 -0.64868172136E+03  0.64868172136E+03  0.00000000000E+00 0. -1.
          6    2    1    2  502    0  0.13822900918E+03  0.26969210301E+02 -0.32733106871E+03  0.39870503613E+03  0.17884484899E+03 0.  0.
         24    2    3    3    0    0  0.60380050616E+02  0.70715746545E+02 -0.11264685672E+03  0.16614188200E+03  0.79166554192E+02 0.  0.
         -6    2    1    2    0  501 -0.13822900918E+03 -0.26969210301E+02 -0.24281579100E+03  0.32851154687E+03  0.17066262270E+03 0.  0.
        -24    2    5    5    0    0 -0.14383731021E+03 -0.61752907964E+02 -0.23262834163E+03  0.29153543582E+03  0.79839661593E+02 0.  0.
          5    1    3    3  502    0  0.77848958564E+02 -0.43746536244E+02 -0.21468421199E+03  0.23256315413E+03  0.47000000000E+01 0. -1.
        -11    1    4    4    0    0  0.40924183146E+02  0.43626503903E+02 -0.13206456395E+02  0.61257416690E+02  0.00000000000E+00 0.  1.
         12    1    4    4    0    0  0.19455867470E+02  0.27089242642E+02 -0.99440400325E+02  0.10488446531E+03  0.00000000000E+00 0. -1.
         -5    1    5    5    0  501  0.56083010312E+01  0.34783697663E+02 -0.10187449379E+02  0.36976111051E+02  0.47000000000E+01 0.  1.
         13    1    6    6    0    0 -0.13440995942E+03 -0.30376556685E+02 -0.21190406854E+03  0.25276887991E+03  0.00000000000E+00 0. -1.
        -14    1    6    6    0    0 -0.94273507862E+01 -0.31376351279E+02 -0.20724273090E+02  0.38766555916E+02  0.00000000000E+00 0.  1.
</event>
<event>
12    1  0.2685360E-002  0.2576942E+03  0.7818608E-02  0.1108537E+00
          1   -1    0    0  502    0  0.00000000000E+00  0.00000000000E+00  0.39427077593E+03  0.39427077593E+03  0.00000000000E+00 0. -1.
         -1   -1    0    0    0  501 -0.00000000000E+00 -0.00000000000E+00 -0.18320173034E+03  0.18320173034E+03  0.00000000000E+00 0.  1.
          6    2    1    2  502    0 -0.69391499924E+02  0.17543079899E+03  0.25454488691E+02  0.26361296505E+03  0.18235328034E+03 0.  0.
         24    2    3    3    0    0 -0.72681375917E+02  0.12532028245E+03  0.86078830721E+02  0.18475050250E+03  0.75732605127E+02 0.  0.
         -6    2    1    2    0  501  0.69391499924E+02 -0.17543079899E+03  0.18561455690E+03  0.31385954122E+03  0.16871248438E+03 0.  0.
        -24    2    5    5    0    0  0.89746929466E+02 -0.70002463191E+02  0.14084857362E+03  0.19743119089E+03  0.78650481527E+02 0.  0.
          5    1    3    3  502    0  0.32898759920E+01  0.50110516546E+02 -0.60624342030E+02  0.78862462548E+02  0.47000000000E+01 0. -1.
        -11    1    4    4    0    0  0.27404883077E+00  0.40043768647E+02 -0.48154917134E+01  0.40333205559E+02  0.00000000000E+00 0.  1.
         12    1    4    4    0    0 -0.72955424747E+02  0.85276513798E+02  0.90894322435E+02  0.14441729694E+03  0.00000000000E+00 0. -1.
         -5    1    5    5    0  501 -0.20355429542E+02 -0.10542833580E+03  0.44765983284E+02  0.11642835033E+03  0.47000000000E+01 0.  1.
         11    1    6    6    0    0 -0.21641415238E+01  0.79323873631E+00 -0.82198222581E+01  0.85368737944E+01  0.00000000000E+00 0. -1.
        -12    1    6    6    0    0  0.91911070990E+02 -0.70795701927E+02  0.14906839587E+03  0.18889431709E+03  0.00000000000E+00 0.  1.
</event>
<event>
12    1  0.2685360E-002  0.2763671E+03  0.7818608E-02  0.1097690E+00
         -2   -1    0    0    0  501 -0.00000000000E+00  0.00000000000E+00  0.82315848289E+02  0.82315848289E+02  0.00000000000E+00 0. -1.
          2   -1    0    0  502    0  0.00000000000E+00 -0.00000000000E+00 -0.99954279073E+03  0.99954279073E+03  0.00000000000E+00 0.  1.
          6    2    1    2  502    0  0.18836595082E+03 -0.10516045579E+03 -0.31566804790E+03  0.42036019156E+03  0.17468806855E+03 0.  0.
         24    2    3    3    0    0  0.14258706809E+03 -0.17033455248E+02 -0.12297873069E+03  0.20353459968E+03  0.75374760231E+02 0.  0.
         -6    2    1    2    0  501 -0.18836595082E+03  0.10516045579E+03 -0.60155889454E+03  0.66149844746E+03  0.17078243323E+03 0.  0.
        -24    2    5    5    0    0 -0.17069990671E+03  0.12916461461E+03 -0.42789690241E+03  0.48523482027E+03  0.80840063698E+02 0.  0.
          5    1    3    3  502    0  0.45778882723E+02 -0.88127000540E+02 -0.19268931720E+03  0.21682559188E+03  0.47000000000E+01 0. -1.
        -11    1    4    4    0    0  0.76985088710E+02  0.73813183903E+01 -0.10650804841E+03  0.13162504367E+03  0.00000000000E+00 0.  1.
         12    1    4    4    0    0  0.65601979383E+02 -0.24414773639E+02 -0.16470682279E+02  0.71909556010E+02  0.00000000000E+00 0. -1.
         -5    1    5    5    0  501 -0.17666044106E+02 -0.24004158826E+02 -0.17366199214E+03  0.17626362718E+03  0.47000000000E+01 0.  1.
         13    1    6    6    0    0 -0.58125424989E+02  0.89398050154E+02 -0.23989069470E+03  0.26252261198E+03  0.00000000000E+00 0. -1.
        -14    1    6    6    0    0 -0.11257448172E+03  0.39766564460E+02 -0.18800620771E+03  0.22271220829E+03  0.00000000000E+00 0.  1.
</event>
<event>
12    1  0.2685360E-002  0.2049862E+03  0.7818608E-02  0.1145599E+00
         -2   -1    0    0    0  501 -0.00000000000E+00  0.00000000000E+00  0.40481630383E+02  0.40481630383E+02  0.00000000000E+00 0. -1.
          2   -1    0    0  502    0  0.00000000000E+00 -0.00000000000E+00 -0.10401435272E+04  0.10401435272E+04  0.00000000000E+00 0.  1.
          6    2    1    2  502    0 -0.43119048295E+02  0.10356810970E+03 -0.52146229846E+03  0.55988776359E+03  0.17019334133E+03 0.  0.
         24    2    3    3    0    0 -0.32183371188E+02  0.87229469098E+02 -0.52560146712E+03  0.53925374005E+03  0.76765514771E+02 0.  0.
         -6    2    1    2    0  501  0.43119048295E+02 -0.10356810970E+03 -0.47819959832E+03  0.52073739395E+03  0.17293632341E+03 0.  0.
        -24    2    5    5    0    0  0.46804636352E+02 -0.97132119902E+02 -0.48904816772E+03  0.50678078325E+03  0.77674508172E+02 0.  0.
          5    1    3    3  502    0 -0.10935677106E+02  0.16338640602E+02  0.41391686576E+01  0.20634023545E+02  0.47000000000E+01 0. -1.
        -11    1    4    4    0    0  0.22432914061E+02  0.44346440725E+02 -0.17936721774E+03  0.18612480017E+03  0.00000000000E+00 0.  1.
         12    1    4    4    0    0 -0.54616285250E+02  0.42883028373E+02 -0.34623424937E+03  0.35312893987E+03  0.00000000000E+00 0. -1.
         -5    1    5    5    0  501 -0.36855880571E+01 -0.64359897986E+01  0.10848569407E+02  0.13956610698E+02  0.47000000000E+01 0.  1.
         13    1    6    6    0    0  0.21051229714E+02 -0.60320969237E+02 -0.12913992075E+03  0.14407946673E+03  0.00000000000E+00 0. -1.
        -14    1    6    6    0    0  0.25753406638E+02 -0.36811150665E+02 -0.35990824698E+03  0.36270131652E+03  0.00000000000E+00 0.  1.
</event>
<event>
12    1  0.2685360E-002  0.2406912E+03  0.7818608E-02  0.1119333E+00
         -1   -1    0    0    0  501 -0.00000000000E+00  0.00000000000E+00  0.46231397250E+03  0.46231397250E+03  0.00000000000E+00 0. -1.
          1   -1    0    0  502    0  0.00000000000E+00 -0.00000000000E+00 -0.42450134858E+03  0.42450134858E+03  0.00000000000E+00 0.  1.
          6    2    1    2  502    0  0.81865475750E+02 -0.14742738432E+03  0.39116392507E+03  0.45938105666E+03  0.17200275919E+03 0.  0.
         24    2    3    3    0    0  0.66388484621E+02 -0.34811985092E+02  0.10841045751E+03  0.15459690547E+03  0.80796476943E+02 0.  0.
         -6    2    1    2    0  501 -0.81865475750E+02  0.14742738432E+03 -0.35335130115E+03  0.42743426442E+03  0.17148212330E+03 0.  0.
        -24    2    5    5    0    0 -0.11625790095E+03  0.80001916865E+02 -0.21398174678E+03  0.26876796284E+03  0.80819698448E+02 0.  0.
          5    1    3    3  502    0  0.15476991129E+02 -0.11261539923E+03  0.28275346756E+03  0.30478415119E+03  0.47000000000E+01 0. -1.
        -11    1    4    4    0    0  0.12645782859E+02 -0.49466867485E+02  0.32812639939E+02  0.60692307113E+02  0.00000000000E+00 0.  1.
         12    1    4    4    0    0  0.53742701762E+02  0.14654882393E+02  0.75597817576E+02  0.93904598359E+02  0.00000000000E+00 0. -1.
         -5    1    5    5    0  501  0.34392425204E+02  0.67425467454E+02 -0.13936955437E+03  0.15866630159E+03  0.47000000000E+01 0.  1.
         11    1    6    6    0    0 -0.50435393374E+02  0.52843766441E+02 -0.46021170477E+02  0.86337365541E+02  0.00000000000E+00 0. -1.
        -12    1    6    6    0    0 -0.65822507580E+02  0.27158150424E+02 -0.16796057630E+03  0.18243059730E+03  0.00000000000E+00 0.  1.
</event>
<event>
12    1  0.2685360E-002  0.2541201E+03  0.7818608E-02  0.1110728E+00
         -2   -1    0    0    0  501 -0.00000000000E+00  0.00000000000E+00  0.69886806800E+02  0.69886806800E+02  0.00000000000E+00 0. -1.
          2   -1    0    0  502    0  0.00000000000E+00 -0.00000000000E+00 -0.15056773026E+04  0.15056773026E+04  0.00000000000E+00 0.  1.
          6    2    1    2  502    0  0.13233788053E+02  0.18743459073E+03 -0.12094090481E+04  0.12360434157E+04  0.17270269528E+03 0.  0.
         24    2    3    3    0    0 -0.31694204678E+02  0.17439748705E+03 -0.77036736488E+03  0.79449140269E+03  0.79572017540E+02 0.  0.
         -6    2    1    2    0  501 -0.13233788053E+02 -0.18743459073E+03 -0.22638144774E+03  0.33952069373E+03  0.16946646465E+03 0.  0.
        -24    2    5    5    0    0 -0.41496909632E+02 -0.19847005953E+03 -0.17536675563E+03  0.27997932639E+03  0.80762405771E+02 0.  0.
          5    1    3    3  502    0  0.44927992731E+02  0.13037103680E+02 -0.43904168320E+03  0.44155201300E+03  0.47000000000E+01 0. -1.
        -11    1    4    4    0    0 -0.53900271964E+02  0.89162309919E+02 -0.35974909524E+03  0.37453246636E+03  0.00000000000E+00 0.  1.
         12    1    4    4    0    0  0.22206067286E+02  0.85235177126E+02 -0.41061826964E+03  0.41995893633E+03  0.00000000000E+00 0. -1.
         -5    1    5    5    0  501  0.28263121579E+02  0.11035468806E+02 -0.51014692112E+02  0.59541367337E+02  0.47000000000E+01 0.  1.
         11    1    6    6    0    0 -0.41879659009E+02 -0.35473337575E+02 -0.37216661350E+02  0.66312467904E+02  0.00000000000E+00 0. -1.
        -12    1    6    6    0    0  0.38274937711E+00 -0.16299672196E+03 -0.13815009428E+03  0.21366685848E+03  0.00000000000E+00 0.  1.
</event>
<event>
12    1  0.2685360E-002  0.2740393E+03  0.7818608E-02  0.1098990E+00
          3   -1    0    0  502    0  0.00000000000E+00  0.00000000000E+00  0.12365224713E+04  0.12365224713E+04  0.00000000000E+00 0. -1.
         -3   -1    0    0    0  501 -0.00000000000E+00 -0.00000000000E+00 -0.65830384444E+02  0.65830384444E+02  0.00000000000E+00 0.  1.
          6    2    1    2  502    0 -0.21415212292E+02 -0.21174572087E+03  0.40470977969E+03  0.48892226796E+03  0.17308990931E+03 0.  0.
         24    2    3    3    0    0 -0.59801499198E+02 -0.17563951100E+03  0.23238944008E+03  0.30866258069E+03  0.82718073732E+02 0.  0.
         -6    2    1    2    0  501  0.21415212292E+02  0.21174572087E+03  0.76598230720E+03  0.81343058782E+03  0.17217887395E+03 0.  0.
        -24    2    5    5    0    0  0.45119460185E+02  0.86191654765E+02  0.23104774903E+03  0.26342805473E+03  0.80910510115E+02 0.  0.
          5    1    3    3  502    0  0.38386286906E+02 -0.36106209866E+02  0.17232033961E+03  0.18025968728E+03  0.47000000000E+01 0. -1.
        -13    1    4    4    0    0 -0.26068341292E+02 -0.21285523199E+01  0.25223718655E+02  0.36336278503E+02  0.00000000000E+00 0.  1.
         14    1    4    4    0    0 -0.33733157906E+02 -0.17351095868E+03  0.20716572143E+03  0.27232630218E+03  0.00000000000E+00 0. -1.
         -5    1    5    5    0  501 -0.23704247893E+02  0.12555406610E+03  0.53493455817E+03  0.55000253309E+03  0.47000000000E+01 0.  1.
         13    1    6    6    0    0  0.20182725989E+02  0.40227784825E+02  0.19447546271E+03  0.19961543702E+03  0.00000000000E+00 0. -1.
        -14    1    6    6    0    0  0.24936734196E+02  0.45963869940E+02  0.36572286324E+02  0.63812617711E+02  0.00000000000E+00 0.  1.
</event>
<event>
12    1  0.2685360E-002  0.2280451E+03  0.7818608E-02  0.1128023E+00
          2   -1    0    0  502    0  0.00000000000E+00  0.00000000000E+00  0.83532330801E+03  0.83532330801E+03  0.00000000000E+00 0. -1.
         -2   -1    0    0    0  501 -0.00000000000E+00 -0.00000000000E+00 -0.62276329198E+02  0.62276329198E+02  0.00000000000E+00 0.  1.
          6    2    1    2  502    0  0.37643064231E+02  0.14758300817E+03  0.39156407767E+03  0.45242131830E+03  0.16782394868E+03 0.  0.
         24    2    3    3    0    0 -0.38810230430E+02  0.48305741225E+02  0.16552176981E+03  0.19392896457E+03  0.79820476051E+02 0.  0.
         -6    2    1    2    0  501 -0.37643064231E+02 -0.14758300817E+03  0.38148290114E+03  0.44517831890E+03  0.17162979686E+03 0.  0.
        -24    2    5    5    0    0 -0.73674759137E+02 -0.79287962629E+02  0.31206541493E+03  0.34123904011E+03  0.85701272728E+02 0.  0.
          5    1    3    3  502    0  0.76453294661E+02  0.99277266949E+02  0.22604230786E+03  0.25849235373E+03  0.47000000000E+01 0. -1.
        -11    1    4    4    0    0 -0.45193692441E+02  0.62517592560E+02  0.98459335706E+02  0.12508061402E+03  0.00000000000E+00 0.  1.
         12    1    4    4    0    0  0.63834620110E+01 -0.14211851334E+02  0.67062434104E+02  0.68848350551E+02  0.00000000000E+00 0. -1.
         -5    1    5    5    0  501  0.36031694906E+02 -0.68295045546E+02  0.69417486213E+02  0.10393927879E+03  0.47000000000E+01 0.  1.
         13    1    6    6    0    0 -0.53009969469E+02 -0.95356740556E+02  0.22064381450E+03  0.24614357134E+03  0.00000000000E+00 0. -1.
        -14    1    6    6    0    0 -0.20664789668E+02  0.16068777928E+02  0.91421600426E+02  0.95095468770E+02  0.00000000000E+00 0.  1.
</event>
<event>
12    1  0.2685360E-002  0.1911726E+03  0.7818608E-02  0.1157408E+00
         -1   -1    0    0    0  501 -0.00000000000E+00  0.00000000000E+00  0.73619785270E+02  0.73619785270E+02  0.00000000000E+00 0. -1.
          1   -1    0    0  502    0  0.00000000000E+00 -0.00000000000E+00 -0.50563676792E+03  0.50563676792E+03  0.00000000000E+00 0.  1.
          6    2    1    2  502    0 -0.29585014452E+02  0.79110033757E+02 -0.17809851793E+03  0.26203479200E+03  0.17265421978E+03 0.  0.
         24    2    3    3    0    0  0.40944054677E+02  0.30695794540E+02 -0.50817705265E+02  0.10860473163E+03  0.81202839539E+02 0.  0.
         -6    2    1    2    0  501  0.29585014452E+02 -0.79110033757E+02 -0.25391846472E+03  0.31722176119E+03  0.17035665096E+03 0.  0.
        -24    2    5    5    0    0 -0.41044419812E+01 -0.16833035882E+02 -0.33423379904E+02  0.85589344704E+02  0.76864920878E+02 0.  0.
          5    1    3    3  502    0 -0.70529069129E+02  0.48414239218E+02 -0.12728081266E+03  0.15343006036E+03  0.47000000000E+01 0. -1.
        -13    1    4    4    0    0 -0.68260450249E+01 -0.16063297079E+02  0.83374226985E+01  0.19342621874E+02  0.00000000000E+00 0.  1.
         14    1    4    4    0    0  0.47770099702E+02  0.46759091618E+02 -0.59155127963E+02  0.89262109760E+02  0.00000000000E+00 0. -1.
         -5    1    5    5    0  501  0.33689456433E+02 -0.62276997875E+02 -0.22049508482E+03  0.23163241649E+03  0.47000000000E+01 0.  1.
         13    1    6    6    0    0  0.20087122231E+02  0.18812999656E+02 -0.32381582241E+02  0.42496921112E+02  0.00000000000E+00 0. -1.
        -14    1    6    6    0    0 -0.24191564212E+02 -0.35646035539E+02 -0.10417976634E+01  0.43092423592E+02  0.00000000000E+00 0.  1.
</event>
<event>
12    1  0.2685360E-002  0.1844130E+03  0.7818608E-02  0.1163599E+00
          1   -1    0    0  502    0  0.00000000000E+00  0.00000000000E+00  0.11096704457E+04  0.11096704457E+04  0.00000000000E+00 0. -1.
         -1   -1    0    0    0  501 -0.00000000000E+00 -0.00000000000E+00 -0.35843684068E+02  0.35843684068E+02  0.00000000000E+00 0.  1.
          6    2    1    2  502    0  0.24293505434E+02 -0.47198059518E+02  0.31424181612E+03  0.36341735794E+03  0.17466088807E+03 0.  0.
         24    2    3    3    0    0 -0.16693514017E+01 -0.54185948494E+02  0.32128753251E+03  0.33522812866E+03  0.78824589762E+02 0.  0.
         -6    2    1    2    0  501 -0.24293505434E+02  0.47198059518E+02  0.75958494554E+03  0.78209677186E+03  0.17857278581E+03 0.  0.
        -24    2    5    5    0    0  0.48932867129E+02  0.60849570127E+02  0.47531393084E+03  0.48819106389E+03  0.79436051873E+02 0.  0.
          5    1    3    3  502    0  0.25962856836E+02  0.69878889757E+01 -0.70457163944E+01  0.28189229271E+02  0.47000000000E+01 0. -1.
        -13    1    4    4    0    0 -0.34788806142E+02 -0.44278838266E+02  0.14433630141E+03  0.15493174128E+03  0.00000000000E+00 0.  1.
         14    1    4    4    0    0  0.33119454740E+02 -0.99071102272E+01  0.17695123110E+03  0.18029638738E+03  0.00000000000E+00 0. -1.
         -5    1    5    5    0  501 -0.73226372563E+02 -0.13651510609E+02  0.28427101470E+03  0.29390570797E+03  0.47000000000E+01 0.  1.
         11    1    6    6    0    0  0.39781776076E+01 -0.71529367969E+01  0.22057274973E+03  0.22072455306E+03  0.00000000000E+00 0. -1.
        -12    1    6    6    0    0  0.44954689521E+02  0.68002506924E+02  0.25474118112E+03  0.26746651083E+03  0.00000000000E+00 0.  1.
</event>
<event>
12    1  0.2685360E-002  0.1825659E+03  0.7818608E-02  0.1165343E+00
         -1   -1    0    0    0  501 -0.00000000000E+00  0.00000000000E+00  0.50357398209E+03  0.50357398209E+03  0.00000000000E+00 0. -1.
          1   -1    0    0  502    0  0.00000000000E+00 -0.00000000000E+00 -0.75158288145E+02  0.75158288145E+02  0.00000000000E+00 0.  1.
          6    2    1    2  502    0 -0.92564562748E+01 -0.60051081336E+02  0.31447461972E+03  0.36377145259E+03  0.17246323931E+03 0.  0.
         24    2    3    3    0    0 -0.71521412858E+01  0.13891702973E+02  0.67678700864E+02  0.10608505586E+03  0.80184162959E+02 0.  0.
         -6    2    1    2    0  501  0.92564562748E+01  0.60051081336E+02  0.11394107422E+03  0.21496081765E+03  0.17185392162E+03 0.  0.
        -24    2    5    5    0    0 -0.39030638519E+02  0.94828992418E+01  0.94392971325E+01  0.89137544846E+02  0.79013197946E+02 0.  0.
          5    1    3    3  502    0 -0.21043149890E+01 -0.73942784309E+02  0.24679591886E+03  0.25768639673E+03  0.47000000000E+01 0. -1.
        -11    1    4    4    0    0 -0.35889724281E+01  0.39236112933E+02  0.70062097646E+02  0.80380661901E+02  0.00000000000E+00 0.  1.
         12    1    4    4    0    0 -0.35631688577E+01 -0.25344409960E+02 -0.23833967812E+01  0.25704393958E+02  0.00000000000E+00 0. -1.
         -5    1    5    5    0  501  0.48287094793E+02  0.50568182094E+02  0.10450177709E+03  0.12582327280E+03  0.47000000000E+01 0.  1.
         11    1    6    6    0    0 -0.48823336108E+02 -0.11440714291E+02  0.29809904543E+02  0.58337282256E+02  0.00000000000E+00 0. -1.
        -12    1    6    6    0    0  0.97926975890E+01  0.20923613533E+02 -0.20370607410E+02  0.30800262590E+02  0.00000000000E+00 0.  1.
</event>
<event>
12    1  0.2685360E-002  0.1877089E+03  0.7818608E-02  0.1160544E+00
         -2   -1    0    0    0  501 -0.00000000000E+00  0.00000000000E+00  0.18106289371E+03  0.18106289371E+03  0.00000000000E+00 0.  1.
          2   -1    0    0  502    0  0.00000000000E+00 -0.00000000000E+00 -0.25101685640E+03  0.25101685640E+03  0.00000000000E+00 0. -1.
          6    2    1    2  502    0  0.93882194460E+02 -0.15069173362E+02  0.68235218117E+02  0.19181702233E+03  0.15197624367E+03 0.  0.
         24    2    3    3    0    0  0.32865820743E+02  0.24032294972E+02  0.65828722915E+01  0.96554099668E+02  0.87302042246E+02 0.  0.
         -6    2    1    2    0  501 -0.93882194460E+02  0.15069173362E+02 -0.13818918081E+03  0.24026272778E+03  0.17201448266E+03 0.  0.
        -24    2    5    5    0    0 -0.66426837260E+02  0.25638512159E+02 -0.16806427349E+03  0.19807127457E+03  0.76920554923E+02 0.  0.
          5    1    3    3  502    0  0.61016373717E+02 -0.39101468334E+02  0.61652345826E+02  0.95262922657E+02  0.47000000000E+01 0. -1.
        -13    1    4    4    0    0  0.29778603281E+01 -0.29058112991E+02  0.18359809549E+02  0.34501075192E+02  0.00000000000E+00 0.  1.
         14    1    4    4    0    0  0.29887960415E+02  0.53090407963E+02 -0.11776937257E+02  0.62053024476E+02  0.00000000000E+00 0. -1.
         -5    1    5    5    0  501 -0.27455357200E+02 -0.10569338797E+02  0.29875092683E+02  0.42191453215E+02  0.47000000000E+01 0.  1.
         13    1    6    6    0    0 -0.81791696404E+02  0.31458059341E+02 -0.13200071097E+03  0.15844140493E+03  0.00000000000E+00 0. -1.
        -14    1    6    6    0    0  0.15364859144E+02 -0.58195471824E+01 -0.36063562521E+02  0.39629869639E+02  0.00000000000E+00 0.  1.
</event>
<event>
12    1  0.2685360E-002  0.2355938E+03  0.7818608E-02  0.1122763E+00
         -1   -1    0    0    0  501 -0.00000000000E+00  0.00000000000E+00  0.30055386153E+02  0.30055386153E+02  0.00000000000E+00 0.  1.
          1   -1    0    0  502    0  0.00000000000E+00 -0.00000000000E+00 -0.20760247199E+04  0.20760247199E+04  0.00000000000E+00 0. -1.
          6    2    1    2  502    0  0.13210650333E+03 -0.93671103355E+02 -0.67514239192E+03  0.71524788577E+03  0.17186007365E+03 0.  0.
         24    2    3    3    0    0  0.29762880913E+01 -0.59375385470E+02 -0.32994662536E+03  0.34506817806E+03  0.81688293130E+02 0.  0.
         -6    2    1    2    0  501 -0.13210650333E+03  0.93671103355E+02 -0.13708269418E+04  0.13908322203E+04  0.17035655754E+03 0.  0.
        -24    2    5    5    0    0 -0.47485263517E+02  0.17513486945E+01 -0.85740655605E+03  0.86240760120E+03  0.79642644123E+02 0.  0.
          5    1    3    3  502    0  0.12913021523E+03 -0.34295717885E+02 -0.34519576656E+03  0.37017970771E+03  0.47000000000E+01 0. -1.
        -13    1    4    4    0    0  0.41520436459E+02 -0.20711121944E+02 -0.15625366840E+03  0.16299725797E+03  0.00000000000E+00 0.  1.
         14    1    4    4    0    0 -0.38544148367E+02 -0.38664263526E+02 -0.17369295695E+03  0.18207092009E+03  0.00000000000E+00 0. -1.
         -5    1    5    5    0  501 -0.84621239809E+02  0.91919754661E+02 -0.51342038577E+03  0.52842461908E+03  0.47000000000E+01 0.  1.
         13    1    6    6    0    0 -0.51540095590E+02 -0.30611886885E+02 -0.58038414883E+03  0.58347170393E+03  0.00000000000E+00 0. -1.
        -14    1    6    6    0    0  0.40548320726E+01  0.32363235580E+02 -0.27702240723E+03  0.27893589727E+03  0.00000000000E+00 0.  1.
</event>
<event>
12    1  0.2685360E-002  0.2003651E+03  0.7818608E-02  0.1149431E+00
         -1   -1    0    0    0  501 -0.00000000000E+00  0.00000000000E+00  0.24640147677E+02  0.24640147677E+02  0.00000000000E+00 0. -1.
          1   -1    0    0  502    0  0.00000000000E+00 -0.00000000000E+00 -0.18389481278E+04  0.18389481278E+04  0.00000000000E+00 0.  1.
          6    2    1    2  502    0 -0.96766680927E+01 -0.10216423364E+03 -0.12271014555E+04  0.12435700714E+04  0.17365877992E+03 0.  0.
         24    2    3    3    0    0  0.32282547847E+02 -0.12061843438E+03 -0.76760098347E+03  0.78176501824E+03  0.79713890293E+02 0.  0.
         -6    2    1    2    0  501  0.96766680927E+01  0.10216423364E+03 -0.58720652456E+03  0.62001820402E+03  0.17052830348E+03 0.  0.
        -24    2    5    5    0    0 -0.15330969161E+02 -0.10444393074E+02 -0.28319297640E+03  0.29482224433E+03  0.79860941076E+02 0.  0.
          5    1    3    3  502    0 -0.41959215940E+02  0.18454200746E+02 -0.45950047207E+03  0.46180505320E+03  0.47000000000E+01 0. -1.
        -11    1    4    4    0    0 -0.11587798694E+02 -0.17180425283E+02 -0.30545113192E+03  0.30615329180E+03  0.00000000000E+00 0.  1.
         12    1    4    4    0    0  0.43870346541E+02 -0.10343800910E+03 -0.46214985156E+03  0.47561172644E+03  0.00000000000E+00 0. -1.
         -5    1    5    5    0  501  0.25007637254E+02  0.11260862671E+03 -0.30401354816E+03  0.32519595968E+03  0.47000000000E+01 0.  1.
         13    1    6    6    0    0 -0.19495378174E+02 -0.20675639471E+02 -0.28231443461E+03  0.28374106475E+03  0.00000000000E+00 0. -1.
        -14    1    6    6    0    0  0.41644090134E+01  0.10231246397E+02 -0.87854179130E+00  0.11081179582E+02  0.00000000000E+00 0.  1.
</event>
<event>
12    1  0.2685360E-002  0.1894628E+03  0.7818608E-02  0.1158947E+00
         -2   -1    0    0    0  501 -0.00000000000E+00  0.00000000000E+00  0.64802970379E+02  0.64802970379E+02  0.00000000000E+00 0.  1.
          2   -1    0    0  502    0  0.00000000000E+00 -0.00000000000E+00 -0.55439590363E+03  0.55439590363E+03  0.00000000000E+00 0. -1.
          6    2    1    2  502    0 -0.64755036540E+02 -0.51578781346E+02 -0.25519128043E+03  0.31859601262E+03  0.17183493303E+03 0.  0.
         24    2    3    3    0    0  0.28616602954E+02 -0.39132050861E+01 -0.11456044749E+03  0.14312695154E+03  0.80789881734E+02 0.  0.
         -6    2    1    2    0  501  0.64755036540E+02  0.51578781346E+02 -0.23440165282E+03  0.30060286139E+03  0.16900994050E+03 0.  0.
        -24    2    5    5    0    0  0.98109570974E+02  0.67229661031E+02 -0.14293422262E+03  0.20188176035E+03  0.78617669311E+02 0.  0.
          5    1    3    3  502    0 -0.93371639494E+02 -0.47665576260E+02 -0.14063083294E+03  0.17546906108E+03  0.47000000000E+01 0. -1.
        -11    1    4    4    0    0  0.13431460504E+02 -0.41042504567E+02 -0.42135876818E+02  0.60335092837E+02  0.00000000000E+00 0.  1.
         12    1    4    4    0    0  0.15185142450E+02  0.37129299481E+02 -0.72424570671E+02  0.82791858707E+02  0.00000000000E+00 0. -1.
         -5    1    5    5    0  501 -0.33354534434E+02 -0.15650879685E+02 -0.91467430200E+02  0.98721101035E+02  0.47000000000E+01 0.  1.
         11    1    6    6    0    0  0.13088398845E+01  0.30813725158E+02 -0.79842335309E+01  0.31858228215E+02  0.00000000000E+00 0. -1.
        -12    1    6    6    0    0  0.96800731089E+02  0.36415935873E+02 -0.13494998909E+03  0.17002353214E+03  0.00000000000E+00 0.  1.
</event>
<event>
12    1  0.2685360E-002  0.1865442E+03  0.7818608E-02  0.1161616E+00
          2   -1    0    0  502    0  0.00000000000E+00  0.00000000000E+00  0.28905968385E+03  0.28905968385E+03  0.00000000000E+00 0. -1.
         -2   -1    0    0    0  501 -0.00000000000E+00 -0.00000000000E+00 -0.12793043862E+03  0.12793043862E+03  0.00000000000E+00 0.  1.
          6    2    1    2  502    0 -0.66294146621E+02  0.33371383914E+02  0.13089922964E+03  0.22730515769E+03  0.17036567510E+03 0.  0.
         24    2    3    3    0    0 -0.10905974735E+03  0.41541257714E+02  0.10896100841E+03  0.17832537621E+03  0.79421243148E+02 0.  0.
         -6    2    1    2    0  501  0.66294146621E+02 -0.33371383914E+02  0.30230015585E+02  0.18968496478E+03  0.17192431149E+03 0.  0.
        -24    2    5    5    0    0  0.61295916146E+02 -0.21117569962E+02  0.83874727037E+02  0.13423243254E+03  0.82342182470E+02 0.  0.
          5    1    3    3  502    0  0.42765600726E+02 -0.81698737995E+01  0.21938221235E+02  0.48979781484E+02  0.47000000000E+01 0. -1.
        -11    1    4    4    0    0 -0.53269215239E+02  0.61959489733E+02  0.60869053039E+02  0.10189028059E+03  0.00000000000E+00 0.  1.
         12    1    4    4    0    0 -0.55790532107E+02 -0.20418232020E+02  0.48091955366E+02  0.76435095621E+02  0.00000000000E+00 0. -1.
         -5    1    5    5    0  501  0.49982304749E+01 -0.12253813952E+02 -0.53644711452E+02  0.55452532233E+02  0.47000000000E+01 0.  1.
         13    1    6    6    0    0  0.79621038252E+02 -0.22852025769E+02  0.53165463105E+02  0.98429118056E+02  0.00000000000E+00 0. -1.
        -14    1    6    6    0    0 -0.18325122106E+02  0.17344558067E+01  0.30709263932E+02  0.35803314489E+02  0.00000000000E+00 0.  1.
</event>
<event>
12    1  0.2685360E-002  0.2663883E+03  0.7818608E-02  0.1103365E+00
         -2   -1    0    0    0  501 -0.00000000000E+00  0.00000000000E+00  0.19006622665E+04  0.19006622665E+04  0.00000000000E+00 0. -1.
          2   -1    0    0  502    0  0.00000000000E+00 -0.00000000000E+00 -0.37780019493E+02  0.37780019493E+02  0.00000000000E+00 0.  1.
          6    2    1    2  502    0 -0.11469697448E+03  0.16596151815E+03  0.82326872680E+03  0.86501678169E+03  0.17258045840E+03 0.  0.
         24    2    3    3    0    0 -0.95570283113E+02  0.33861704385E+02  0.33842679540E+03  0.36211522119E+03  0.79463472928E+02 0.  0.
         -6    2    1    2    0  501  0.11469697448E+03 -0.16596151815E+03  0.10396135202E+04  0.10734255043E+04  0.17534942378E+03 0.  0.
        -24    2    5    5    0    0  0.94397643617E+02 -0.92605592034E+02  0.40282773003E+03  0.43208987664E+03  0.83335290361E+02 0.  0.
          5    1    3    3  502    0 -0.19126691365E+02  0.13209981377E+03  0.48484193139E+03  0.50290156050E+03  0.47000000000E+01 0. -1.
        -13    1    4    4    0    0 -0.38110676389E+02  0.30455474978E+02  0.57753395873E+02  0.75600359430E+02  0.00000000000E+00 0.  1.
         14    1    4    4    0    0 -0.57459606723E+02  0.34062294066E+01  0.28067339953E+03  0.28651486176E+03  0.00000000000E+00 0. -1.
         -5    1    5    5    0  501  0.20299330860E+02 -0.73355926120E+02  0.63678579019E+03  0.64133562767E+03  0.47000000000E+01 0.  1.
         11    1    6    6    0    0  0.11716230267E+02 -0.68783071637E+02  0.19746131843E+03  0.20942624781E+03  0.00000000000E+00 0. -1.
        -12    1    6    6    0    0  0.82681413350E+02 -0.23822520397E+02  0.20536641160E+03  0.22266362883E+03  0.00000000000E+00 0.  1.
</event>
<event>
12    1  0.2685360E-002  0.1803480E+03  0.7818608E-02  0.1167467E+00
         -2   -1    0    0    0  501 -0.00000000000E+00  0.00000000000E+00  0.12039050865E+03  0.12039050865E+03  0.00000000000E+00 0. -1.
          2   -1    0    0  502    0  0.00000000000E+00 -0.00000000000E+00 -0.27285655046E+03  0.27285655046E+03  0.00000000000E+00 0.  1.
          6    2    1    2  502    0  0.28340482684E+02  0.22137801935E+01 -0.91988113159E+02  0.19707802215E+03  0.17195886156E+03 0.  0.
         24    2    3    3    0    0 -0.73478938315E+01 -0.92142530560E+01 -0.12454464688E+03  0.14721543046E+03  0.77602318891E+02 0.  0.
         -6    2    1    2    0  501 -0.28340482684E+02 -0.22137801935E+01 -0.60477928655E+02  0.19616903696E+03  0.18443597107E+03 0.  0.
        -24    2    5    5    0    0  0.32097230715E+02 -0.33205770853E+02  0.15956041234E+02  0.93809560410E+02  0.80079853489E+02 0.  0.
          5    1    3    3  502    0  0.35688376516E+02  0.11428033249E+02  0.32556533717E+02  0.49862591689E+02  0.47000000000E+01 0. -1.
        -11    1    4    4    0    0  0.51727760157E+01  0.25196720382E+02 -0.99699762817E+02  0.10296443578E+03  0.00000000000E+00 0.  1.
         12    1    4    4    0    0 -0.12520669847E+02 -0.34410973438E+02 -0.24844884059E+02  0.44250994681E+02  0.00000000000E+00 0. -1.
         -5    1    5    5    0  501 -0.60437713399E+02  0.30991990660E+02 -0.76433969889E+02  0.10235947655E+03  0.47000000000E+01 0.  1.
         13    1    6    6    0    0  0.13577754169E+02  0.24755331470E+02 -0.64600959057E+01  0.28964023953E+02  0.00000000000E+00 0. -1.
        -14    1    6    6    0    0  0.18519476546E+02 -0.57961102323E+02  0.22416137140E+02  0.64845536457E+02  0.00000000000E+00 0.  1.
</event>
<event>
12    1  0.2685360E-002  0.1744009E+03  0.7818608E-02  0.1173335E+00
          2   -1    0    0  502    0  0.00000000000E+00  0.00000000000E+00  0.47092668446E+02  0.47092668446E+02  0.00000000000E+00 0.  1.
         -2   -1    0    0    0  501 -0.00000000000E+00 -0.00000000000E+00 -0.64897852682E+03  0.64897852682E+03  0.00000000000E+00 0. -1.
          6    2    1    2  502    0  0.27511919078E+02 -0.17614658384E+02 -0.32530106314E+03  0.36917581689E+03  0.17147250572E+03 0.  0.
         24    2    3    3    0    0 -0.72081708229E+01  0.12158779156E+02 -0.60965769021E+02  0.10087154942E+03  0.79110371342E+02 0.  0.
         -6    2    1    2    0  501 -0.27511919078E+02  0.17614658384E+02 -0.27658479524E+03  0.32689537838E+03  0.17115565303E+03 0.  0.
        -24    2    5    5    0    0  0.26492865569E+02  0.43779179845E+02 -0.23749093903E+03  0.25512129851E+03  0.77887369424E+02 0.  0.
          5    1    3    3  502    0  0.34720089901E+02 -0.29773437540E+02 -0.26433529411E+03  0.26830426747E+03  0.47000000000E+01 0. -1.
        -11    1    4    4    0    0 -0.19618942261E+02  0.38360733991E+02 -0.13320828091E+02  0.45098705844E+02  0.00000000000E+00 0.  1.
         12    1    4    4    0    0  0.12410771438E+02 -0.26201954835E+02 -0.47644940930E+02  0.55772843580E+02  0.00000000000E+00 0. -1.
         -5    1    5    5    0  501 -0.54004784647E+02 -0.26164521461E+02 -0.39093856207E+02  0.71774079869E+02  0.47000000000E+01 0.  1.
         13    1    6    6    0    0 -0.19622647570E+02  0.21762113424E+02 -0.15748530866E+03  0.16018820282E+03  0.00000000000E+00 0. -1.
        -14    1    6    6    0    0  0.46115513139E+02  0.22017066420E+02 -0.80005630370E+02  0.94933095687E+02  0.00000000000E+00 0.  1.
</event>
<event>
12    1  0.2685360E-002  0.1817767E+03  0.7818608E-02  0.1166095E+00
         -2   -1    0    0    0  501 -0.00000000000E+00  0.00000000000E+00  0.17417777249E+03  0.17417777249E+03  0.00000000000E+00 0. -1.
          2   -1    0    0  502    0  0.00000000000E+00 -0.00000000000E+00 -0.25031300210E+03  0.25031300210E+03  0.00000000000E+00 0.  1.
          6    2    1    2  502    0  0.53145879537E+02  0.12622333254E+02 -0.14266120483E+03  0.23188568067E+03  0.17445613124E+03 0.  0.
         24    2    3    3    0    0 -0.17714308249E+02 -0.34073562350E+02 -0.10805622139E+03  0.14011821499E+03  0.80511880009E+02 0.  0.
         -6    2    1    2    0  501 -0.53145879537E+02 -0.12622333254E+02  0.66525975219E+02  0.19260509392E+03  0.17229976499E+03 0.  0.
        -24    2    5    5    0    0  0.24200336232E+02 -0.45215055679E+02  0.25167510299E+02  0.98917660025E+02  0.80754209527E+02 0.  0.
          5    1    3    3  502    0  0.70860187786E+02  0.46695895604E+02 -0.34604983448E+02  0.91767465688E+02  0.47000000000E+01 0. -1.
        -13    1    4    4    0    0 -0.52465789321E+01  0.66984059161E+01 -0.95209833721E+02  0.95589265451E+02  0.00000000000E+00 0.  1.
         14    1    4    4    0    0 -0.12467729316E+02 -0.40771968266E+02 -0.12846387665E+02  0.44528949534E+02  0.00000000000E+00 0. -1.
         -5    1    5    5    0  501 -0.77346215769E+02  0.32592722425E+02  0.41358464920E+02  0.93687433893E+02  0.47000000000E+01 0.  1.
         11    1    6    6    0    0  0.44379515019E+02 -0.11343658512E-01  0.21404293022E+02  0.49271545965E+02  0.00000000000E+00 0. -1.
        -12    1    6    6    0    0 -0.20179178787E+02 -0.45203712021E+02  0.37632172775E+01  0.49646114060E+02  0.00000000000E+00 0.  1.
</event>
<event>
12    1  0.2685360E-002  0.2445867E+03  0.7818608E-02  0.1116774E+00
          2   -1    0    0  502    0  0.00000000000E+00  0.00000000000E+00  0.51039550869E+03  0.51039550869E+03  0.00000000000E+00 0. -1.
         -2   -1    0    0    0  501 -0.00000000000E+00 -0.00000000000E+00 -0.12674661665E+03  0.12674661665E+03  0.00000000000E+00 0.  1.
          6    2    1    2  502    0 -0.12414551370E+02 -0.17163524677E+03  0.10488742116E+03  0.26670019374E+03  0.17468498276E+03 0.  0.
         24    2    3    3    0    0  0.46016244300E+02 -0.44269237774E+02  0.24463601317E+02  0.10506375314E+03  0.79766310443E+02 0.  0.
         -6    2    1    2    0  501  0.12414551370E+02  0.17163524677E+03  0.27876147088E+03  0.37044193160E+03  0.17293492423E+03 0.  0.
        -24    2    5    5    0    0  0.32982466025E+02  0.97670455113E+02  0.11573567428E+03  0.19018286837E+03  0.11021531769E+03 0.  0.
          5    1    3    3  502    0 -0.58430795669E+02 -0.12736600900E+03  0.80423819844E+02  0.16163644060E+03  0.47000000000E+01 0. -1.
        -11    1    4    4    0    0  0.26728286495E+02 -0.62899314876E+02 -0.61875705731E+00  0.68345504396E+02  0.00000000000E+00 0.  1.
         12    1    4    4    0    0  0.19287957805E+02  0.18630077102E+02  0.25082358374E+02  0.36718248743E+02  0.00000000000E+00 0. -1.
         -5    1    5    5    0  501 -0.20567914655E+02  0.73964791662E+02  0.16302579660E+03  0.18025906323E+03  0.47000000000E+01 0.  1.
         13    1    6    6    0    0 -0.10177565290E+02  0.10201333039E+03  0.10215876173E+03  0.14472980001E+03  0.00000000000E+00 0. -1.
        -14    1    6    6    0    0  0.43160031315E+02 -0.43428752762E+01  0.13576912542E+02  0.45453068356E+02  0.00000000000E+00 0.  1.
</event>
<event>
12    1  0.2685360E-002  0.2389918E+03  0.7818608E-02  0.1120466E+00
         -1   -1    0    0    0  501 -0.00000000000E+00  0.00000000000E+00  0.10791317033E+03  0.10791317033E+03  0.00000000000E+00 0.  1.
          1   -1    0    0  502    0  0.00000000000E+00 -0.00000000000E+00 -0.58634851181E+03  0.58634851181E+03  0.00000000000E+00 0. -1.
          6    2    1    2  502    0 -0.10386668331E+03 -0.13391435987E+03 -0.12948589327E+03  0.27039288855E+03  0.16620581801E+03 0.  0.
         24    2    3    3    0    0 -0.41336747274E+02 -0.14772200564E+03 -0.84847629584E+02  0.19219245014E+03  0.78792766290E+02 0.  0.
         -6    2    1    2    0  501  0.10386668331E+03  0.13391435987E+03 -0.34894944821E+03  0.42386879358E+03  0.17081479177E+03 0.  0.
        -24    2    5    5    0    0  0.11119866278E+03  0.66245900917E+02 -0.31210835090E+03  0.34633083700E+03  0.76024758874E+02 0.  0.
          5    1    3    3  502    0 -0.62529936039E+02  0.13807645768E+02 -0.44638263682E+02  0.78200438408E+02  0.47000000000E+01 0. -1.
        -11    1    4    4    0    0  0.13855384053E+01 -0.36263239708E+02  0.12271266059E+02  0.38308305124E+02  0.00000000000E+00 0.  1.
         12    1    4    4    0    0 -0.42722285680E+02 -0.11145876593E+03 -0.97118895643E+02  0.15388414502E+03  0.00000000000E+00 0. -1.
         -5    1    5    5    0  501 -0.73319794655E+01  0.67668458957E+02 -0.36841097307E+02  0.77537956585E+02  0.47000000000E+01 0.  1.
         13    1    6    6    0    0  0.72248802065E+02  0.78145592898E+02 -0.19225357073E+03  0.21974544033E+03  0.00000000000E+00 0. -1.
        -14    1    6    6    0    0  0.38949860714E+02 -0.11899691981E+02 -0.11985478017E+03  0.12658539667E+03  0.00000000000E+00 0.  1.
</event>
<event>
12    1  0.2685360E-002  0.1757435E+03  0.7818608E-02  0.1171987E+00
         -1   -1    0    0    0  501 -0.00000000000E+00  0.00000000000E+00  0.30839836330E+02  0.30839836330E+02  0.00000000000E+00 0.  1.
          1   -1    0    0  502    0  0.00000000000E+00 -0.00000000000E+00 -0.10999074196E+04  0.10999074196E+04  0.00000000000E+00 0. -1.
          6    2    1    2  502    0  0.49658783277E+01 -0.33124098436E+02 -0.70537252191E+03  0.72708779369E+03  0.17316003933E+03 0.  0.
         24    2    3    3    0    0 -0.21799920497E+02 -0.19354165794E+02 -0.16052256752E+03  0.18138679329E+03  0.79270762780E+02 0.  0.
         -6    2    1    2    0  501 -0.49658783277E+01  0.33124098436E+02 -0.36369506136E+03  0.40365946224E+03  0.17188658457E+03 0.  0.
        -24    2    5    5    0    0 -0.27034675696E+02 -0.41033792163E+02 -0.17066053788E+03  0.19564301623E+03  0.82076335328E+02 0.  0.
          5    1    3    3  502    0  0.26765798825E+02 -0.13769932642E+02 -0.54484995440E+03  0.54570100040E+03  0.47000000000E+01 0. -1.
        -13    1    4    4    0    0  0.11576898699E+02 -0.39688746513E+02 -0.10999298935E+03  0.11750608022E+03  0.00000000000E+00 0.  1.
         14    1    4    4    0    0 -0.33376819196E+02  0.20334580719E+02 -0.50529578167E+02  0.63880713070E+02  0.00000000000E+00 0. -1.
         -5    1    5    5    0  501  0.22068797369E+02  0.74157890599E+02 -0.19303452349E+03  0.20801644602E+03  0.47000000000E+01 0.  1.
         13    1    6    6    0    0  0.97643861251E+01 -0.42101338288E+02 -0.14357312813E+03  0.14993701692E+03  0.00000000000E+00 0. -1.
        -14    1    6    6    0    0 -0.36799061821E+02  0.10675461249E+01 -0.27087409741E+02  0.45705999302E+02  0.00000000000E+00 0.  1.
</event>
<event>
12    1  0.2685360E-002  0.1805904E+03  0.7818608E-02  0.1167233E+00
         -1   -1    0    0    0  501 -0.00000000000E+00  0.00000000000E+00  0.15828651628E+03  0.15828651628E+03  0.00000000000E+00 0.  1.
          1   -1    0    0  502    0  0.00000000000E+00 -0.00000000000E+00 -0.20706676436E+03  0.20706676436E+03  0.00000000000E+00 0. -1.
          6    2    1    2  502    0 -0.87865245340E+01 -0.62014614287E+02 -0.11395985021E+02  0.17919531057E+03  0.16750544903E+03 0.  0.
         24    2    3    3    0    0 -0.20891123461E+02  0.26661443844E+02  0.60247299222E+01  0.87896154438E+02  0.80883650801E+02 0.  0.
         -6    2    1    2    0  501  0.87865245340E+01  0.62014614287E+02 -0.37384263062E+02  0.18615797007E+03  0.17127227241E+03 0.  0.
        -24    2    5    5    0    0  0.18645676443E+01  0.18397826307E+02  0.44394852897E+02  0.93097497860E+02  0.79713766181E+02 0.  0.
          5    1    3    3  502    0  0.12104598927E+02 -0.88676058131E+02 -0.17420714943E+02  0.91299156130E+02  0.47000000000E+01 0. -1.
        -13    1    4    4    0    0 -0.24104990275E+02 -0.16294549532E+01  0.38032137415E+02  0.45057176520E+02  0.00000000000E+00 0.  1.
         14    1    4    4    0    0  0.32138668142E+01  0.28290898797E+02 -0.32007407492E+02  0.42838977918E+02  0.00000000000E+00 0. -1.
         -5    1    5    5    0  501  0.69219568897E+01  0.43616787980E+02 -0.81779115959E+02  0.93060472210E+02  0.47000000000E+01 0.  1.
         11    1    6    6    0    0 -0.84758942570E+01  0.21480755727E+02 -0.18310227036E+02  0.29470800196E+02  0.00000000000E+00 0. -1.
        -12    1    6    6    0    0  0.10340461901E+02 -0.30829294204E+01  0.62705079933E+02  0.63626697664E+02  0.00000000000E+00 0.  1.
</event>
<event>
12    1  0.2685360E-002  0.2112767E+03  0.7818608E-02  0.1140559E+00
          2   -1    0    0  502    0  0.00000000000E+00  0.00000000000E+00  0.41797824986E+03  0.41797824986E+03  0.00000000000E+00 0. -1.
         -2   -1    0    0    0  501 -0.00000000000E+00 -0.00000000000E+00 -0.14602661022E+03  0.14602661022E+03  0.00000000000E+00 0.  1.
          6    2    1    2  502    0  0.11470053086E+03  0.42559731791E+02  0.28264003376E+03  0.35351852618E+03  0.17355810878E+03 0.  0.
         24    2    3    3    0    0 -0.85309423259E+00 -0.15539329813E+02  0.79863268350E+02  0.11295949430E+03  0.78355007371E+02 0.  0.
         -6    2    1    2    0  501 -0.11470053086E+03 -0.42559731791E+02 -0.10688394118E+02  0.21048633390E+03  0.17094651924E+03 0.  0.
        -24    2    5    5    0    0 -0.65389973204E+02 -0.92607287244E+02 -0.13210599810E+02  0.14002541974E+03  0.81121143851E+02 0.  0.
          5    1    3    3  502    0  0.11555362509E+03  0.58099061604E+02  0.20277676541E+03  0.24055903188E+03  0.47000000000E+01 0. -1.
        -11    1    4    4    0    0 -0.34493236523E+02  0.10805418088E+02  0.27755474183E+02  0.45573092643E+02  0.00000000000E+00 0.  1.
         12    1    4    4    0    0  0.33640142291E+02 -0.26344747901E+02  0.52107794168E+02  0.67386401657E+02  0.00000000000E+00 0. -1.
         -5    1    5    5    0  501 -0.49310557656E+02  0.50047555453E+02  0.25222056917E+01  0.70460914163E+02  0.47000000000E+01 0.  1.
         13    1    6    6    0    0 -0.73133966401E+02 -0.37410985004E+02 -0.17956536126E+02  0.84086836248E+02  0.00000000000E+00 0. -1.
        -14    1    6    6    0    0  0.77439931972E+01 -0.55196302240E+02  0.47459363162E+01  0.55938583492E+02  0.00000000000E+00 0.  1.
</event>
<event>
12    1  0.2685360E-002  0.1895152E+03  0.7818608E-02  0.1158899E+00
         -2   -1    0    0    0  501 -0.00000000000E+00  0.00000000000E+00  0.12806275133E+02  0.12806275133E+02  0.00000000000E+00 0.  1.
          2   -1    0    0  502    0  0.00000000000E+00 -0.00000000000E+00 -0.28974462850E+04  0.28974462850E+04  0.00000000000E+00 0. -1.
          6    2    1    2  502    0 -0.76821734991E+02 -0.23663522860E+02 -0.17128864171E+04  0.17234927486E+04  0.17316418596E+03 0.  0.
         24    2    3    3    0    0  0.78052539921E+01 -0.25760731463E+02 -0.33881753282E+03  0.34681068134E+03  0.68962242371E+02 0.  0.
         -6    2    1    2    0  501  0.76821734991E+02  0.23663522860E+02 -0.11717535928E+04  0.11867598116E+04  0.17009064300E+03 0.  0.
        -24    2    5    5    0    0  0.97992295084E+02  0.55595574117E+02 -0.70126758630E+03  0.71469305694E+03  0.79476916705E+02 0.  0.
          5    1    3    3  502    0 -0.84626988983E+02  0.20972086029E+01 -0.13740688843E+04  0.13766820672E+04  0.47000000000E+01 0. -1.
        -13    1    4    4    0    0 -0.19043881366E+02  0.13940815059E+02 -0.73416399543E+02  0.77116687324E+02  0.00000000000E+00 0.  1.
         14    1    4    4    0    0  0.26849135358E+02 -0.39701546522E+02 -0.26540113328E+03  0.26969399402E+03  0.00000000000E+00 0. -1.
         -5    1    5    5    0  501 -0.21170560093E+02 -0.31932051257E+02 -0.47048600651E+03  0.47206675464E+03  0.47000000000E+01 0.  1.
         11    1    6    6    0    0  0.14421788786E+02 -0.11491692837E+02 -0.25786806386E+03  0.25852656606E+03  0.00000000000E+00 0. -1.
        -12    1    6    6    0    0  0.83570506298E+02  0.67087266954E+02 -0.44339952243E+03  0.45616649088E+03  0.00000000000E+00 0.  1.
</event>
<event>
12    1  0.2685360E-002  0.2343357E+03  0.7818608E-02  0.1123625E+00
          2   -1    0    0  502    0  0.00000000000E+00  0.00000000000E+00  0.66453043330E+02  0.66453043330E+02  0.00000000000E+00 0. -1.
         -2   -1    0    0    0  501 -0.00000000000E+00 -0.00000000000E+00 -0.82643971186E+03  0.82643971186E+03  0.00000000000E+00 0.  1.
          6    2    1    2  502    0 -0.16027396606E+03 -0.29313619536E+02 -0.38622491854E+03  0.45256932238E+03  0.17059387847E+03 0.  0.
         24    2    3    3    0    0 -0.36244220423E+02 -0.62465815194E+02 -0.18553769603E+03  0.21428399518E+03  0.79232394648E+02 0.  0.
         -6    2    1    2    0  501  0.16027396606E+03  0.29313619536E+02 -0.37376174999E+03  0.44032343281E+03  0.16625236010E+03 0.  0.
        -24    2    5    5    0    0  0.12302111248E+03  0.62158938854E+02 -0.34995845645E+03  0.38504887370E+03  0.82424426627E+02 0.  0.
          5    1    3    3  502    0 -0.12402974563E+03  0.33152195658E+02 -0.20068722252E+03  0.23828532720E+03  0.47000000000E+01 0. -1.
        -11    1    4    4    0    0 -0.31832133658E+02 -0.55629945997E+01 -0.13245759225E+03  0.13634238294E+03  0.00000000000E+00 0.  1.
         12    1    4    4    0    0 -0.44120867655E+01 -0.56902820595E+02 -0.53080103780E+02  0.77941612240E+02  0.00000000000E+00 0. -1.
         -5    1    5    5    0  501  0.37252853580E+02 -0.32845319318E+02 -0.23803293538E+02  0.55274559104E+02  0.47000000000E+01 0.  1.
         13    1    6    6    0    0  0.88387087261E+02  0.52711599653E+01 -0.14880095970E+03  0.17315249905E+03  0.00000000000E+00 0. -1.
        -14    1    6    6    0    0  0.34634025215E+02  0.56887778889E+02 -0.20115749675E+03  0.21189637465E+03  0.00000000000E+00 0.  1.
</event>
<event>
12    1  0.2685360E-002  0.2170266E+03  0.7818608E-02  0.1136119E+00
         -2   -1    0    0    0  501 -0.00000000000E+00  0.00000000000E+00  0.11316658357E+03  0.11316658357E+03  0.00000000000E+00 0.  1.
          2   -1    0    0  502    0  0.00000000000E+00 -0.00000000000E+00 -0.50603146371E+03  0.50603146371E+03  0.00000000000E+00 0. -1.
          6    2    1    2  502    0 -0.11946115428E+03 -0.32414056951E+02 -0.32316003038E+03  0.38666937778E+03  0.17250844620E+03 0.  0.
         24    2    3    3    0    0 -0.14644042672E+03 -0.52038835574E+02 -0.23864348867E+03  0.29568504451E+03  0.79536732904E+02 0.  0.
         -6    2    1    2    0  501  0.11946115428E+03  0.32414056951E+02 -0.69704849758E+02  0.23252866949E+03  0.18409013441E+03 0.  0.
        -24    2    5    5    0    0  0.10241036301E+03  0.22069116505E+02 -0.12002526686E+03  0.17819652751E+03  0.79831130367E+02 0.  0.
          5    1    3    3  502    0  0.26979272438E+02  0.19624778623E+02 -0.84516541712E+02  0.90984333268E+02  0.47000000000E+01 0. -1.
        -13    1    4    4    0    0 -0.13662230774E+03 -0.26089079399E+02 -0.22558952419E+03  0.26502250557E+03  0.00000000000E+00 0.  1.
         14    1    4    4    0    0 -0.98181189821E+01 -0.25949756175E+02 -0.13053964478E+02  0.30662538944E+02  0.00000000000E+00 0. -1.
         -5    1    5    5    0  501  0.17050791266E+02  0.10344940446E+02  0.50320417099E+02  0.54332141985E+02  0.47000000000E+01 0.  1.
         13    1    6    6    0    0  0.21458030849E+02 -0.17932044135E+02 -0.69067670088E+02  0.74514081529E+02  0.00000000000E+00 0. -1.
        -14    1    6    6    0    0  0.80952332166E+02  0.40001160640E+02 -0.50957596769E+02  0.10368244598E+03  0.00000000000E+00 0.  1.
</event>
<event>
12    1  0.2685360E-002  0.3758829E+03  0.7818608E-02  0.1052466E+00
         -1   -1    0    0    0  501 -0.00000000000E+00  0.00000000000E+00  0.10496387741E+03  0.10496387741E+03  0.00000000000E+00 0. -1.
          1   -1    0    0  502    0  0.00000000000E+00 -0.00000000000E+00 -0.19079038546E+04  0.19079038546E+04  0.00000000000E+00 0.  1.
          6    2    1    2  502    0  0.23782738380E+03  0.23421263978E+03 -0.35676425565E+03  0.51885543079E+03  0.17467913106E+03 0.  0.
         24    2    3    3    0    0  0.11550812047E+03  0.16883927479E+03 -0.29297121309E+03  0.36612258785E+03  0.79779640434E+02 0.  0.
         -6    2    1    2    0  501 -0.23782738380E+03 -0.23421263978E+03 -0.14461757216E+04  0.14940123013E+04  0.17097108976E+03 0.  0.
        -24    2    5    5    0    0 -0.18053634709E+03 -0.24216024268E+03 -0.12923154495E+04  0.13295723408E+04  0.80302133267E+02 0.  0.
          5    1    3    3  502    0  0.12231926333E+03  0.65373364994E+02 -0.63793042561E+02  0.15273284294E+03  0.47000000000E+01 0. -1.
        -13    1    4    4    0    0  0.75134280917E+02  0.51538302149E+02 -0.16103921128E+03  0.18502698270E+03  0.00000000000E+00 0.  1.
         14    1    4    4    0    0  0.40373839553E+02  0.11730097264E+03 -0.13193200181E+03  0.18109560515E+03  0.00000000000E+00 0. -1.
         -5    1    5    5    0  501 -0.57291036710E+02  0.79476028935E+01 -0.15386027202E+03  0.16443996043E+03  0.47000000000E+01 0.  1.
         11    1    6    6    0    0 -0.11996091815E+03 -0.21343778256E+03 -0.97734096321E+03  0.10075423898E+04  0.00000000000E+00 0. -1.
        -12    1    6    6    0    0 -0.60575428941E+02 -0.28722460115E+02 -0.31497448634E+03  0.32202995102E+03  0.00000000000E+00 0.  1.
</event>
<event>
12    1  0.2685360E-002  0.2319394E+03  0.7818608E-02  0.1125282E+00
         -2   -1    0    0    0  501 -0.00000000000E+00  0.00000000000E+00  0.26879628886E+02  0.26879628886E+02  0.00000000000E+00 0.  1.
          2   -1    0    0  502    0  0.00000000000E+00 -0.00000000000E+00 -0.22944313975E+04  0.22944313975E+04  0.00000000000E+00 0. -1.
          6    2    1    2  502    0  0.18738246150E+01 -0.15635838147E+03 -0.15476757655E+04  0.15649272136E+04  0.17101302340E+03 0.  0.
         24    2    3    3    0    0  0.41812707933E+02 -0.47596181413E+02 -0.44722294343E+03  0.45838176307E+03  0.78049859404E+02 0.  0.
         -6    2    1    2    0  501 -0.18738246150E+01  0.15635838147E+03 -0.71987600316E+03  0.75638381280E+03  0.17159125172E+03 0.  0.
        -24    2    5    5    0    0 -0.38896848149E+02  0.16721629887E+03 -0.64426568152E+03  0.67136846489E+03  0.78632638641E+02 0.  0.
          5    1    3    3  502    0 -0.39938883318E+02 -0.10876220005E+03 -0.11004528221E+04  0.11065454506E+04  0.47000000000E+01 0. -1.
        -11    1    4    4    0    0  0.22685058163E+02 -0.68480192518E+02 -0.32852059620E+03  0.33634793111E+03  0.00000000000E+00 0.  1.
         12    1    4    4    0    0  0.19127649770E+02  0.20884011104E+02 -0.11870234723E+03  0.12203383196E+03  0.00000000000E+00 0. -1.
         -5    1    5    5    0  501  0.37023023534E+02 -0.10857917404E+02 -0.75610321641E+02  0.85015347912E+02  0.47000000000E+01 0.  1.
         11    1    6    6    0    0 -0.62631685070E+02  0.13090278918E+03 -0.51220346692E+03  0.53236327796E+03  0.00000000000E+00 0. -1.
        -12    1    6    6    0    0  0.23734836921E+02  0.36313509688E+02 -0.13206221460E+03  0.13900518693E+03  0.00000000000E+00 0.  1.
</event>
<event>
12    1  0.2685360E-002  0.1811860E+03  0.7818608E-02  0.1166660E+00
         -2   -1    0    0    0  501 -0.00000000000E+00  0.00000000000E+00  0.28091627206E+02  0.28091627206E+02  0.00000000000E+00 0.  1.
          2   -1    0    0  502    0  0.00000000000E+00 -0.00000000000E+00 -0.11883895837E+04  0.11883895837E+04  0.00000000000E+00 0. -1.
          6    2    1    2  502    0 -0.39633246867E+02  0.44218245467E+02 -0.65934749888E+03  0.68385214963E+03  0.17143100883E+03 0.  0.
         24    2    3    3    0    0 -0.92442652947E+01  0.79242192517E+02 -0.30131984827E+03  0.32280359934E+03  0.83926940068E+02 0.  0.
         -6    2    1    2    0  501  0.39633246867E+02 -0.44218245467E+02 -0.50095045764E+03  0.53262906129E+03  0.17092778721E+03 0.  0.
        -24    2    5    5    0    0  0.35633895372E+02  0.30168119177E+02 -0.17111888001E+03  0.19445708484E+03  0.79699415530E+02 0.  0.
          5    1    3    3  502    0 -0.30388981572E+02 -0.35023947050E+02 -0.35802765061E+03  0.36104855030E+03  0.47000000000E+01 0. -1.
        -11    1    4    4    0    0 -0.37583940746E+02  0.63134218315E+02 -0.13880704642E+03  0.15705374322E+03  0.00000000000E+00 0.  1.
         12    1    4    4    0    0  0.28339675452E+02  0.16107974202E+02 -0.16251280185E+03  0.16574985612E+03  0.00000000000E+00 0. -1.
         -5    1    5    5    0  501  0.39993514949E+01 -0.74386364644E+02 -0.32983157763E+03  0.33817197645E+03  0.47000000000E+01 0.  1.
         13    1    6    6    0    0  0.44603972966E+02  0.25881526591E+02 -0.17598735518E+03  0.18338734146E+03  0.00000000000E+00 0. -1.
        -14    1    6    6    0    0 -0.89700775943E+01  0.42865925866E+01  0.48684751743E+01  0.11069743383E+02  0.00000000000E+00 0.  1.
</event>
<event>
12    1  0.2685360E-002  0.2295067E+03  0.7818608E-02  0.1126987E+00
          2   -1    0    0  502    0  0.00000000000E+00  0.00000000000E+00  0.18963279089E+04  0.18963279089E+04  0.00000000000E+00 0.  1.
         -2   -1    0    0    0  501 -0.00000000000E+00 -0.00000000000E+00 -0.28746620786E+02  0.28746620786E+02  0.00000000000E+00 0. -1.
          6    2    1    2  502    0 -0.57836344883E+02  0.14131003256E+03  0.11135590286E+04  0.11371171248E+04  0.17236031242E+03 0.  0.
         24    2    3    3    0    0 -0.25146088624E+02  0.14067807526E+03  0.10699134021E+04  0.10823806385E+04  0.80065672585E+02 0.  0.
         -6    2    1    2    0  501  0.57836344883E+02 -0.14131003256E+03  0.75402225951E+03  0.78795740486E+03  0.17033418901E+03 0.  0.
        -24    2    5    5    0    0  0.31103993199E+02 -0.15924561487E+03  0.49139290846E+03  0.52332072983E+03  0.77916439432E+02 0.  0.
          5    1    3    3  502    0 -0.32690256259E+02  0.63195729182E+00  0.43645626480E+02  0.54736486324E+02  0.47000000000E+01 0. -1.
        -11    1    4    4    0    0 -0.42071014909E+02  0.13884618019E+03  0.99736285312E+03  0.10078595601E+04  0.00000000000E+00 0.  1.
         12    1    4    4    0    0  0.16924926285E+02  0.18318950749E+01  0.72550548997E+02  0.74521078422E+02  0.00000000000E+00 0. -1.
         -5    1    5    5    0  501  0.26732351684E+02  0.17935582312E+02  0.26262935105E+03  0.26463667503E+03  0.47000000000E+01 0.  1.
         13    1    6    6    0    0  0.50034380734E+02 -0.64313883523E+02  0.26081936851E+03  0.27325163835E+03  0.00000000000E+00 0. -1.
        -14    1    6    6    0    0 -0.18930387536E+02 -0.94931731345E+02  0.23057353995E+03  0.25006909148E+03  0.00000000000E+00 0.  1.
</event>
<event>
12    1  0.2685360E-002  0.2598536E+03  0.7818608E-02  0.1107231E+00
          1   -1    0    0  502    0  0.00000000000E+00  0.00000000000E+00  0.87067310739E+03  0.87067310739E+03  0.00000000000E+00 0. -1.
         -1   -1    0    0    0  501 -0.00000000000E+00 -0.00000000000E+00 -0.81259708844E+02  0.81259708844E+02  0.00000000000E+00 0.  1.
          6    2    1    2  502    0 -0.70066270642E+02 -0.19085032887E+03  0.28419162153E+03  0.38070706216E+03  0.15112861780E+03 0.  0.
         24    2    3    3    0    0 -0.99455135339E+02 -0.12750542940E+03  0.22670130099E+03  0.29013383977E+03  0.81456777733E+02 0.  0.
         -6    2    1    2    0  501  0.70066270642E+02  0.19085032887E+03  0.50522177702E+03  0.57122575408E+03  0.17238528891E+03 0.  0.
        -24    2    5    5    0    0 -0.72609047165E+01  0.15248564316E+03  0.26763324871E+03  0.31839826359E+03  0.80282665242E+02 0.  0.
          5    1    3    3  502    0  0.29388864698E+02 -0.63344899479E+02  0.57490320541E+02  0.90573222390E+02  0.47000000000E+01 0. -1.
        -11    1    4    4    0    0 -0.20608153776E+01 -0.64927928507E+02  0.73100075940E+02  0.97793169305E+02  0.00000000000E+00 0.  1.
         12    1    4    4    0    0 -0.97394319962E+02 -0.62577500888E+02  0.15360122505E+03  0.19234067047E+03  0.00000000000E+00 0. -1.
         -5    1    5    5    0  501  0.77327175358E+02  0.38364685714E+02  0.23758852831E+03  0.25282749048E+03  0.47000000000E+01 0.  1.
         13    1    6    6    0    0  0.29033567568E+02  0.87981477199E+02  0.10702168996E+03  0.14155327795E+03  0.00000000000E+00 0. -1.
        -14    1    6    6    0    0 -0.36294472284E+02  0.64504165961E+02  0.16061155875E+03  0.17684498565E+03  0.00000000000E+00 0.  1.
</event>
<event>
12    1  0.2685360E-002  0.1954447E+03  0.7818608E-02  0.1153640E+00
         -1   -1    0    0    0  501 -0.00000000000E+00  0.00000000000E+00  0.57849463945E+02  0.57849463945E+02  0.00000000000E+00 0.  1.
          1   -1    0    0  502    0  0.00000000000E+00 -0.00000000000E+00 -0.69617771221E+03  0.69617771221E+03  0.00000000000E+00 0. -1.
          6    2    1    2  502    0  0.86017234858E+02 -0.12279697862E+02 -0.40191047788E+03  0.44613980758E+03  0.17308651016E+03 0.  0.
         24    2    3    3    0    0  0.28905235638E+02 -0.39477454551E+02 -0.89239606849E+02  0.12709958751E+03  0.76135508473E+02 0.  0.
         -6    2    1    2    0  501 -0.86017234858E+02  0.12279697862E+02 -0.23641777038E+03  0.30788736858E+03  0.17706358718E+03 0.  0.
        -24    2    5    5    0    0 -0.82026705871E+02 -0.43685926658E+02 -0.21613821779E+03  0.24804235456E+03  0.78564876403E+02 0.  0.
          5    1    3    3  502    0  0.57111999220E+02  0.27197756689E+02 -0.31267087104E+03  0.31904022006E+03  0.47000000000E+01 0. -1.
        -13    1    4    4    0    0  0.54197622738E+02 -0.17418397455E+02 -0.57201220047E+02  0.80701688056E+02  0.00000000000E+00 0.  1.
         14    1    4    4    0    0 -0.25292387100E+02 -0.22059057096E+02 -0.32038386802E+02  0.46397899457E+02  0.00000000000E+00 0. -1.
         -5    1    5    5    0  501 -0.39905289868E+01  0.55965624521E+02 -0.20279552599E+02  0.59845014022E+02  0.47000000000E+01 0.  1.
         11    1    6    6    0    0 -0.25720064201E+02 -0.52633678038E+02 -0.14815737131E+03  0.15931865063E+03  0.00000000000E+00 0. -1.
        -12    1    6    6    0    0 -0.56306641671E+02  0.89477513794E+01 -0.67980846477E+02  0.88723703928E+02  0.00000000000E+00 0.  1.
</event>
<event>
12    1  0.2685360E-002  0.3430956E+03  0.7818608E-02  0.1065485E+00
          2   -1    0    0  502    0  0.00000000000E+00  0.00000000000E+00  0.45875217012E+03  0.45875217012E+03  0.00000000000E+00 0.  1.
         -2   -1    0    0    0  501 -0.00000000000E+00 -0.00000000000E+00 -0.35179831812E+03  0.35179831812E+03  0.00000000000E+00 0. -1.
          6    2    1    2  502    0 -0.26577331506E+03  0.12920227188E+03 -0.15715834398E+03  0.37884199096E+03  0.17746500212E+03 0.  0.
         24    2    3    3    0    0 -0.19834021164E+03  0.63914165324E+02 -0.36621471861E+02  0.22599897399E+03  0.79438932294E+02 0.  0.
         -6    2    1    2    0  501  0.26577331506E+03 -0.12920227188E+03  0.26411219599E+03  0.43170849728E+03  0.17113822630E+03 0.  0.
        -24    2    5    5    0    0  0.28491182529E+03 -0.12173571139E+03  0.24580493089E+03  0.40379294508E+03  0.81451499830E+02 0.  0.
          5    1    3    3  502    0 -0.67433103419E+02  0.65288106552E+02 -0.12053687212E+03  0.15284301697E+03  0.47000000000E+01 0. -1.
        -11    1    4    4    0    0  0.13438393679E+01  0.12678536686E+02 -0.13475924358E+02  0.18551327016E+02  0.00000000000E+00 0.  1.
         12    1    4    4    0    0 -0.19968405101E+03  0.51235628638E+02 -0.23145547503E+02  0.20744764698E+03  0.00000000000E+00 0. -1.
         -5    1    5    5    0  501 -0.19138510235E+02 -0.74665604879E+01  0.18307265094E+02  0.27915552203E+02  0.47000000000E+01 0.  1.
         13    1    6    6    0    0  0.11139722772E+03 -0.70726349225E+01  0.99255647799E+02  0.14936883252E+03  0.00000000000E+00 0. -1.
        -14    1    6    6    0    0  0.17351459757E+03 -0.11466307647E+03  0.14654928309E+03  0.25442411255E+03  0.00000000000E+00 0.  1.
</event>
<event>
12    1  0.2685360E-002  0.2197456E+03  0.7818608E-02  0.1134073E+00
         -2   -1    0    0    0  501 -0.00000000000E+00  0.00000000000E+00  0.67759309152E+02  0.67759309152E+02  0.00000000000E+00 0.  1.
          2   -1    0    0  502    0  0.00000000000E+00 -0.00000000000E+00 -0.10131661947E+04  0.10131661947E+04  0.00000000000E+00 0. -1.
          6    2    1    2  502    0 -0.65369559229E+02  0.11785864900E+03 -0.76536019202E+03  0.79597625458E+03  0.17215729409E+03 0.  0.
         24    2    3    3    0    0 -0.36320061706E+02  0.14123070831E+03 -0.70950536233E+03  0.72865628383E+03  0.79226642835E+02 0.  0.
         -6    2    1    2    0  501  0.65369559229E+02 -0.11785864900E+03 -0.18004669355E+03  0.28494924929E+03  0.17497263327E+03 0.  0.
        -24    2    5    5    0    0 -0.34306442449E+02 -0.54966182482E+02 -0.65315612864E+02  0.12040114529E+03  0.77666551957E+02 0.  0.
          5    1    3    3  502    0 -0.29049497523E+02 -0.23372059305E+02 -0.55854829684E+02  0.67319970748E+02  0.47000000000E+01 0. -1.
        -13    1    4    4    0    0 -0.51623678236E+02  0.67696967292E+02 -0.28083678930E+03  0.29345729801E+03  0.00000000000E+00 0.  1.
         14    1    4    4    0    0  0.15303616530E+02  0.73533741015E+02 -0.42866857304E+03  0.43519898582E+03  0.00000000000E+00 0. -1.
         -5    1    5    5    0  501  0.99676001678E+02 -0.62892466520E+02 -0.11473108068E+03  0.16454810400E+03  0.47000000000E+01 0.  1.
         11    1    6    6    0    0 -0.26211504813E+02 -0.68844759476E+02 -0.26322027191E+02  0.78227188415E+02  0.00000000000E+00 0. -1.
        -12    1    6    6    0    0 -0.80949376365E+01  0.13878576995E+02 -0.38993585673E+02  0.42173956874E+02  0.00000000000E+00 0.  1.
</event>
<event>
12    1  0.2685360E-002  0.1722825E+03  0.7818608E-02  0.1175488E+00
          2   -1    0    0  502    0  0.00000000000E+00  0.00000000000E+00  0.58460086677E+02  0.58460086677E+02  0.00000000000E+00 0.  1.
         -2   -1    0    0    0  501 -0.00000000000E+00 -0.00000000000E+00 -0.52218468378E+03  0.52218468378E+03  0.00000000000E+00 0. -1.
          6    2    1    2  502    0 -0.81783284823E+01 -0.11523612701E+02 -0.27943382183E+03  0.32797844917E+03  0.17113422694E+03 0.  0.
         24    2    3    3    0    0  0.33631898475E+02  0.18611056870E+02 -0.25612663734E+03  0.27122011730E+03  0.80511003208E+02 0.  0.
         -6    2    1    2    0  501  0.81783284823E+01  0.11523612701E+02 -0.18429077527E+03  0.25266632128E+03  0.17227159184E+03 0.  0.
        -24    2    5    5    0    0  0.21521301275E+02  0.62076530396E+02 -0.63067285096E+02  0.12056462947E+03  0.79004337822E+02 0.  0.
          5    1    3    3  502    0 -0.41810226957E+02 -0.30134669570E+02 -0.23307184486E+02  0.56758331873E+02  0.47000000000E+01 0. -1.
        -11    1    4    4    0    0  0.42624444661E+02 -0.60636822475E+01 -0.23063992944E+03  0.23462393011E+03  0.00000000000E+00 0.  1.
         12    1    4    4    0    0 -0.89925461861E+01  0.24674739117E+02 -0.25486707902E+02  0.36596187193E+02  0.00000000000E+00 0. -1.
         -5    1    5    5    0  501 -0.13342972792E+02 -0.50552917695E+02 -0.12122349017E+03  0.13210169181E+03  0.47000000000E+01 0.  1.
         11    1    6    6    0    0  0.57660366378E+01  0.71172357568E+02 -0.20526753764E+02  0.74297370615E+02  0.00000000000E+00 0. -1.
        -12    1    6    6    0    0  0.15755264637E+02 -0.90958271717E+01 -0.42540531332E+02  0.46267258852E+02  0.00000000000E+00 0.  1.
</event>
<event>
12    1  0.2685360E-002  0.1730207E+03  0.7818608E-02  0.1174734E+00
          2   -1    0    0  502    0  0.00000000000E+00  0.00000000000E+00  0.26518936864E+03  0.26518936864E+03  0.00000000000E+00 0.  1.
         -2   -1    0    0    0  501 -0.00000000000E+00 -0.00000000000E+00 -0.12315042850E+03  0.12315042850E+03  0.00000000000E+00 0. -1.
          6    2    1    2  502    0  0.90765342757E+01 -0.15225575246E+02  0.15180229122E+02  0.17425379953E+03  0.17268394737E+03 0.  0.
         24    2    3    3    0    0  0.12473672149E+02  0.29359798376E+02 -0.45085924728E+02  0.99064070269E+02  0.82239644650E+02 0.  0.
         -6    2    1    2    0  501 -0.90765342757E+01  0.15225575246E+02  0.12685871102E+03  0.21408599761E+03  0.17153856766E+03 0.  0.
        -24    2    5    5    0    0  0.34558689796E+02 -0.20783432415E+02  0.12918828035E+03  0.15726876162E+03  0.80109908854E+02 0.  0.
          5    1    3    3  502    0 -0.33971378731E+01 -0.44585373621E+02  0.60266153849E+02  0.75189729262E+02  0.47000000000E+01 0. -1.
        -11    1    4    4    0    0 -0.27036069496E+02  0.19967919256E+02  0.56442738548E+01  0.34081148463E+02  0.00000000000E+00 0.  1.
         12    1    4    4    0    0  0.39509741645E+02  0.93918791199E+01 -0.50730198583E+02  0.64982921806E+02  0.00000000000E+00 0. -1.
         -5    1    5    5    0  501 -0.43635224071E+02  0.36009007660E+02 -0.23295693351E+01  0.56817235992E+02  0.47000000000E+01 0.  1.
         11    1    6    6    0    0  0.28566003907E+02 -0.50689588724E+02  0.73159405066E+02  0.93475930238E+02  0.00000000000E+00 0. -1.
        -12    1    6    6    0    0  0.59926858889E+01  0.29906156310E+02  0.56028875288E+02  0.63792831380E+02  0.00000000000E+00 0.  1.
</event>
<event>
12    1  0.2685360E-002  0.2244286E+03  0.7818608E-02  0.1130624E+00
         -2   -1    0    0    0  501 -0.00000000000E+00  0.00000000000E+00  0.13406347914E+03  0.13406347914E+03  0.00000000000E+00 0. -1.
          2   -1    0    0  502    0  0.00000000000E+00 -0.00000000000E+00 -0.37801116084E+03  0.37801116084E+03  0.00000000000E+00 0.  1.
          6    2    1    2  502    0  0.13131157041E+03 -0.52146240029E+02 -0.10293732570E+03  0.24839579862E+03  0.17647215327E+03 0.  0.
         24    2    3    3    0    0  0.66123134072E+02 -0.15718715379E+02 -0.13131038285E+03  0.16837319459E+03  0.80546689191E+02 0.  0.
         -6    2    1    2    0  501 -0.13131157041E+03  0.52146240029E+02 -0.14101035600E+03  0.26367884135E+03  0.17228073603E+03 0.  0.
        -24    2    5    5    0    0 -0.12233677423E+02  0.31358221212E+02 -0.10684527229E+03  0.13797669631E+03  0.80552191853E+02 0.  0.
          5    1    3    3  502    0  0.65188436336E+02 -0.36427524650E+02  0.28373057155E+02  0.80022604034E+02  0.47000000000E+01 0. -1.
        -11    1    4    4    0    0  0.82523753804E+02 -0.48623095545E+00 -0.10955415173E+03  0.13715873477E+03  0.00000000000E+00 0.  1.
         12    1    4    4    0    0 -0.16400619732E+02 -0.15232484424E+02 -0.21756231118E+02  0.31214459819E+02  0.00000000000E+00 0. -1.
         -5    1    5    5    0  501 -0.11907789299E+03  0.20788018818E+02 -0.34165083703E+02  0.12570214504E+03  0.47000000000E+01 0.  1.
         11    1    6    6    0    0 -0.13030056276E+02 -0.18733817572E+02 -0.34439179755E+01  0.23078103440E+02  0.00000000000E+00 0. -1.
        -12    1    6    6    0    0  0.79637885289E+00  0.50092038783E+02 -0.10340135432E+03  0.11489859287E+03  0.00000000000E+00 0.  1.
</event>
<event>
12    1  0.2685360E-002  0.3501757E+03  0.7818608E-02  0.1062543E+00
          2   -1    0    0  502    0  0.00000000000E+00  0.00000000000E+00  0.10943002192E+04  0.10943002192E+04  0.00000000000E+00 0.  1.
         -2   -1    0    0    0  501 -0.00000000000E+00 -0.00000000000E+00 -0.11310112670E+03  0.11310112670E+03  0.00000000000E+00 0. -1.
          6    2    1    2  502    0  0.30097060484E+03 -0.48664211605E+02  0.54835990065E+03  0.65052793506E+03  0.17186187240E+03 0.  0.
         24    2    3    3    0    0  0.15735484172E+03 -0.87901638115E+02  0.26907962375E+03  0.33400838413E+03  0.81673205867E+02 0.  0.
         -6    2    1    2    0  501 -0.30097060484E+03  0.48664211605E+02  0.43283919187E+03  0.55687341086E+03  0.17264622565E+03 0.  0.
        -24    2    5    5    0    0 -0.19143022636E+03  0.68208890577E+02  0.19148275211E+03  0.29106124031E+03  0.82176742091E+02 0.  0.
          5    1    3    3  502    0  0.14361576312E+03  0.39237426511E+02  0.27928027690E+03  0.31651955093E+03  0.47000000000E+01 0. -1.
        -11    1    4    4    0    0  0.64030765324E+01 -0.33571014814E+02  0.73421250283E+02  0.80985754413E+02  0.00000000000E+00 0.  1.
         12    1    4    4    0    0  0.15095176519E+03 -0.54330623301E+02  0.19565837346E+03  0.25302262972E+03  0.00000000000E+00 0. -1.
         -5    1    5    5    0  501 -0.10954037848E+03 -0.19544678972E+02  0.24135643977E+03  0.26581217055E+03  0.47000000000E+01 0.  1.
         11    1    6    6    0    0 -0.99476973075E+01 -0.11523644182E+02 -0.32807679325E+00  0.15226906821E+02  0.00000000000E+00 0. -1.
        -12    1    6    6    0    0 -0.18148252905E+03  0.79732534759E+02  0.19181082890E+03  0.27583433349E+03  0.00000000000E+00 0.  1.
</event>
<event>
12    1  0.2685360E-002  0.2338301E+03  0.7818608E-02  0.1123973E+00
          2   -1    0    0  502    0  0.00000000000E+00  0.00000000000E+00  0.15922575776E+04  0.15922575776E+04  0.00000000000E+00 0. -1.
         -2   -1    0    0    0  501 -0.00000000000E+00 -0.00000000000E+00 -0.67428698888E+02  0.67428698888E+02  0.00000000000E+00 0.  1.
          6    2    1    2  502    0  0.14532562221E+03 -0.61223362705E+02  0.13444071442E+04  0.13646594720E+04  0.17319661812E+03 0.  0.
         24    2    3    3    0    0  0.61344775121E+02  0.10293912639E+02  0.74270971301E+03  0.75291655863E+03  0.10675429919E+03 0.  0.
         -6    2    1    2    0  501 -0.14532562221E+03  0.61223362705E+02  0.18042173448E+03  0.29502680446E+03  0.17210745616E+03 0.  0.
        -24    2    5    5    0    0 -0.12272681798E+03  0.15874443377E+02  0.19250445996E+03  0.24272658752E+03  0.80897214911E+02 0.  0.
          5    1    3    3  502    0  0.83980847089E+02 -0.71517275345E+02  0.60169743124E+03  0.61174291341E+03  0.47000000000E+01 0. -1.
        -11    1    4    4    0    0  0.41518302129E+02  0.23988631229E+01  0.72194166838E+03  0.72313850437E+03  0.00000000000E+00 0.  1.
         12    1    4    4    0    0  0.19826472992E+02  0.78950495165E+01  0.20768044628E+02  0.29778054265E+02  0.00000000000E+00 0. -1.
         -5    1    5    5    0  501 -0.22598804225E+02  0.45348919328E+02 -0.12082725479E+02  0.52300216937E+02  0.47000000000E+01 0.  1.
         11    1    6    6    0    0 -0.79813175165E+02 -0.27781328883E+02  0.90980847694E+02  0.12417511752E+03  0.00000000000E+00 0. -1.
        -12    1    6    6    0    0 -0.42913642820E+02  0.43655772260E+02  0.10152361227E+03  0.11855147000E+03  0.00000000000E+00 0.  1.
</event>
<event>
12    1  0.2685360E-002  0.2055140E+03  0.7818608E-02  0.1145168E+00
          2   -1    0    0  502    0  0.00000000000E+00  0.00000000000E+00  0.44521838787E+03  0.44521838787E+03  0.00000000000E+00 0.  1.
         -2   -1    0    0    0  501 -0.00000000000E+00 -0.00000000000E+00 -0.95583365288E+02  0.95583365288E+02  0.00000000000E+00 0. -1.
          6    2    1    2  502    0  0.21040721656E+02  0.11166103064E+03  0.15083667844E+03  0.25438423694E+03  0.17043690536E+03 0.  0.
         24    2    3    3    0    0  0.67164670367E+02  0.27813190917E+02  0.53025584666E+02  0.11746462938E+03  0.75508674936E+02 0.  0.
         -6    2    1    2    0  501 -0.21040721656E+02 -0.11166103064E+03  0.19879834414E+03  0.28641751622E+03  0.17205613686E+03 0.  0.
        -24    2    5    5    0    0 -0.37662623464E+02  0.46295737571E+01  0.78030813992E+02  0.11787470674E+03  0.79785540021E+02 0.  0.
          5    1    3    3  502    0 -0.46123948712E+02  0.83847839718E+02  0.97811093778E+02  0.13691960757E+03  0.47000000000E+01 0. -1.
        -13    1    4    4    0    0  0.38470041862E+02 -0.12489257020E+02  0.54619771975E+02  0.67965028893E+02  0.00000000000E+00 0.  1.
         14    1    4    4    0    0  0.28694628505E+02  0.40302447937E+02 -0.15941873091E+01  0.49499600483E+02  0.00000000000E+00 0. -1.
         -5    1    5    5    0  501  0.16621901809E+02 -0.11629060439E+03  0.12076753015E+03  0.16854280948E+03  0.47000000000E+01 0.  1.
         11    1    6    6    0    0 -0.53944821767E+02  0.36678943739E+00  0.20133664745E+02  0.57580750134E+02  0.00000000000E+00 0. -1.
        -12    1    6    6    0    0  0.16282198302E+02  0.42627843197E+01  0.57897149248E+02  0.60293956602E+02  0.00000000000E+00 0.  1.
</event>
<event>
12    1  0.2685360E-002  0.1834414E+03  0.7818608E-02  0.1164513E+00
         -2   -1    0    0    0  501 -0.00000000000E+00  0.00000000000E+00  0.94515124905E+03  0.94515124905E+03  0.00000000000E+00 0. -1.
          2   -1    0    0  502    0  0.00000000000E+00 -0.00000000000E+00 -0.42803954202E+02  0.42803954202E+02  0.00000000000E+00 0.  1.
          6    2    1    2  502    0  0.47288494998E+01  0.62973906058E+02  0.65286540651E+03  0.67802789670E+03  0.17175713906E+03 0.  0.
         24    2    3    3    0    0  0.41524994529E+02 -0.91577296285E+01  0.45579109801E+03  0.46491454135E+03  0.81190002772E+02 0.  0.
         -6    2    1    2    0  501 -0.47288494998E+01 -0.62973906058E+02  0.24948188833E+03  0.30992730655E+03  0.17270103613E+03 0.  0.
        -24    2    5    5    0    0 -0.31027841910E+02 -0.62195988135E+02  0.64385762857E+02  0.12291151090E+03  0.78298436375E+02 0.  0.
          5    1    3    3  502    0 -0.36796145030E+02  0.72131635686E+02  0.19707430850E+03  0.21311335535E+03  0.47000000000E+01 0. -1.
        -13    1    4    4    0    0  0.60933388295E+02 -0.43518753322E+01  0.22143135353E+03  0.22970341955E+03  0.00000000000E+00 0.  1.
         14    1    4    4    0    0 -0.19408393766E+02 -0.48058542963E+01  0.23435974448E+03  0.23521112179E+03  0.00000000000E+00 0. -1.
         -5    1    5    5    0  501  0.26298992411E+02 -0.77791792261E+00  0.18509612548E+03  0.18701579566E+03  0.47000000000E+01 0.  1.
         13    1    6    6    0    0 -0.37480602131E+02 -0.18303498893E+02  0.66497848763E+02  0.78496990376E+02  0.00000000000E+00 0. -1.
        -14    1    6    6    0    0  0.64527602210E+01 -0.43892489242E+02 -0.21120859064E+01  0.44414520522E+02  0.00000000000E+00 0.  1.
</event>
<event>
12    1  0.2685360E-002  0.2059660E+03  0.7818608E-02  0.1144801E+00
         -2   -1    0    0    0  501 -0.00000000000E+00  0.00000000000E+00  0.40529550028E+02  0.40529550028E+02  0.00000000000E+00 0.  1.
          2   -1    0    0  502    0  0.00000000000E+00 -0.00000000000E+00 -0.11118288879E+04  0.11118288879E+04  0.00000000000E+00 0. -1.
          6    2    1    2  502    0 -0.24030531970E+02 -0.11029838842E+03 -0.67526590265E+03  0.70599746474E+03  0.17235190738E+03 0.  0.
         24    2    3    3    0    0 -0.26550975011E+02 -0.50321817849E+02 -0.16533992893E+03  0.19252874093E+03  0.80577815562E+02 0.  0.
         -6    2    1    2    0  501  0.24030531970E+02  0.11029838842E+03 -0.39603343522E+03  0.44636097319E+03  0.17219882585E+03 0.  0.
        -24    2    5    5    0    0  0.71335861556E+02  0.72989468347E+02 -0.18496397222E+03  0.22681107468E+03  0.82554981352E+02 0.  0.
          5    1    3    3  502    0  0.25204430409E+01 -0.59976570566E+02 -0.50992597372E+03  0.51346872381E+03  0.47000000000E+01 0. -1.
        -13    1    4    4    0    0  0.27463999318E+02 -0.12587594127E+02 -0.73771743161E+02  0.79718184083E+02  0.00000000000E+00 0.  1.
         14    1    4    4    0    0 -0.54014974329E+02 -0.37734223723E+02 -0.91568185770E+02  0.11281055685E+03  0.00000000000E+00 0. -1.
         -5    1    5    5    0  501 -0.47305329585E+02  0.37308920069E+02 -0.21106946301E+03  0.21954989851E+03  0.47000000000E+01 0.  1.
         13    1    6    6    0    0  0.49066096945E+02  0.81512988713E+02 -0.17822863528E+03  0.20203290730E+03  0.00000000000E+00 0. -1.
        -14    1    6    6    0    0  0.22269764611E+02 -0.85235203660E+01 -0.67353369428E+01  0.24778167386E+02  0.00000000000E+00 0.  1.
</event>
<event>
12    1  0.2685360E-002  0.1740443E+03  0.7818608E-02  0.1173695E+00
          1   -1    0    0  502    0  0.00000000000E+00  0.00000000000E+00  0.46816956462E+02  0.46816956462E+02  0.00000000000E+00 0.  1.
         -1   -1    0    0    0  501 -0.00000000000E+00 -0.00000000000E+00 -0.12257694807E+04  0.12257694807E+04  0.00000000000E+00 0. -1.
          6    2    1    2  502    0 -0.46924225218E+01 -0.25600717344E+02 -0.15279380134E+03  0.23182274890E+03  0.17239032926E+03 0.  0.
         24    2    3    3    0    0  0.45690610181E+02 -0.16126104324E+02 -0.15446242115E+03  0.18031456927E+03  0.79416756691E+02 0.  0.
         -6    2    1    2    0  501  0.46924225218E+01  0.25600717344E+02 -0.10261587229E+04  0.10407636883E+04  0.17178450067E+03 0.  0.
        -24    2    5    5    0    0  0.11792573936E+02  0.82915102259E+02 -0.69818099684E+03  0.70770689182E+03  0.79864644220E+02 0.  0.
          5    1    3    3  502    0 -0.50383032703E+02 -0.94746130203E+01  0.16686198169E+01  0.51508179625E+02  0.47000000000E+01 0. -1.
        -13    1    4    4    0    0  0.32020929151E+02 -0.45098320955E+02 -0.12542026761E+03  0.13707458548E+03  0.00000000000E+00 0.  1.
         14    1    4    4    0    0  0.13669681030E+02  0.28972216631E+02 -0.29042153546E+02  0.43239983795E+02  0.00000000000E+00 0. -1.
         -5    1    5    5    0  501 -0.71001514139E+01 -0.57314384915E+02 -0.32797772609E+03  0.33305679648E+03  0.47000000000E+01 0.  1.
         11    1    6    6    0    0 -0.34301318924E+02  0.30595835405E+02 -0.28577356404E+03  0.28944639491E+03  0.00000000000E+00 0. -1.
        -12    1    6    6    0    0  0.46093892859E+02  0.52319266854E+02 -0.41240743281E+03  0.41826049691E+03  0.00000000000E+00 0.  1.
</event>
<event>
12    1  0.2685360E-002  0.1831026E+03  0.7818608E-02  0.1164834E+00
          2   -1    0    0  502    0  0.00000000000E+00  0.00000000000E+00  0.10624695035E+03  0.10624695035E+03  0.00000000000E+00 0. -1.
         -2   -1    0    0    0  501 -0.00000000000E+00 -0.00000000000E+00 -0.31935720761E+03  0.31935720761E+03  0.00000000000E+00 0.  1.
          6    2    1    2  502    0 -0.31126297332E+02 -0.55521085193E+02 -0.12962353247E+03  0.22412090544E+03  0.17139569073E+03 0.  0.
         24    2    3    3    0    0 -0.15780154715E+02 -0.58207274483E+02 -0.16080772375E+03  0.18894614898E+03  0.78768160525E+02 0.  0.
         -6    2    1    2    0  501  0.31126297332E+02  0.55521085193E+02 -0.83486724791E+02  0.20148325251E+03  0.17197101657E+03 0.  0.
        -24    2    5    5    0    0  0.79493224666E+02  0.61024873904E+02 -0.83207017230E+02  0.15257701992E+03  0.79455215615E+02 0.  0.
          5    1    3    3  502    0 -0.15346142617E+02  0.26861892903E+01  0.31184191281E+02  0.35174756459E+02  0.47000000000E+01 0. -1.
        -13    1    4    4    0    0 -0.18695811138E+02 -0.21844593481E+01 -0.11497377367E+03  0.11650439412E+03  0.00000000000E+00 0.  1.
         14    1    4    4    0    0  0.29156564234E+01 -0.56022815135E+02 -0.45833950077E+02  0.72441754863E+02  0.00000000000E+00 0. -1.
         -5    1    5    5    0  501 -0.48366927334E+02 -0.55037887112E+01 -0.27970756124E+00  0.48906232591E+02  0.47000000000E+01 0.  1.
         11    1    6    6    0    0  0.48163187539E+02  0.53281358551E+02 -0.99281975055E+01  0.72506309441E+02  0.00000000000E+00 0. -1.
        -12    1    6    6    0    0  0.31330037126E+02  0.77435153530E+01 -0.73278819724E+02  0.80070710478E+02  0.00000000000E+00 0.  1.
</event>
<event>
12    1  0.2685360E-002  0.2349730E+03  0.7818608E-02  0.1123188E+00
          3   -1    0    0  502    0  0.00000000000E+00  0.00000000000E+00  0.48432019234E+02  0.48432019234E+02  0.00000000000E+00 0.  1.
         -3   -1    0    0    0  501 -0.00000000000E+00 -0.00000000000E+00 -0.12928911976E+04  0.12928911976E+04  0.00000000000E+00 0. -1.
          6    2    1    2  502    0 -0.15132762880E+03  0.51605619067E+02 -0.85392298790E+03  0.88578307796E+03  0.17281203887E+03 0.  0.
         24    2    3    3    0    0 -0.58505580605E+01  0.39147830012E+02 -0.31377239591E+03  0.32622653332E+03  0.80024077525E+02 0.  0.
         -6    2    1    2    0  501  0.15132762880E+03 -0.51605619067E+02 -0.39053619045E+03  0.45554013885E+03  0.17156663691E+03 0.  0.
        -24    2    5    5    0    0  0.17429910105E+03 -0.28763877919E+02 -0.25779211102E+03  0.31881956871E+03  0.63099980927E+02 0.  0.
          5    1    3    3  502    0 -0.14547707074E+03  0.12457789055E+02 -0.54015059199E+03  0.55955654464E+03  0.47000000000E+01 0. -1.
        -13    1    4    4    0    0  0.12366231442E+02  0.21418786450E+02 -0.21266808945E+02  0.32618480280E+02  0.00000000000E+00 0.  1.
         14    1    4    4    0    0 -0.18216789502E+02  0.17729043562E+02 -0.29250558697E+03  0.29360805304E+03  0.00000000000E+00 0. -1.
         -5    1    5    5    0  501 -0.22971472247E+02 -0.22841741148E+02 -0.13274407943E+03  0.13672057014E+03  0.47000000000E+01 0.  1.
         13    1    6    6    0    0  0.12827969495E+03 -0.17919688921E+02 -0.23003475492E+03  0.26399390875E+03  0.00000000000E+00 0. -1.
        -14    1    6    6    0    0  0.46019406097E+02 -0.10844188998E+02 -0.27757356096E+02  0.54825659960E+02  0.00000000000E+00 0.  1.
</event>
<event>
12    1  0.2685360E-002  0.1970368E+03  0.7818608E-02  0.1152263E+00
         -1   -1    0    0    0  501 -0.00000000000E+00  0.00000000000E+00  0.31761764582E+03  0.31761764582E+03  0.00000000000E+00 0. -1.
          1   -1    0    0  502    0  0.00000000000E+00 -0.00000000000E+00 -0.38338973063E+03  0.38338973063E+03  0.00000000000E+00 0.  1.
          6    2    1    2  502    0  0.37892549400E+02 -0.89233534056E+02 -0.32223381054E+03  0.37839169018E+03  0.17305251700E+03 0.  0.
         24    2    3    3    0    0  0.61067125994E+02 -0.25455664728E+02 -0.27965838227E+03  0.29814560175E+03  0.79402797945E+02 0.  0.
         -6    2    1    2    0  501 -0.37892549400E+02  0.89233534056E+02  0.25646172573E+03  0.32261568628E+03  0.17002880746E+03 0.  0.
        -24    2    5    5    0    0 -0.88415011927E+02  0.80346450438E+02  0.17871442144E+03  0.22935136942E+03  0.79940226362E+02 0.  0.
          5    1    3    3  502    0 -0.23174576593E+02 -0.63777869328E+02 -0.42575428263E+02  0.80246088428E+02  0.47000000000E+01 0. -1.
        -13    1    4    4    0    0 -0.12406429668E+01 -0.22608531330E+02 -0.17355508383E+02  0.28528907359E+02  0.00000000000E+00 0.  1.
         14    1    4    4    0    0  0.62307768960E+02 -0.28471333977E+01 -0.26230287389E+03  0.26961669439E+03  0.00000000000E+00 0. -1.
         -5    1    5    5    0  501  0.50522462526E+02  0.88870836179E+01  0.77747304290E+02  0.93264316860E+02  0.47000000000E+01 0.  1.
         11    1    6    6    0    0 -0.55161910253E+02  0.34252279962E+02  0.15446523827E+03  0.16755764638E+03  0.00000000000E+00 0. -1.
        -12    1    6    6    0    0 -0.33253101673E+02  0.46094170476E+02  0.24249183169E+02  0.61793723040E+02  0.00000000000E+00 0.  1.
</event>
<event>
12    1  0.2685360E-002  0.2416562E+03  0.7818608E-02  0.1118694E+00
         -2   -1    0    0    0  501 -0.00000000000E+00  0.00000000000E+00  0.49591112349E+02  0.49591112349E+02  0.00000000000E+00 0. -1.
          2   -1    0    0  502    0  0.00000000000E+00 -0.00000000000E+00 -0.22313710076E+04  0.22313710076E+04  0.00000000000E+00 0.  1.
          6    2    1    2  502    0 -0.74489665293E+02 -0.14971111310E+03 -0.30577686410E+03  0.38938535847E+03  0.17366444412E+03 0.  0.
         24    2    3    3    0    0 -0.78944156811E+02 -0.16769082429E+03 -0.20658789199E+03  0.28837221725E+03  0.78278899611E+02 0.  0.
         -6    2    1    2    0  501  0.74489665293E+02  0.14971111310E+03 -0.18760030311E+04  0.18915767614E+04  0.17525165924E+03 0.  0.
        -24    2    5    5    0    0 -0.94087232470E+01  0.73013407151E+02 -0.12973899039E+04  0.13018847073E+04  0.79143835827E+02 0.  0.
          5    1    3    3  502    0  0.44544915177E+01  0.17979711189E+02 -0.99188972117E+02  0.10101314122E+03  0.47000000000E+01 0. -1.
        -13    1    4    4    0    0 -0.85018126875E+02 -0.12726615679E+03 -0.19068161482E+03  0.24450814872E+03  0.00000000000E+00 0.  1.
         14    1    4    4    0    0  0.60739700645E+01 -0.40424667501E+02 -0.15906277163E+02  0.43864068531E+02  0.00000000000E+00 0. -1.
         -5    1    5    5    0  501  0.83898388540E+02  0.76697705946E+02 -0.57861312723E+03  0.58969205413E+03  0.47000000000E+01 0.  1.
         11    1    6    6    0    0  0.16381160511E+02 -0.33969009317E+01 -0.53099265821E+03  0.53125613825E+03  0.00000000000E+00 0. -1.
        -12    1    6    6    0    0 -0.25789883758E+02  0.76410308083E+02 -0.76639724567E+03  0.77062856907E+03  0.00000000000E+00 0.  1.
</event>
<event>
12    1  0.2685360E-002  0.3407270E+03  0.7818608E-02  0.1066487E+00
          2   -1    0    0  502    0  0.00000000000E+00  0.00000000000E+00  0.31077936304E+03  0.31077936304E+03  0.00000000000E+00 0.  1.
         -2   -1    0    0    0  501 -0.00000000000E+00 -0.00000000000E+00 -0.44219364271E+03  0.44219364271E+03  0.00000000000E+00 0. -1.
          6    2    1    2  502    0 -0.15755637921E+03 -0.24878694119E+03 -0.21405083185E+03  0.40248922453E+03  0.17164166892E+03 0.  0.
         24    2    3    3    0    0 -0.27817998241E+02 -0.88474483097E+02 -0.13420003937E+03  0.18128712061E+03  0.79080935426E+02 0.  0.
         -6    2    1    2    0  501  0.15755637921E+03  0.24878694119E+03  0.82636552179E+02  0.35048378123E+03  0.17114650569E+03 0.  0.
        -24    2    5    5    0    0  0.84728247221E+02  0.50323908671E+02  0.10875550731E+02  0.12718298988E+03  0.79660929261E+02 0.  0.
          5    1    3    3  502    0 -0.12973838097E+03 -0.16031245810E+03 -0.79850792475E+02  0.22120210391E+03  0.47000000000E+01 0. -1.
        -13    1    4    4    0    0 -0.13490274802E+02 -0.44412164112E+02 -0.83263111648E+01  0.47156709946E+02  0.00000000000E+00 0.  1.
         14    1    4    4    0    0 -0.14327723440E+02 -0.44062318985E+02 -0.12587372821E+03  0.13413041067E+03  0.00000000000E+00 0. -1.
         -5    1    5    5    0  501  0.72828131989E+02  0.19846303252E+03  0.71761001448E+02  0.22330079135E+03  0.47000000000E+01 0.  1.
         11    1    6    6    0    0  0.10385833703E+02  0.13149264482E+02  0.36534479573E+02  0.40193741998E+02  0.00000000000E+00 0. -1.
        -12    1    6    6    0    0  0.74342413517E+02  0.37174644189E+02 -0.25658928842E+02  0.86989247885E+02  0.00000000000E+00 0.  1.
</event>
<event>
12    1  0.2685360E-002  0.1819588E+03  0.7818608E-02  0.1165921E+00
          1   -1    0    0  502    0  0.00000000000E+00  0.00000000000E+00  0.28960334884E+03  0.28960334884E+03  0.00000000000E+00 0.  1.
         -1   -1    0    0    0  501 -0.00000000000E+00 -0.00000000000E+00 -0.12981122574E+03  0.12981122574E+03  0.00000000000E+00 0. -1.
          6    2    1    2  502    0 -0.43155560253E+02 -0.41760167040E+02  0.76402037028E+01  0.18256808139E+03  0.17223941969E+03 0.  0.
         24    2    3    3    0    0  0.19062190967E+02 -0.69783131741E+01  0.55493764963E+02  0.96586227193E+02  0.76402076898E+02 0.  0.
         -6    2    1    2    0  501  0.43155560253E+02  0.41760167040E+02  0.15215191940E+03  0.23684649319E+03  0.17128847255E+03 0.  0.
        -24    2    5    5    0    0  0.46139327577E+02 -0.39074357974E+02  0.10183891622E+03  0.14147033479E+03  0.77376015463E+02 0.  0.
          5    1    3    3  502    0 -0.62217751219E+02 -0.34781853866E+02 -0.47853561260E+02  0.85981854193E+02  0.47000000000E+01 0. -1.
        -13    1    4    4    0    0  0.19057367512E+02 -0.39067959828E+00 -0.15940868277E+02  0.24848484229E+02  0.00000000000E+00 0.  1.
         14    1    4    4    0    0  0.48234546041E-02 -0.65876335758E+01  0.71434633240E+02  0.71737742964E+02  0.00000000000E+00 0. -1.
         -5    1    5    5    0  501 -0.29837673247E+01  0.80834525014E+02  0.50313003177E+02  0.95376158396E+02  0.47000000000E+01 0.  1.
         13    1    6    6    0    0  0.12388158760E+02  0.11277046859E+02 -0.59736241164E+01  0.17785456092E+02  0.00000000000E+00 0. -1.
        -14    1    6    6    0    0  0.33751168818E+02 -0.50351404832E+02  0.10781254034E+03  0.12368487870E+03  0.00000000000E+00 0.  1.
</event>
<event>
12    1  0.2685360E-002  0.2104054E+03  0.7818608E-02  0.1141245E+00
          2   -1    0    0  502    0  0.00000000000E+00  0.00000000000E+00  0.30979129399E+03  0.30979129399E+03  0.00000000000E+00 0.  1.
         -2   -1    0    0    0  501 -0.00000000000E+00 -0.00000000000E+00 -0.14373436135E+03  0.14373436135E+03  0.00000000000E+00 0. -1.
          6    2    1    2  502    0 -0.84091249463E+01 -0.12222349204E+03  0.66433378164E+02  0.22203157873E+03  0.17284482297E+03 0.  0.
         24    2    3    3    0    0 -0.72947877342E+02 -0.73825228581E+02  0.37547665490E+02  0.13621714601E+03  0.79835621738E+02 0.  0.
         -6    2    1    2    0  501  0.84091249463E+01  0.12222349204E+03  0.99623554476E+02  0.23149407660E+03  0.16927893994E+03 0.  0.
        -24    2    5    5    0    0 -0.17576480622E+02  0.11994436921E+03  0.18435051695E+02  0.14608852010E+03  0.79412972486E+02 0.  0.
          5    1    3    3  502    0  0.64538752396E+02 -0.48398263461E+02  0.28885712673E+02  0.85814432723E+02  0.47000000000E+01 0. -1.
        -13    1    4    4    0    0 -0.34895240060E+02 -0.32350304732E+02  0.59161884681E+02  0.75923307318E+02  0.00000000000E+00 0.  1.
         14    1    4    4    0    0 -0.38052637283E+02 -0.41474923849E+02 -0.21614219191E+02  0.60293838688E+02  0.00000000000E+00 0. -1.
         -5    1    5    5    0  501  0.25985605568E+02  0.22791228363E+01  0.81188502782E+02  0.85405556503E+02  0.47000000000E+01 0.  1.
         13    1    6    6    0    0  0.14987487222E+02  0.10514459496E+03  0.80509164567E+00  0.10621044579E+03  0.00000000000E+00 0. -1.
        -14    1    6    6    0    0 -0.32563967843E+02  0.14799774247E+02  0.17629960049E+02  0.39878074312E+02  0.00000000000E+00 0.  1.
</event>
<event>
12    1  0.2685360E-002  0.1885591E+03  0.7818608E-02  0.1159767E+00
          2   -1    0    0  502    0  0.00000000000E+00  0.00000000000E+00  0.19756423599E+04  0.19756423599E+04  0.00000000000E+00 0. -1.
         -2   -1    0    0    0  501 -0.00000000000E+00 -0.00000000000E+00 -0.18011132757E+02  0.18011132757E+02  0.00000000000E+00 0.  1.
          6    2    1    2  502    0  0.47984698276E+02  0.45277120953E+02  0.98123946954E+03  0.99852433957E+03  0.17282190592E+03 0.  0.
         24    2    3    3    0    0  0.84880421485E+02  0.73292432538E+02  0.76791496482E+03  0.78017694117E+03  0.80038738797E+02 0.  0.
         -6    2    1    2    0  501 -0.47984698276E+02 -0.45277120953E+02  0.97639175758E+03  0.99512915307E+03  0.18052317876E+03 0.  0.
        -24    2    5    5    0    0  0.25774920486E+02 -0.34449227828E+02  0.79366282339E+03  0.79772176208E+03  0.67883993933E+02 0.  0.
          5    1    3    3  502    0 -0.36895723209E+02 -0.28015311584E+02  0.21332450472E+03  0.21834739840E+03  0.47000000000E+01 0. -1.
        -11    1    4    4    0    0  0.14359570078E+02 -0.16899984208E+02  0.92069830751E+02  0.94703011851E+02  0.00000000000E+00 0.  1.
         12    1    4    4    0    0  0.70520851407E+02  0.90192416745E+02  0.67584513407E+03  0.68547392932E+03  0.00000000000E+00 0. -1.
         -5    1    5    5    0  501 -0.73759618762E+02 -0.10827893125E+02  0.18272893419E+03  0.19740739099E+03  0.47000000000E+01 0.  1.
         13    1    6    6    0    0 -0.18052038654E+02  0.20310062036E+01  0.34067270160E+03  0.34115669523E+03  0.00000000000E+00 0. -1.
        -14    1    6    6    0    0  0.43826959140E+02 -0.36480234032E+02  0.45299012179E+03  0.45656506685E+03  0.00000000000E+00 0.  1.
</event>
<event>
12    1  0.2685360E-002  0.2923194E+03  0.7818608E-02  0.1089144E+00
         -2   -1    0    0    0  501 -0.00000000000E+00  0.00000000000E+00  0.54680732187E+02  0.54680732187E+02  0.00000000000E+00 0.  1.
          2   -1    0    0  502    0  0.00000000000E+00 -0.00000000000E+00 -0.16195482133E+04  0.16195482133E+04  0.00000000000E+00 0. -1.
          6    2    1    2  502    0  0.18528223785E+02  0.23581119410E+03 -0.93887341462E+03  0.98328556664E+03  0.17151385528E+03 0.  0.
         24    2    3    3    0    0 -0.17076959115E+02  0.39394680458E+02 -0.37598352261E+03  0.38602992924E+03  0.76236038828E+02 0.  0.
         -6    2    1    2    0  501 -0.18528223785E+02 -0.23581119410E+03 -0.62599406645E+03  0.69094337880E+03  0.17199990446E+03 0.  0.
        -24    2    5    5    0    0 -0.23391977580E+02 -0.98373496474E+02 -0.44491072992E+03  0.46350978058E+03  0.81677595900E+02 0.  0.
          5    1    3    3  502    0  0.35605182900E+02  0.19641651364E+03 -0.56288989201E+03  0.59725563740E+03  0.47000000000E+01 0. -1.
        -11    1    4    4    0    0  0.62463562277E+00  0.10043085498E+02 -0.17300577949E+01  0.10210133983E+02  0.00000000000E+00 0.  1.
         12    1    4    4    0    0 -0.17701594738E+02  0.29351594960E+02 -0.37425346481E+03  0.37581979526E+03  0.00000000000E+00 0. -1.
         -5    1    5    5    0  501  0.48637537944E+01 -0.13743769763E+03 -0.18108333653E+03  0.22743359822E+03  0.47000000000E+01 0.  1.
         11    1    6    6    0    0 -0.17357902853E+02 -0.86173009419E+02 -0.20298240611E+03  0.22119887326E+03  0.00000000000E+00 0. -1.
        -12    1    6    6    0    0 -0.60340747266E+01 -0.12200487056E+02 -0.24192832381E+03  0.24231090731E+03  0.00000000000E+00 0.  1.
</event>
<event>
12    1  0.2685360E-002  0.1812577E+03  0.7818608E-02  0.1166591E+00
          2   -1    0    0  502    0  0.00000000000E+00  0.00000000000E+00  0.21704660676E+03  0.21704660676E+03  0.00000000000E+00 0.  1.
         -2   -1    0    0    0  501 -0.00000000000E+00 -0.00000000000E+00 -0.15287599324E+03  0.15287599324E+03  0.00000000000E+00 0. -1.
          6    2    1    2  502    0 -0.59964589795E+01  0.49758860432E+02  0.49991421166E+02  0.18615010894E+03  0.17216509274E+03 0.  0.
         24    2    3    3    0    0  0.15317368725E+02  0.29280552965E+01  0.89504118208E+02  0.12110591790E+03  0.80077842635E+02 0.  0.
         -6    2    1    2    0  501  0.59964589795E+01 -0.49758860432E+02  0.14179192355E+02  0.18377249105E+03  0.17623670804E+03 0.  0.
        -24    2    5    5    0    0 -0.39770697697E+02 -0.59059041732E+01  0.55649180503E+02  0.10788069756E+03  0.83215536500E+02 0.  0.
          5    1    3    3  502    0 -0.21313827705E+02  0.46830805135E+02 -0.39512697042E+02  0.65044191044E+02  0.47000000000E+01 0. -1.
        -11    1    4    4    0    0 -0.26437473306E+02  0.13606709377E+02  0.65120935395E+02  0.71587839481E+02  0.00000000000E+00 0.  1.
         12    1    4    4    0    0  0.41754842031E+02 -0.10678654081E+02  0.24383182814E+02  0.49518078417E+02  0.00000000000E+00 0. -1.
         -5    1    5    5    0  501  0.45767156677E+02 -0.43852956259E+02 -0.41469988147E+02  0.75891793495E+02  0.47000000000E+01 0.  1.
         13    1    6    6    0    0 -0.48164886030E+02  0.14664213915E+02  0.26547918505E+01  0.50417688719E+02  0.00000000000E+00 0. -1.
        -14    1    6    6    0    0  0.83941883328E+01 -0.20570118088E+02  0.52994388652E+02  0.57463008836E+02  0.00000000000E+00 0.  1.
</event>
<event>
12    1  0.2685360E-002  0.1847807E+03  0.7818608E-02  0.1163255E+00
          2   -1    0    0  502    0  0.00000000000E+00  0.00000000000E+00  0.66829530402E+02  0.66829530402E+02  0.00000000000E+00 0.  1.
         -2   -1    0    0    0  501 -0.00000000000E+00 -0.00000000000E+00 -0.51183837223E+03  0.51183837223E+03  0.00000000000E+00 0. -1.
          6    2    1    2  502    0  0.53311574689E+02 -0.44171596162E+02 -0.23461007840E+03  0.29853211651E+03  0.17113235169E+03 0.  0.
         24    2    3    3    0    0 -0.37106212723E+02 -0.17612977110E+02 -0.11608311196E+03  0.14703469639E+03  0.80354371854E+02 0.  0.
         -6    2    1    2    0  501 -0.53311574689E+02  0.44171596162E+02 -0.21039876343E+03  0.28013578613E+03  0.17150849867E+03 0.  0.
        -24    2    5    5    0    0  0.34609724629E+02  0.80815329449E+01 -0.75549537577E+02  0.11509321208E+03  0.79218499258E+02 0.  0.
          5    1    3    3  502    0  0.90417787413E+02 -0.26558619052E+02 -0.11852696645E+03  0.15149742011E+03  0.47000000000E+01 0. -1.
        -11    1    4    4    0    0  0.18861089625E+02  0.10455278030E+02 -0.57018518750E+02  0.60960356142E+02  0.00000000000E+00 0.  1.
         12    1    4    4    0    0 -0.55967302348E+02 -0.28068255141E+02 -0.59064593206E+02  0.86074340250E+02  0.00000000000E+00 0. -1.
         -5    1    5    5    0  501 -0.87921299318E+02  0.36090063217E+02 -0.13484922585E+03  0.16504257405E+03  0.47000000000E+01 0.  1.
         13    1    6    6    0    0  0.92920849749E+01  0.31136430157E+02 -0.73996027758E+02  0.80816039559E+02  0.00000000000E+00 0. -1.
        -14    1    6    6    0    0  0.25317639654E+02 -0.23054897212E+02 -0.15535098193E+01  0.34277172519E+02  0.00000000000E+00 0.  1.
</event>
<event>
12    1  0.2685360E-002  0.1903115E+03  0.7818608E-02  0.1158181E+00
         -2   -1    0    0    0  501 -0.00000000000E+00  0.00000000000E+00  0.52326989843E+02  0.52326989843E+02  0.00000000000E+00 0.  1.
          2   -1    0    0  502    0  0.00000000000E+00 -0.00000000000E+00 -0.77312956999E+03  0.77312956999E+03  0.00000000000E+00 0. -1.
          6    2    1    2  502    0 -0.63653961495E+02  0.34780606524E+02 -0.23213448672E+03  0.30212230598E+03  0.17924829271E+03 0.  0.
         24    2    3    3    0    0 -0.34043385113E+02 -0.24478506124E+02 -0.48215412182E+02  0.10658012473E+03  0.85302096601E+02 0.  0.
         -6    2    1    2    0  501  0.63653961495E+02 -0.34780606524E+02 -0.48866809342E+03  0.52333425385E+03  0.17268676360E+03 0.  0.
        -24    2    5    5    0    0  0.36433717679E+02  0.37705637496E+02 -0.16552250090E+03  0.19100856840E+03  0.79608065011E+02 0.  0.
          5    1    3    3  502    0 -0.29610576383E+02  0.59259112648E+02 -0.18391907454E+03  0.19554218125E+03  0.47000000000E+01 0. -1.
        -11    1    4    4    0    0 -0.56451140022E+02 -0.20422480337E+02 -0.56412071796E+02  0.82377974952E+02  0.00000000000E+00 0.  1.
         12    1    4    4    0    0  0.22407754909E+02 -0.40560257869E+01  0.81966596145E+01  0.24202149782E+02  0.00000000000E+00 0. -1.
         -5    1    5    5    0  501  0.27220243816E+02 -0.72486244021E+02 -0.32314559252E+03  0.33232568545E+03  0.47000000000E+01 0.  1.
         11    1    6    6    0    0 -0.10787968012E+02  0.12653501986E+02 -0.11896258249E+03  0.12011905510E+03  0.00000000000E+00 0. -1.
        -12    1    6    6    0    0  0.47221685691E+02  0.25052135510E+02 -0.46559918415E+02  0.70889513300E+02  0.00000000000E+00 0.  1.
</event>
<event>
12    1  0.2685360E-002  0.2678728E+03  0.7818608E-02  0.1102503E+00
          1   -1    0    0  502    0  0.00000000000E+00  0.00000000000E+00  0.66122769329E+03  0.66122769329E+03  0.00000000000E+00 0.  1.
         -1   -1    0    0    0  501 -0.00000000000E+00 -0.00000000000E+00 -0.12741353204E+03  0.12741353204E+03  0.00000000000E+00 0. -1.
          6    2    1    2  502    0 -0.13076285447E+02 -0.20609132422E+03  0.11480537555E+03  0.29116253853E+03  0.17014912997E+03 0.  0.
         24    2    3    3    0    0 -0.18293632510E+02 -0.13642631997E+03  0.31685353535E+01  0.15938504570E+03  0.80291689521E+02 0.  0.
         -6    2    1    2    0  501  0.13076285447E+02  0.20609132422E+03  0.41900878570E+03  0.49747868680E+03  0.17109078927E+03 0.  0.
        -24    2    5    5    0    0 -0.32984436268E+02  0.19529027854E+03  0.28959623643E+03  0.35960936251E+03  0.78909109253E+02 0.  0.
          5    1    3    3  502    0  0.52173470633E+01 -0.69665004247E+02  0.11163684020E+03  0.13177749283E+03  0.47000000000E+01 0. -1.
        -13    1    4    4    0    0 -0.88726950222E+01 -0.50867606991E+02  0.40439455837E+02  0.65586490578E+02  0.00000000000E+00 0.  1.
         14    1    4    4    0    0 -0.94209374880E+01 -0.85558712978E+02 -0.37270920483E+02  0.93798555124E+02  0.00000000000E+00 0. -1.
         -5    1    5    5    0  501  0.46060721715E+02  0.10801045677E+02  0.12941254927E+03  0.13786932429E+03  0.47000000000E+01 0.  1.
         13    1    6    6    0    0 -0.29511286792E+02  0.62271771364E+02  0.48621314710E+02  0.84336953947E+02  0.00000000000E+00 0. -1.
        -14    1    6    6    0    0 -0.34731494759E+01  0.13301850718E+03  0.24097492172E+03  0.27527240857E+03  0.00000000000E+00 0.  1.
</event>
<event>
12    1  0.2685360E-002  0.1993048E+03  0.7818608E-02  0.1150327E+00
          1   -1    0    0  502    0  0.00000000000E+00  0.00000000000E+00  0.19592383591E+04  0.19592383591E+04  0.00000000000E+00 0. -1.
         -1   -1    0    0    0  501 -0.00000000000E+00 -0.00000000000E+00 -0.36796332257E+02  0.36796332257E+02  0.00000000000E+00 0.  1.
          6    2    1    2  502    0 -0.59670241501E+02 -0.86420316392E+02  0.28177572292E+03  0.34280025916E+03  0.16457658049E+03 0.  0.
         24    2    3    3    0    0  0.79285149149E+01 -0.95089612398E+02  0.14577604199E+03  0.19060711944E+03  0.77301512470E+02 0.  0.
         -6    2    1    2    0  501  0.59670241501E+02  0.86420316392E+02  0.16406663039E+04  0.16532344322E+04  0.17426749029E+03 0.  0.
        -24    2    5    5    0    0  0.54739113985E+02  0.19396596279E+02  0.45082689963E+03  0.46148932812E+03  0.79717676810E+02 0.  0.
          5    1    3    3  502    0 -0.67598756416E+02  0.86692960063E+01  0.13599968094E+03  0.15219313972E+03  0.47000000000E+01 0. -1.
        -13    1    4    4    0    0  0.45945444553E+01 -0.80323082327E+01 -0.90557728410E+01  0.12947387228E+02  0.00000000000E+00 0.  1.
         14    1    4    4    0    0  0.33339704597E+01 -0.87057304166E+02  0.15483181483E+03  0.17765973221E+03  0.00000000000E+00 0. -1.
         -5    1    5    5    0  501  0.49311275158E+01  0.67023720113E+02  0.11898394043E+04  0.11917451041E+04  0.47000000000E+01 0.  1.
         13    1    6    6    0    0  0.71868237885E+02  0.25814428805E+01  0.28494803722E+03  0.29388278510E+03  0.00000000000E+00 0. -1.
        -14    1    6    6    0    0 -0.17129123900E+02  0.16815153399E+02  0.16587886241E+03  0.16760654302E+03  0.00000000000E+00 0.  1.
</event>
<event>
12    1  0.2685360E-002  0.2035325E+03  0.7818608E-02  0.1146792E+00
          2   -1    0    0  502    0  0.00000000000E+00  0.00000000000E+00  0.40807720315E+03  0.40807720315E+03  0.00000000000E+00 0. -1.
         -2   -1    0    0    0  501 -0.00000000000E+00 -0.00000000000E+00 -0.13458760611E+03  0.13458760611E+03  0.00000000000E+00 0.  1.
          6    2    1    2  502    0  0.73211486918E+01 -0.10906454283E+03  0.22442856237E+01  0.20355543518E+03  0.17170062508E+03 0.  0.
         24    2    3    3    0    0  0.41786597419E+02 -0.11183127339E+03 -0.38632007149E+02  0.14981082369E+03  0.81844349148E+02 0.  0.
         -6    2    1    2    0  501 -0.73211486918E+01  0.10906454283E+03  0.27124531142E+03  0.33910937408E+03  0.17167549301E+03 0.  0.
        -24    2    5    5    0    0 -0.49812928385E+02  0.12631213107E+03  0.21706775672E+03  0.26797339110E+03  0.79090107104E+02 0.  0.
          5    1    3    3  502    0 -0.34465448727E+02  0.27667305518E+01  0.40876292772E+02  0.53744611495E+02  0.47000000000E+01 0. -1.
        -13    1    4    4    0    0 -0.23296213807E+02 -0.22393805735E+02  0.95753932874E+00  0.32328207414E+02  0.00000000000E+00 0.  1.
         14    1    4    4    0    0  0.65082811226E+02 -0.89437467650E+02 -0.39589546477E+02  0.11748261628E+03  0.00000000000E+00 0. -1.
         -5    1    5    5    0  501  0.42491779693E+02 -0.17247588234E+02  0.54177554698E+02  0.71135982979E+02  0.47000000000E+01 0.  1.
         13    1    6    6    0    0  0.99028433092E+00  0.94785933478E+02  0.15576845481E+03  0.18234353666E+03  0.00000000000E+00 0. -1.
        -14    1    6    6    0    0 -0.50803212716E+02  0.31526197590E+02  0.61299301909E+02  0.85629854439E+02  0.00000000000E+00 0.  1.
</event>
<event>
12    1  0.2685360E-002  0.1803883E+03  0.7818608E-02  0.1167428E+00
         -2   -1    0    0    0  501 -0.00000000000E+00  0.00000000000E+00  0.39414862262E+02  0.39414862262E+02  0.00000000000E+00 0. -1.
          2   -1    0    0  502    0  0.00000000000E+00 -0.00000000000E+00 -0.31983696777E+04  0.31983696777E+04  0.00000000000E+00 0.  1.
          6    2    1    2  502    0 -0.47465931729E+02  0.22253837226E+02 -0.18425819793E+03  0.25760113819E+03  0.17221792864E+03 0.  0.
         24    2    3    3    0    0 -0.90378535250E+02  0.34958080582E+02 -0.16566149355E+03  0.20891010458E+03  0.82518811898E+02 0.  0.
         -6    2    1    2    0  501  0.47465931729E+02 -0.22253837226E+02 -0.29746966175E+04  0.29801834018E+04  0.17298813272E+03 0.  0.
        -24    2    5    5    0    0  0.64900389521E+02 -0.15541207679E+00 -0.28607409382E+04  0.28627087766E+04  0.83968681372E+02 0.  0.
          5    1    3    3  502    0  0.42912603522E+02 -0.12704243357E+02 -0.18596704383E+02  0.48691033612E+02  0.47000000000E+01 0. -1.
        -13    1    4    4    0    0 -0.30252592464E+02 -0.59854358701E+01 -0.11795377580E+03  0.12191857126E+03  0.00000000000E+00 0.  1.
         14    1    4    4    0    0 -0.60125942786E+02  0.40943516453E+02 -0.47707717752E+02  0.86991533315E+02  0.00000000000E+00 0. -1.
         -5    1    5    5    0  501 -0.17434457792E+02 -0.22098425149E+02 -0.11395567935E+03  0.11747462522E+03  0.47000000000E+01 0.  1.
         13    1    6    6    0    0  0.43693038665E+02  0.82815307785E+01 -0.53184835466E+03  0.53370435424E+03  0.00000000000E+00 0. -1.
        -14    1    6    6    0    0  0.21207350856E+02 -0.84369428553E+01 -0.23288925835E+04  0.23290044223E+04  0.00000000000E+00 0.  1.
</event>
<event>
12    1  0.2685360E-002  0.1753745E+03  0.7818608E-02  0.1172356E+00
         -1   -1    0    0    0  501 -0.00000000000E+00  0.00000000000E+00  0.16950348577E+02  0.16950348577E+02  0.00000000000E+00 0.  1.
          1   -1    0    0  502    0  0.00000000000E+00 -0.00000000000E+00 -0.18560665216E+04  0.18560665216E+04  0.00000000000E+00 0. -1.
          6    2    1    2  502    0  0.21503715366E+02  0.33401494490E+02 -0.78687739866E+03  0.80649516464E+03  0.17227983181E+03 0.  0.
         24    2    3    3    0    0 -0.14263822971E+02  0.35454325823E+02 -0.20869612551E+03  0.22718591602E+03  0.81233624612E+02 0.  0.
         -6    2    1    2    0  501 -0.21503715366E+02 -0.33401494490E+02 -0.10522387744E+04  0.10665217056E+04  0.16936363397E+03 0.  0.
        -24    2    5    5    0    0  0.37773631751E+02 -0.55978795058E+02 -0.51095897746E+03  0.52151762581E+03  0.79630927649E+02 0.  0.
          5    1    3    3  502    0  0.35767538336E+02 -0.20528313332E+01 -0.57818127315E+03  0.57930924862E+03  0.47000000000E+01 0. -1.
        -11    1    4    4    0    0 -0.48200592475E+02  0.22965373105E+02 -0.13212876720E+03  0.14250865447E+03  0.00000000000E+00 0.  1.
         12    1    4    4    0    0  0.33936769505E+02  0.12488952718E+02 -0.76567358314E+02  0.84677261549E+02  0.00000000000E+00 0. -1.
         -5    1    5    5    0  501 -0.59277347116E+02  0.22577300568E+02 -0.54127979694E+03  0.54500407976E+03  0.47000000000E+01 0.  1.
         11    1    6    6    0    0  0.11979919014E+02 -0.16896752653E+02 -0.40668324954E+03  0.40721036844E+03  0.00000000000E+00 0. -1.
        -12    1    6    6    0    0  0.25793712737E+02 -0.39082042405E+02 -0.10427572792E+03  0.11430725737E+03  0.00000000000E+00 0.  1.
</event>
<event>
12    1  0.2685360E-002  0.1928354E+03  0.7818608E-02  0.1155929E+00
         -2   -1    0    0    0  501 -0.00000000000E+00  0.00000000000E+00  0.25391278072E+02  0.25391278072E+02  0.00000000000E+00 0.  1.
          2   -1    0    0  502    0  0.00000000000E+00 -0.00000000000E+00 -0.14764629127E+04  0.14764629127E+04  0.00000000000E+00 0. -1.
          6    2    1    2  502    0  0.31818245438E+02  0.81197681821E+02 -0.79147019648E+03  0.81451913439E+03  0.17149601775E+03 0.  0.
         24    2    3    3    0    0  0.53966864520E+01 -0.20592556078E+02 -0.43789567048E+03  0.44560669661E+03  0.79746675512E+02 0.  0.
         -6    2    1    2    0  501 -0.31818245438E+02 -0.81197681821E+02 -0.65960143813E+03  0.68733505635E+03  0.17248176205E+03 0.  0.
        -24    2    5    5    0    0 -0.38653225668E+02  0.95817804009E+01 -0.20967272109E+03  0.22826472608E+03  0.80970691221E+02 0.  0.
          5    1    3    3  502    0  0.26421558986E+02  0.10179023790E+03 -0.35357452600E+03  0.36891243778E+03  0.47000000000E+01 0. -1.
        -13    1    4    4    0    0 -0.13020916868E+02 -0.38018796184E+02 -0.11696759553E+03  0.12367858159E+03  0.00000000000E+00 0.  1.
         14    1    4    4    0    0  0.18417603320E+02  0.17426240106E+02 -0.32092807494E+03  0.32192811502E+03  0.00000000000E+00 0. -1.
         -5    1    5    5    0  501  0.68349802308E+01 -0.90779462222E+02 -0.44992871704E+03  0.45907033027E+03  0.47000000000E+01 0.  1.
         11    1    6    6    0    0 -0.20764959376E+02 -0.31739571890E+02 -0.14202126558E+03  0.14699872054E+03  0.00000000000E+00 0. -1.
        -12    1    6    6    0    0 -0.17888266293E+02  0.41321352290E+02 -0.67651455502E+02  0.81266005547E+02  0.00000000000E+00 0.  1.
</event>
<event>
12    1  0.2685360E-002  0.3021070E+03  0.7818608E-02  0.1084192E+00
         -1   -1    0    0    0  501 -0.00000000000E+00  0.00000000000E+00  0.27481297361E+03  0.27481297361E+03  0.00000000000E+00 0. -1.
          1   -1    0    0  502    0  0.00000000000E+00 -0.00000000000E+00 -0.39942552688E+03  0.39942552688E+03  0.00000000000E+00 0.  1.
          6    2    1    2  502    0 -0.40618323155E+02 -0.24297516521E+03 -0.20059186403E+03  0.36211889208E+03  0.17379935845E+03 0.  0.
         24    2    3    3    0    0 -0.91080376444E+02 -0.16612755895E+03 -0.16654789778E+03  0.26397076398E+03  0.77771210395E+02 0.  0.
         -6    2    1    2    0  501  0.40618323155E+02  0.24297516521E+03  0.75979310759E+02  0.31211960841E+03  0.17595174112E+03 0.  0.
        -24    2    5    5    0    0  0.14340250567E+02  0.20279007795E+03 -0.37624081872E+01  0.21891976894E+03  0.81131073043E+02 0.  0.
          5    1    3    3  502    0  0.50462053289E+02 -0.76847606260E+02 -0.34043966250E+02  0.98148128093E+02  0.47000000000E+01 0. -1.
        -11    1    4    4    0    0 -0.47680562078E+02 -0.13997270284E+03 -0.93095092683E+02  0.17473548530E+03  0.00000000000E+00 0.  1.
         12    1    4    4    0    0 -0.43399814367E+02 -0.26154856109E+02 -0.73452805097E+02  0.89235278684E+02  0.00000000000E+00 0. -1.
         -5    1    5    5    0  501  0.26278072588E+02  0.40185087258E+02  0.79741718947E+02  0.93199839471E+02  0.47000000000E+01 0.  1.
         13    1    6    6    0    0 -0.42214233418E+01  0.15642286099E+03  0.29060279998E+02  0.15915536978E+03  0.00000000000E+00 0. -1.
        -14    1    6    6    0    0  0.18561673909E+02  0.46367216964E+02 -0.32822688185E+02  0.59764399160E+02  0.00000000000E+00 0.  1.
</event>
<event>
12    1  0.2685360E-002  0.2034684E+03  0.7818608E-02  0.1146845E+00
          2   -1    0    0  502    0  0.00000000000E+00  0.00000000000E+00  0.25658509909E+04  0.25658509909E+04  0.00000000000E+00 0. -1.
         -2   -1    0    0    0  501 -0.00000000000E+00 -0.00000000000E+00 -0.16864032775E+02  0.16864032775E+02  0.00000000000E+00 0.  1.
          6    2    1    2  502    0 -0.10374883913E+03 -0.30234277737E+02  0.10050316212E+04  0.10253903120E+04  0.17221730196E+03 0.  0.
         24    2    3    3    0    0 -0.10592626628E+03 -0.75213526361E+02  0.66087050538E+03  0.67826376784E+03  0.80090358014E+02 0.  0.
         -6    2    1    2    0  501  0.10374883913E+03  0.30234277737E+02  0.15439553369E+04  0.15573247117E+04  0.17258111746E+03 0.  0.
        -24    2    5    5    0    0  0.56404210413E+02 -0.48212689319E+02  0.99316126292E+03  0.99894165101E+03  0.77519220878E+02 0.  0.
          5    1    3    3  502    0  0.21774271508E+01  0.44979248624E+02  0.34416111584E+03  0.34712654415E+03  0.47000000000E+01 0. -1.
        -11    1    4    4    0    0  0.86890761444E+01 -0.26334684882E+02  0.10513031405E+03  0.10872625536E+03  0.00000000000E+00 0.  1.
         12    1    4    4    0    0 -0.11461534242E+03 -0.48878841479E+02  0.55574019133E+03  0.56953751248E+03  0.00000000000E+00 0. -1.
         -5    1    5    5    0  501  0.47344628715E+02  0.78446967056E+02  0.55079407400E+03  0.55838306068E+03  0.47000000000E+01 0.  1.
         13    1    6    6    0    0  0.11305472803E+01 -0.29683206128E+02  0.66356311893E+03  0.66422765952E+03  0.00000000000E+00 0. -1.
        -14    1    6    6    0    0  0.55273663132E+02 -0.18529483191E+02  0.32959814399E+03  0.33471399149E+03  0.00000000000E+00 0.  1.
</event>
<event>
12    1  0.2685360E-002  0.1848378E+03  0.7818608E-02  0.1163201E+00
         -4   -1    0    0    0  501 -0.00000000000E+00  0.00000000000E+00  0.16835006226E+03  0.16835006226E+03  0.00000000000E+00 0. -1.
          4   -1    0    0  502    0  0.00000000000E+00 -0.00000000000E+00 -0.22323853848E+03  0.22323853848E+03  0.00000000000E+00 0.  1.
          6    2    1    2  502    0 -0.16508153021E+02  0.65316095961E+02  0.31539138645E+02  0.18790986394E+03  0.17255923097E+03 0.  0.
         24    2    3    3    0    0 -0.70454174027E+02  0.24493645113E+02 -0.72281947712E+01  0.10979685724E+03  0.80245708743E+02 0.  0.
         -6    2    1    2    0  501  0.16508153021E+02 -0.65316095961E+02 -0.86427614868E+02  0.20367873680E+03  0.17168745936E+03 0.  0.
        -24    2    5    5    0    0  0.32310176148E+02 -0.10804009333E+03 -0.68695329859E+02  0.15457102032E+03  0.80352614938E+02 0.  0.
          5    1    3    3  502    0  0.53946021005E+02  0.40822450848E+02  0.38767333416E+02  0.78113006700E+02  0.47000000000E+01 0. -1.
        -11    1    4    4    0    0 -0.32861934684E+02  0.48892548645E+02 -0.21580948152E+02  0.62738547858E+02  0.00000000000E+00 0.  1.
         12    1    4    4    0    0 -0.37592239343E+02 -0.24398903532E+02  0.14352753381E+02  0.47058309383E+02  0.00000000000E+00 0. -1.
         -5    1    5    5    0  501 -0.15802023127E+02  0.42723997370E+02 -0.17732285009E+02  0.49107716480E+02  0.47000000000E+01 0.  1.
         13    1    6    6    0    0  0.27578785897E+02 -0.81715616798E+02 -0.60512161063E+01  0.86456050550E+02  0.00000000000E+00 0. -1.
        -14    1    6    6    0    0  0.47313902508E+01 -0.26324476533E+02 -0.62644113753E+02  0.68114969766E+02  0.00000000000E+00 0.  1.
</event>
<event>
12    1  0.2685360E-002  0.1806116E+03  0.7818608E-02  0.1167212E+00
         -3   -1    0    0    0  501 -0.00000000000E+00  0.00000000000E+00  0.11605788258E+03  0.11605788258E+03  0.00000000000E+00 0.  1.
          3   -1    0    0  502    0  0.00000000000E+00 -0.00000000000E+00 -0.35147082200E+03  0.35147082200E+03  0.00000000000E+00 0. -1.
          6    2    1    2  502    0  0.53544250959E+02  0.12119340151E+02 -0.12642814490E+02  0.18019723884E+03  0.17116465438E+03 0.  0.
         24    2    3    3    0    0  0.21515752865E+02 -0.74459808253E+01  0.58284301004E+02  0.99814577850E+02  0.77765801970E+02 0.  0.
         -6    2    1    2    0  501 -0.53544250959E+02 -0.12119340151E+02 -0.22277012492E+03  0.28733146574E+03  0.17297103061E+03 0.  0.
        -24    2    5    5    0    0 -0.89528582549E+01  0.28267436753E+02 -0.20745386726E+03  0.22507263664E+03  0.82105925929E+02 0.  0.
          5    1    3    3  502    0  0.32028498094E+02  0.19565320976E+02 -0.70927115494E+02  0.80382660987E+02  0.47000000000E+01 0. -1.
        -13    1    4    4    0    0  0.17961649041E+02  0.15256716346E+02 -0.11587328823E+02  0.26261272231E+02  0.00000000000E+00 0.  1.
         14    1    4    4    0    0  0.35541038243E+01 -0.22702697172E+02  0.69871629826E+02  0.73553305619E+02  0.00000000000E+00 0. -1.
         -5    1    5    5    0  501 -0.44591392704E+02 -0.40386776904E+02 -0.15316257663E+02  0.62258829099E+02  0.47000000000E+01 0.  1.
         11    1    6    6    0    0  0.32410613794E+02  0.19001178173E+02 -0.53390604033E+02  0.65284372230E+02  0.00000000000E+00 0. -1.
        -12    1    6    6    0    0 -0.41363472048E+02  0.92662585801E+01 -0.15406326323E+03  0.15978826441E+03  0.00000000000E+00 0.  1.
</event>
<event>
12    1  0.2685360E-002  0.2192230E+03  0.7818608E-02  0.1134464E+00
         -2   -1    0    0    0  501 -0.00000000000E+00  0.00000000000E+00  0.55994995407E+02  0.55994995407E+02  0.00000000000E+00 0.  1.
          2   -1    0    0  502    0  0.00000000000E+00 -0.00000000000E+00 -0.99761342835E+03  0.99761342835E+03  0.00000000000E+00 0. -1.
          6    2    1    2  502    0 -0.53040951335E+02  0.12131035777E+03 -0.66673592720E+03  0.70169041228E+03  0.17407783501E+03 0.  0.
         24    2    3    3    0    0 -0.87760115962E+02  0.43728391512E+02 -0.28711650945E+03  0.31264366160E+03  0.75472902162E+02 0.  0.
         -6    2    1    2    0  501  0.53040951335E+02 -0.12131035777E+03 -0.27488250573E+03  0.35191801147E+03  0.17537488252E+03 0.  0.
        -24    2    5    5    0    0  0.12679465833E+01 -0.13104341993E+03 -0.24136984479E+03  0.28930519359E+03  0.90907136489E+02 0.  0.
          5    1    3    3  502    0  0.34719164627E+02  0.77581966256E+02 -0.37961941775E+03  0.38904675068E+03  0.47000000000E+01 0. -1.
        -13    1    4    4    0    0 -0.97498470777E+02  0.35053759168E+02 -0.27814178374E+03  0.29681234762E+03  0.00000000000E+00 0.  1.
         14    1    4    4    0    0  0.97383548145E+01  0.86746323434E+01 -0.89747257083E+01  0.15831313980E+02  0.00000000000E+00 0. -1.
         -5    1    5    5    0  501  0.51773004752E+02  0.97330621653E+01 -0.33512660943E+02  0.62612817886E+02  0.47000000000E+01 0.  1.
         13    1    6    6    0    0  0.16603407862E+02  0.28535290487E+01 -0.66082423144E+02  0.68196058752E+02  0.00000000000E+00 0. -1.
        -14    1    6    6    0    0 -0.15335461278E+02 -0.13389694898E+03 -0.17528742165E+03  0.22110913483E+03  0.00000000000E+00 0.  1.
</event>
<event>
12    1  0.2685360E-002  0.2071108E+03  0.7818608E-02  0.1143875E+00
          1   -1    0    0  502    0  0.00000000000E+00  0.00000000000E+00  0.64038035575E+03  0.64038035575E+03  0.00000000000E+00 0. -1.
         -1   -1    0    0    0  501 -0.00000000000E+00 -0.00000000000E+00 -0.91137774817E+02  0.91137774817E+02  0.00000000000E+00 0.  1.
          6    2    1    2  502    0  0.11129465567E+03 -0.28432664515E+02  0.46369465661E+03  0.50817418024E+03  0.17330131591E+03 0.  0.
         24    2    3    3    0    0  0.11928181836E+03  0.24812864143E+02  0.39470541223E+03  0.42053579292E+03  0.78829945263E+02 0.  0.
         -6    2    1    2    0  501 -0.11129465567E+03  0.28432664515E+02  0.85547924319E+02  0.22334395033E+03  0.17137431547E+03 0.  0.
        -24    2    5    5    0    0 -0.14098945830E+03  0.26407994536E+02  0.97203547192E+02  0.19103568302E+03  0.80440618290E+02 0.  0.
          5    1    3    3  502    0 -0.79871626922E+01 -0.53245528658E+02  0.68989244388E+02  0.87638387315E+02  0.47000000000E+01 0. -1.
        -13    1    4    4    0    0  0.47160146939E+02 -0.19308525504E+02  0.81507527391E+02  0.96126872610E+02  0.00000000000E+00 0.  1.
         14    1    4    4    0    0  0.72121671420E+02  0.44121389647E+02  0.31319788483E+03  0.32440892031E+03  0.00000000000E+00 0. -1.
         -5    1    5    5    0  501  0.29694802636E+02  0.20246699790E+01 -0.11655622874E+02  0.32308267312E+02  0.47000000000E+01 0.  1.
         13    1    6    6    0    0 -0.76832836078E+02 -0.22807270067E+02  0.67861252312E+02  0.10501716923E+03  0.00000000000E+00 0. -1.
        -14    1    6    6    0    0 -0.64156622226E+02  0.49215264603E+02  0.29342294880E+02  0.86018513787E+02  0.00000000000E+00 0.  1.
</event>
<event>
12    1  0.2685360E-002  0.1725669E+03  0.7818608E-02  0.1175197E+00
          2   -1    0    0  502    0  0.00000000000E+00  0.00000000000E+00  0.36062676829E+03  0.36062676829E+03  0.00000000000E+00 0. -1.
         -2   -1    0    0    0  501 -0.00000000000E+00 -0.00000000000E+00 -0.84420253089E+02  0.84420253089E+02  0.00000000000E+00 0.  1.
          6    2    1    2  502    0  0.48859578252E+01  0.71452991799E+00  0.10525924061E+03  0.20217992357E+03  0.17254805309E+03 0.  0.
         24    2    3    3    0    0 -0.14993100016E+02 -0.21300288398E+02 -0.98465370379E+01  0.83220858288E+02  0.78423603772E+02 0.  0.
         -6    2    1    2    0  501 -0.48859578252E+01 -0.71452991799E+00  0.17094727459E+03  0.24286709780E+03  0.17244440660E+03 0.  0.
        -24    2    5    5    0    0  0.22051621417E+02 -0.63135487455E+02  0.97840729421E+02  0.14292378356E+03  0.79887644790E+02 0.  0.
          5    1    3    3  502    0  0.19879057841E+02  0.22014818316E+02  0.11510577765E+03  0.11895906529E+03  0.47000000000E+01 0. -1.
        -11    1    4    4    0    0 -0.37879000258E+02 -0.23445323169E+01 -0.29089747057E+02  0.47817662806E+02  0.00000000000E+00 0.  1.
         12    1    4    4    0    0  0.22885900242E+02 -0.18955756082E+02  0.19243210019E+02  0.35403195482E+02  0.00000000000E+00 0. -1.
         -5    1    5    5    0  501 -0.26937579242E+02  0.62420957537E+02  0.73106545168E+02  0.99943314242E+02  0.47000000000E+01 0.  1.
         13    1    6    6    0    0  0.29205759715E+02 -0.10585653120E+02  0.81825293902E+02  0.87523774911E+02  0.00000000000E+00 0. -1.
        -14    1    6    6    0    0 -0.71541382976E+01 -0.52549834335E+02  0.16015435519E+02  0.55400008648E+02  0.00000000000E+00 0.  1.
</event>
<event>
12    1  0.2685360E-002  0.2626296E+03  0.7818608E-02  0.1105574E+00
         -1   -1    0    0    0  501 -0.00000000000E+00  0.00000000000E+00  0.38437126089E+03  0.38437126089E+03  0.00000000000E+00 0. -1.
          1   -1    0    0  502    0  0.00000000000E+00 -0.00000000000E+00 -0.21539136487E+03  0.21539136487E+03  0.00000000000E+00 0.  1.
          6    2    1    2  502    0  0.57903145598E+02  0.19097785660E+03  0.20720206607E+03  0.33514566129E+03  0.17194360154E+03 0.  0.
         24    2    3    3    0    0  0.45636948687E+01  0.18734715442E+03  0.19059413989E+03  0.27896566294E+03  0.79849429277E+02 0.  0.
         -6    2    1    2    0  501 -0.57903145598E+02 -0.19097785660E+03 -0.38222170045E+02  0.26461696447E+03  0.16951662933E+03 0.  0.
        -24    2    5    5    0    0  0.21509581109E+02 -0.12390437916E+03 -0.55366015533E+02  0.15915970310E+03  0.80320969605E+02 0.  0.
          5    1    3    3  502    0  0.53339450729E+02  0.36307021836E+01  0.16607926179E+02  0.56179998348E+02  0.47000000000E+01 0. -1.
        -11    1    4    4    0    0  0.15170939051E+02  0.14681437570E+01  0.49009415731E+01  0.16010373702E+02  0.00000000000E+00 0.  1.
         12    1    4    4    0    0 -0.10607244182E+02  0.18587901066E+03  0.18569319832E+03  0.26295528924E+03  0.00000000000E+00 0. -1.
         -5    1    5    5    0  501 -0.79412726707E+02 -0.67073477441E+02  0.17143845488E+02  0.10545726138E+03  0.47000000000E+01 0.  1.
         11    1    6    6    0    0  0.34811512583E+02 -0.54807554277E+02  0.67777191401E+01  0.65281290512E+02  0.00000000000E+00 0. -1.
        -12    1    6    6    0    0 -0.13301931474E+02 -0.69096824886E+02 -0.62143734673E+02  0.93878412584E+02  0.00000000000E+00 0.  1.
</event>
<event>
12    1  0.2685360E-002  0.1754114E+03  0.7818608E-02  0.1172319E+00
         -2   -1    0    0    0  501 -0.00000000000E+00  0.00000000000E+00  0.21356522270E+02  0.21356522270E+02  0.00000000000E+00 0.  1.
          2   -1    0    0  502    0  0.00000000000E+00 -0.00000000000E+00 -0.17038157440E+04  0.17038157440E+04  0.00000000000E+00 0. -1.
          6    2    1    2  502    0  0.37337091428E+02  0.62041072423E+01 -0.50081021129E+03  0.53052107780E+03  0.17090698325E+03 0.  0.
         24    2    3    3    0    0 -0.37336348318E+02 -0.21182161688E+02 -0.19687377429E+03  0.21631481106E+03  0.78677363958E+02 0.  0.
         -6    2    1    2    0  501 -0.37337091428E+02 -0.62041072423E+01 -0.11816490105E+04  0.11946511885E+04  0.17165234889E+03 0.  0.
        -24    2    5    5    0    0  0.26957674484E+02 -0.40218390323E+02 -0.45603414745E+03  0.46538456522E+03  0.79192264616E+02 0.  0.
          5    1    3    3  502    0  0.74673439747E+02  0.27386268930E+02 -0.30393643699E+03  0.31420626674E+03  0.47000000000E+01 0. -1.
        -11    1    4    4    0    0 -0.21046174503E+02 -0.17128248381E+02 -0.10357667568E+02  0.29044786645E+02  0.00000000000E+00 0.  1.
         12    1    4    4    0    0 -0.16290173815E+02 -0.40539133074E+01 -0.18651610673E+03  0.18727002441E+03  0.00000000000E+00 0. -1.
         -5    1    5    5    0  501 -0.64294765912E+02  0.34014283081E+02 -0.72561486304E+03  0.72926662329E+03  0.47000000000E+01 0.  1.
         13    1    6    6    0    0 -0.26789281874E+02 -0.24880301990E+02 -0.20093392158E+03  0.20423304310E+03  0.00000000000E+00 0. -1.
        -14    1    6    6    0    0  0.53746956358E+02 -0.15338088334E+02 -0.25510022586E+03  0.26115152212E+03  0.00000000000E+00 0.  1.
</event>
<event>
12    1  0.2685360E-002  0.1757635E+03  0.7818608E-02  0.1171967E+00
          2   -1    0    0  502    0  0.00000000000E+00  0.00000000000E+00  0.53785255527E+03  0.53785255527E+03  0.00000000000E+00 0. -1.
         -2   -1    0    0    0  501 -0.00000000000E+00 -0.00000000000E+00 -0.10614458909E+03  0.10614458909E+03  0.00000000000E+00 0.  1.
          6    2    1    2  502    0  0.27954810724E+02  0.23190624339E+02  0.43422323538E+03  0.46858668048E+03  0.17234959379E+03 0.  0.
         24    2    3    3    0    0 -0.43828182961E+02  0.18150629302E+01  0.31198680452E+03  0.32515185961E+03  0.80397521967E+02 0.  0.
         -6    2    1    2    0  501 -0.27954810724E+02 -0.23190624339E+02 -0.25152692008E+01  0.17541046388E+03  0.17159029040E+03 0.  0.
        -24    2    5    5    0    0  0.19771779743E+02  0.27106742672E+02 -0.40419958152E+02  0.96249185403E+02  0.80650070683E+02 0.  0.
          5    1    3    3  502    0  0.71782993686E+02  0.21375561409E+02  0.12223643086E+03  0.14343482087E+03  0.47000000000E+01 0. -1.
        -11    1    4    4    0    0 -0.43621002575E+02  0.36384992068E+02  0.18306003887E+03  0.19167064810E+03  0.00000000000E+00 0.  1.
         12    1    4    4    0    0 -0.20718038637E+00 -0.34569929138E+02  0.12892676565E+03  0.13348121151E+03  0.00000000000E+00 0. -1.
         -5    1    5    5    0  501 -0.47726590468E+02 -0.50297367011E+02  0.37904688951E+02  0.79161278479E+02  0.47000000000E+01 0.  1.
         13    1    6    6    0    0  0.40213763781E+02 -0.12890936619E+02 -0.22862866269E+02  0.48021179686E+02  0.00000000000E+00 0. -1.
        -14    1    6    6    0    0 -0.20441984038E+02  0.39997679291E+02 -0.17557091883E+02  0.48228005717E+02  0.00000000000E+00 0.  1.
</event>
<event>
12    1  0.2685360E-002  0.2945986E+03  0.7818608E-02  0.1087972E+00
          2   -1    0    0  502    0  0.00000000000E+00  0.00000000000E+00  0.35914231705E+04  0.35914231705E+04  0.00000000000E+00 0. -1.
         -2   -1    0    0    0  501 -0.00000000000E+00 -0.00000000000E+00 -0.34782993168E+02  0.34782993168E+02  0.00000000000E+00 0.  1.
          6    2    1    2  502    0 -0.31863860108E+02  0.23757190559E+03  0.77587536035E+03  0.82986181370E+03  0.17097467392E+03 0.  0.
         24    2    3    3    0    0  0.35959778480E+02  0.19538864748E+03  0.53777886071E+03  0.57868158685E+03  0.78717512031E+02 0.  0.
         -6    2    1    2    0  501  0.31863860108E+02 -0.23757190559E+03  0.27807648170E+04  0.27963443500E+04  0.17156060262E+03 0.  0.
        -24    2    5    5    0    0 -0.92936429275E+01 -0.10940436470E+03  0.19518322316E+04  0.19565395037E+04  0.79637194256E+02 0.  0.
          5    1    3    3  502    0 -0.67823638588E+02  0.42183258111E+02  0.23809649965E+03  0.25118022685E+03  0.47000000000E+01 0. -1.
        -13    1    4    4    0    0 -0.21039050207E+02  0.68898125867E+02  0.14083524428E+03  0.15819026333E+03  0.00000000000E+00 0.  1.
         14    1    4    4    0    0  0.56998828687E+02  0.12649052161E+03  0.39694361643E+03  0.42049132351E+03  0.00000000000E+00 0. -1.
         -5    1    5    5    0  501  0.41157503036E+02 -0.12816754089E+03  0.82893258543E+03  0.83980484625E+03  0.47000000000E+01 0.  1.
         11    1    6    6    0    0  0.96660439109E+01 -0.11451342876E+03  0.15682665727E+04  0.15724715581E+04  0.00000000000E+00 0. -1.
        -12    1    6    6    0    0 -0.18959686838E+02  0.51090640620E+01  0.38356565882E+03  0.38406794566E+03  0.00000000000E+00 0.  1.
</event>
<event>
12    1  0.2685360E-002  0.2060212E+03  0.7818608E-02  0.1144756E+00
          2   -1    0    0  502    0  0.00000000000E+00  0.00000000000E+00  0.91293965056E+03  0.91293965056E+03  0.00000000000E+00 0. -1.
         -2   -1    0    0    0  501 -0.00000000000E+00 -0.00000000000E+00 -0.49818344577E+02  0.49818344577E+02  0.00000000000E+00 0.  1.
          6    2    1    2  502    0 -0.40937320558E+02  0.10699032460E+03  0.30404256770E+03  0.36635807319E+03  0.16927362773E+03 0.  0.
         24    2    3    3    0    0 -0.64483237953E+02  0.86622476878E+02  0.30677283543E+03  0.33475421569E+03  0.79304923465E+02 0.  0.
         -6    2    1    2    0  501  0.40937320558E+02 -0.10699032460E+03  0.55907873829E+03  0.59639992195E+03  0.17320807582E+03 0.  0.
        -24    2    5    5    0    0  0.43996611029E+02 -0.19475788954E+02  0.14234332415E+03  0.17053768061E+03  0.80662695465E+02 0.  0.
          5    1    3    3  502    0  0.23545917395E+02  0.20367847721E+02 -0.27302677341E+01  0.31603857496E+02  0.47000000000E+01 0. -1.
        -13    1    4    4    0    0 -0.34101986304E+02  0.33113494315E+02  0.43659059295E+02  0.64541168522E+02  0.00000000000E+00 0.  1.
         14    1    4    4    0    0 -0.30381251649E+02  0.53508982563E+02  0.26311377614E+03  0.27021304717E+03  0.00000000000E+00 0. -1.
         -5    1    5    5    0  501 -0.30592904701E+01 -0.87514535645E+02  0.41673541414E+03  0.42586224134E+03  0.47000000000E+01 0.  1.
         13    1    6    6    0    0  0.50776206807E+02  0.23200641278E+01  0.13831518031E+03  0.14735906820E+03  0.00000000000E+00 0. -1.
        -14    1    6    6    0    0 -0.67795957783E+01 -0.21795853082E+02  0.40281438377E+01  0.23178612410E+02  0.00000000000E+00 0.  1.
</event>
<event>
12    1  0.2685360E-002  0.1773854E+03  0.7818608E-02  0.1170358E+00
          1   -1    0    0  502    0  0.00000000000E+00  0.00000000000E+00  0.15296221441E+04  0.15296221441E+04  0.00000000000E+00 0.  1.
         -1   -1    0    0    0  501 -0.00000000000E+00 -0.00000000000E+00 -0.33824244129E+02  0.33824244129E+02  0.00000000000E+00 0. -1.
          6    2    1    2  502    0  0.12913698678E+02 -0.42898094186E+02  0.25852579713E+03  0.31352094812E+03  0.17161814307E+03 0.  0.
         24    2    3    3    0    0  0.26584715543E+02 -0.87349969351E+02  0.22676624451E+03  0.25700878048E+03  0.79333595361E+02 0.  0.
         -6    2    1    2    0  501 -0.12913698678E+02  0.42898094186E+02  0.12372721028E+04  0.12499254401E+04  0.17165179657E+03 0.  0.
        -24    2    5    5    0    0  0.42069242531E+02  0.12531137066E+02  0.40502301674E+03  0.41529623668E+03  0.80625489424E+02 0.  0.
          5    1    3    3  502    0 -0.13671016865E+02  0.44451875165E+02  0.31759552622E+02  0.56512167633E+02  0.47000000000E+01 0. -1.
        -11    1    4    4    0    0  0.15537552097E+02 -0.76498564654E+02  0.22846313568E+03  0.24143083955E+03  0.00000000000E+00 0.  1.
         12    1    4    4    0    0  0.11047163446E+02 -0.10851404697E+02 -0.16968911781E+01  0.15577940935E+02  0.00000000000E+00 0. -1.
         -5    1    5    5    0  501 -0.54982941209E+02  0.30366957120E+02  0.83224908609E+03  0.83462920343E+03  0.47000000000E+01 0.  1.
         13    1    6    6    0    0  0.59869796234E+02  0.17268392969E+02  0.37448047517E+03  0.37962905076E+03  0.00000000000E+00 0. -1.
        -14    1    6    6    0    0 -0.17800553703E+02 -0.47372559028E+01  0.30542541567E+02  0.35667185914E+02  0.00000000000E+00 0.  1.
</event>
<event>
12    1  0.2685360E-002  0.2659403E+03  0.7818608E-02  0.1103626E+00
          2   -1    0    0  502    0  0.00000000000E+00  0.00000000000E+00  0.16839099756E+04  0.16839099756E+04  0.00000000000E+00 0.  1.
         -2   -1    0    0    0  501 -0.00000000000E+00 -0.00000000000E+00 -0.55647736118E+02  0.55647736118E+02  0.00000000000E+00 0. -1.
          6    2    1    2  502    0 -0.20015914226E+02 -0.20177227461E+03  0.38366351388E+03  0.46688826418E+03  0.17226221791E+03 0.  0.
         24    2    3    3    0    0 -0.22870554617E+02 -0.15085748838E+03  0.15190615541E+03  0.22954035997E+03  0.79575453075E+02 0.  0.
         -6    2    1    2    0  501  0.20015914226E+02  0.20177227461E+03  0.12445987256E+04  0.12726694475E+04  0.17189778158E+03 0.  0.
        -24    2    5    5    0    0  0.26520263624E+02  0.10110826950E+03  0.37810557382E+03  0.40031171096E+03  0.79746062195E+02 0.  0.
          5    1    3    3  502    0  0.28546403915E+01 -0.50914786225E+02  0.23175735847E+03  0.23734790421E+03  0.47000000000E+01 0. -1.
        -11    1    4    4    0    0  0.20762314712E+02 -0.97350390780E+02  0.11181460985E+03  0.14970196816E+03  0.00000000000E+00 0.  1.
         12    1    4    4    0    0 -0.43632869329E+02 -0.53507097604E+02  0.40091545565E+02  0.79838391803E+02  0.00000000000E+00 0. -1.
         -5    1    5    5    0  501 -0.65043493987E+01  0.10066400511E+03  0.86649315176E+03  0.87235773656E+03  0.47000000000E+01 0.  1.
         11    1    6    6    0    0  0.99346296670E+01  0.10345789942E+03  0.36356709872E+03  0.37813128552E+03  0.00000000000E+00 0. -1.
        -12    1    6    6    0    0  0.16585633957E+02 -0.23496299164E+01  0.14538475101E+02  0.22180425442E+02  0.00000000000E+00 0.  1.
</event>
<event>
12    1  0.2910933E-002  0.2037390E+03  0.7818608E-02  0.1146622E+00
          1   -1    0    0  502    0  0.00000000000E+00  0.00000000000E+00  0.77213180811E+03  0.77213180811E+03  0.00000000000E+00 0.  1.
         -1   -1    0    0    0  501 -0.00000000000E+00 -0.00000000000E+00 -0.57413591078E+02  0.57413591078E+02  0.00000000000E+00 0. -1.
          6    2    1    2  502    0  0.98335522164E+02  0.44160330824E+02  0.45930051422E+03  0.50181271777E+03  0.17099424441E+03 0.  0.
         24    2    3    3    0    0 -0.97927150468E+01  0.44535947943E+02  0.29813537959E+03  0.30767836381E+03  0.60843430742E+02 0.  0.
         -6    2    1    2    0  501 -0.98335522164E+02 -0.44160330824E+02  0.25541770282E+03  0.32773268142E+03  0.17478700701E+03 0.  0.
        -24    2    5    5    0    0 -0.65044938749E+02 -0.81673696747E+02  0.10170475810E+03  0.16597584249E+03  0.79389455675E+02 0.  0.
          5    1    3    3  502    0  0.10812823721E+03 -0.37561711942E+00  0.16116513462E+03  0.19413435396E+03  0.47000000000E+01 0. -1.
        -11    1    4    4    0    0  0.19152486140E+02  0.25954370657E+02  0.21938988064E+03  0.22174843135E+03  0.00000000000E+00 0.  1.
         12    1    4    4    0    0 -0.28945201187E+02  0.18581577287E+02  0.78745498954E+02  0.85929932455E+02  0.00000000000E+00 0. -1.
         -5    1    5    5    0  501 -0.33290583415E+02  0.37513365923E+02  0.15371294472E+03  0.16175683893E+03  0.47000000000E+01 0.  1.
         11    1    6    6    0    0 -0.58910274515E+02 -0.22631654776E+02  0.22506197142E+02  0.67001053359E+02  0.00000000000E+00 0. -1.
        -12    1    6    6    0    0 -0.61346642334E+01 -0.59042041971E+02  0.79198560961E+02  0.98974789131E+02  0.00000000000E+00 0.  1.
</event>
<event>
12    1  0.2685360E-002  0.3117628E+03  0.7818608E-02  0.1079504E+00
         -2   -1    0    0    0  501 -0.00000000000E+00  0.00000000000E+00  0.51510557897E+02  0.51510557897E+02  0.00000000000E+00 0.  1.
          2   -1    0    0  502    0  0.00000000000E+00 -0.00000000000E+00 -0.32524615518E+04  0.32524615518E+04  0.00000000000E+00 0. -1.
          6    2    1    2  502    0 -0.18443676969E+03  0.18240829092E+03 -0.26699190687E+04  0.26880216325E+04  0.17234487701E+03 0.  0.
         24    2    3    3    0    0 -0.29550216188E+02  0.11474627438E+03 -0.12354563569E+04  0.12436278653E+04  0.78853883425E+02 0.  0.
         -6    2    1    2    0  501  0.18443676969E+03 -0.18240829092E+03 -0.53103192515E+03  0.61595047717E+03  0.17352342258E+03 0.  0.
        -24    2    5    5    0    0  0.11119429544E+03 -0.27703116761E+02 -0.21233201760E+03  0.25416342375E+03  0.79890714474E+02 0.  0.
          5    1    3    3  502    0 -0.15488655351E+03  0.67662016543E+02 -0.14344627119E+04  0.14443937672E+04  0.47000000000E+01 0. -1.
        -11    1    4    4    0    0 -0.55488711185E+02  0.93790812166E+02 -0.95175343931E+03  0.95797198433E+03  0.00000000000E+00 0.  1.
         12    1    4    4    0    0  0.25938494997E+02  0.20955462212E+02 -0.28370291754E+03  0.28565588098E+03  0.00000000000E+00 0. -1.
         -5    1    5    5    0  501  0.73242474256E+02 -0.15470517416E+03 -0.31869990755E+03  0.36178705342E+03  0.47000000000E+01 0.  1.
         13    1    6    6    0    0  0.38440244022E+02 -0.27778943559E+02 -0.25899824849E+02  0.54038162376E+02  0.00000000000E+00 0. -1.
        -14    1    6    6    0    0  0.72754051416E+02  0.75826798325E-01 -0.18643219275E+03  0.20012526137E+03  0.00000000000E+00 0.  1.
</event>
<event>
12    1  0.2685360E-002  0.1884910E+03  0.7818608E-02  0.1159829E+00
          3   -1    0    0  502    0  0.00000000000E+00  0.00000000000E+00  0.42591767752E+02  0.42591767752E+02  0.00000000000E+00 0.  1.
         -3   -1    0    0    0  501 -0.00000000000E+00 -0.00000000000E+00 -0.88237862248E+03  0.88237862248E+03  0.00000000000E+00 0. -1.
          6    2    1    2  502    0  0.45480980267E+02 -0.62193577836E+02 -0.31267013517E+03  0.36530506662E+03  0.17247787563E+03 0.  0.
         24    2    3    3    0    0  0.24841169438E+02 -0.10080391348E+03 -0.15500742389E+03  0.20160906686E+03  0.76422520932E+02 0.  0.
         -6    2    1    2    0  501 -0.45480980267E+02  0.62193577836E+02 -0.52711671956E+03  0.55966532361E+03  0.17157120308E+03 0.  0.
        -24    2    5    5    0    0  0.38553879172E+02  0.10532257487E+02 -0.24128322715E+03  0.25725231959E+03  0.79773618333E+02 0.  0.
          5    1    3    3  502    0  0.20639810830E+02  0.38610335648E+02 -0.15766271129E+03  0.16369599977E+03  0.47000000000E+01 0. -1.
        -11    1    4    4    0    0 -0.16444040338E+02 -0.75655149477E+01 -0.26746428140E+01  0.18297464121E+02  0.00000000000E+00 0.  1.
         12    1    4    4    0    0  0.41285209776E+02 -0.93238398536E+02 -0.15233278107E+03  0.18331160273E+03  0.00000000000E+00 0. -1.
         -5    1    5    5    0  501 -0.84034859439E+02  0.51661320350E+02 -0.28583349240E+03  0.30241300402E+03  0.47000000000E+01 0.  1.
         13    1    6    6    0    0 -0.23414830234E+01 -0.30857106671E+02 -0.78218015647E+02  0.84117189364E+02  0.00000000000E+00 0. -1.
        -14    1    6    6    0    0  0.40895362195E+02  0.41389364158E+02 -0.16306521151E+03  0.17313513022E+03  0.00000000000E+00 0.  1.
</event>
<event>
12    1  0.2685360E-002  0.1907807E+03  0.7818608E-02  0.1157759E+00
          2   -1    0    0  502    0  0.00000000000E+00  0.00000000000E+00  0.18160947826E+04  0.18160947826E+04  0.00000000000E+00 0. -1.
         -2   -1    0    0    0  501 -0.00000000000E+00 -0.00000000000E+00 -0.20042523208E+02  0.20042523208E+02  0.00000000000E+00 0.  1.
          6    2    1    2  502    0 -0.44728508788E+02 -0.71435758126E+02  0.89506397518E+03  0.91529767458E+03  0.17183307711E+03 0.  0.
         24    2    3    3    0    0 -0.90612907168E+02 -0.23510674511E+02  0.55003145065E+03  0.56391223858E+03  0.81847207323E+02 0.  0.
         -6    2    1    2    0  501  0.44728508788E+02  0.71435758126E+02  0.90098828421E+03  0.92083963123E+03  0.17047589600E+03 0.  0.
        -24    2    5    5    0    0  0.24467075038E+02  0.11351388784E+03  0.59331002388E+03  0.60960162491E+03  0.78187698254E+02 0.  0.
          5    1    3    3  502    0  0.45884398380E+02 -0.47925083614E+02  0.34503252453E+03  0.35138543600E+03  0.47000000000E+01 0. -1.
        -11    1    4    4    0    0 -0.84927158923E+02  0.59449002924E+01  0.29245305770E+03  0.30459276931E+03  0.00000000000E+00 0.  1.
         12    1    4    4    0    0 -0.56857482444E+01 -0.29455574804E+02  0.25757839296E+03  0.25931946926E+03  0.00000000000E+00 0. -1.
         -5    1    5    5    0  501  0.20261433750E+02 -0.42078129718E+02  0.30767826032E+03  0.31123800631E+03  0.47000000000E+01 0.  1.
         11    1    6    6    0    0  0.32794263542E+02  0.78768816577E+02  0.53069359283E+03  0.53750877171E+03  0.00000000000E+00 0. -1.
        -12    1    6    6    0    0 -0.83271885034E+01  0.34745071267E+02  0.62616431050E+02  0.72092853204E+02  0.00000000000E+00 0.  1.
</event>
<event>
12    1  0.2685360E-002  0.2920121E+03  0.7818608E-02  0.1089303E+00
          1   -1    0    0  502    0  0.00000000000E+00  0.00000000000E+00  0.31345829242E+03  0.31345829242E+03  0.00000000000E+00 0.  1.
         -1   -1    0    0    0  501 -0.00000000000E+00 -0.00000000000E+00 -0.34099777877E+03  0.34099777877E+03  0.00000000000E+00 0. -1.
          6    2    1    2  502    0  0.16698406864E+03 -0.16847152878E+03 -0.16089510314E+03  0.33268018492E+03  0.16888616294E+03 0.  0.
         24    2    3    3    0    0  0.18161326977E+03 -0.11925534475E+03 -0.15976945613E+03  0.28110884232E+03  0.79313839348E+02 0.  0.
         -6    2    1    2    0  501 -0.16698406864E+03  0.16847152878E+03  0.13335561680E+03  0.32177588627E+03  0.17172555215E+03 0.  0.
        -24    2    5    5    0    0 -0.52916230514E+02  0.91638994642E+01  0.28999945155E+02  0.99734023869E+02  0.78878223819E+02 0.  0.
          5    1    3    3  502    0 -0.14629201129E+02 -0.49216184028E+02 -0.11256470120E+01  0.51571342596E+02  0.47000000000E+01 0. -1.
        -11    1    4    4    0    0  0.75587257123E+02 -0.55496019013E+02 -0.22738810413E+02  0.96489870270E+02  0.00000000000E+00 0.  1.
         12    1    4    4    0    0  0.10602601264E+03 -0.63759325741E+02 -0.13703064572E+03  0.18461897205E+03  0.00000000000E+00 0. -1.
         -5    1    5    5    0  501 -0.11406783812E+03  0.15930762932E+03  0.10435567164E+03  0.22204186240E+03  0.47000000000E+01 0.  1.
         11    1    6    6    0    0 -0.52551045788E+02 -0.63740734131E+00  0.52490341742E+02  0.74278224789E+02  0.00000000000E+00 0. -1.
        -12    1    6    6    0    0 -0.36518472556E+00  0.98013068055E+01 -0.23490396587E+02  0.25455799080E+02  0.00000000000E+00 0.  1.
</event>
<event>
12    1  0.2685360E-002  0.2379946E+03  0.7818608E-02  0.1121136E+00
          2   -1    0    0  502    0  0.00000000000E+00  0.00000000000E+00  0.12346455973E+04  0.12346455973E+04  0.00000000000E+00 0. -1.
         -2   -1    0    0    0  501 -0.00000000000E+00 -0.00000000000E+00 -0.64291264255E+02  0.64291264255E+02  0.00000000000E+00 0.  1.
          6    2    1    2  502    0 -0.51056132857E+02  0.15562896836E+03  0.23898150724E+03  0.33783210405E+03  0.17375633867E+03 0.  0.
         24    2    3    3    0    0 -0.33491605461E+02  0.59082070122E+02  0.36953309514E+02  0.11318282437E+03  0.82658490204E+02 0.  0.
         -6    2    1    2    0  501  0.51056132857E+02 -0.15562896836E+03  0.93137282584E+03  0.96110475755E+03  0.17158062175E+03 0.  0.
        -24    2    5    5    0    0 -0.28531134527E+02 -0.37935392768E+02  0.40836322647E+03  0.41912040177E+03  0.81536904448E+02 0.  0.
          5    1    3    3  502    0 -0.17564527396E+02  0.96546898238E+02  0.20202819772E+03  0.22464927967E+03  0.47000000000E+01 0. -1.
        -13    1    4    4    0    0 -0.45963084790E+02  0.67365548447E+02  0.97513881251E+01  0.82132891409E+02  0.00000000000E+00 0.  1.
         14    1    4    4    0    0  0.12471479328E+02 -0.82834783249E+01  0.27201921389E+02  0.31049932964E+02  0.00000000000E+00 0. -1.
         -5    1    5    5    0  501  0.79587267383E+02 -0.11769357559E+03  0.52300959938E+03  0.54198435578E+03  0.47000000000E+01 0.  1.
         13    1    6    6    0    0 -0.49201600144E+02 -0.46704756543E+02  0.35146037545E+03  0.35794765993E+03  0.00000000000E+00 0. -1.
        -14    1    6    6    0    0  0.20670465617E+02  0.87693637742E+01  0.56902851015E+02  0.61172741834E+02  0.00000000000E+00 0.  1.
</event>
<event>
12    1  0.2685360E-002  0.2754970E+03  0.7818608E-02  0.1098174E+00
         -1   -1    0    0    0  501 -0.00000000000E+00  0.00000000000E+00  0.82889333907E+03  0.82889333907E+03  0.00000000000E+00 0.  1.
          1   -1    0    0  502    0  0.00000000000E+00 -0.00000000000E+00 -0.95146276780E+02  0.95146276780E+02  0.00000000000E+00 0. -1.
          6    2    1    2  502    0 -0.65966563849E+02  0.20581066499E+03  0.27614579111E+03  0.38945603185E+03  0.16943991686E+03 0.  0.
         24    2    3    3    0    0  0.15705919214E+02  0.45667992154E+02  0.11563958575E+03  0.14841578187E+03  0.79514081196E+02 0.  0.
         -6    2    1    2    0  501  0.65966563849E+02 -0.20581066499E+03  0.45760127118E+03  0.53458358399E+03  0.17225291732E+03 0.  0.
        -24    2    5    5    0    0  0.11184790009E+03 -0.16823739859E+03  0.36359775224E+03  0.42333791470E+03  0.78726676255E+02 0.  0.
          5    1    3    3  502    0 -0.81672483063E+02  0.16014267284E+03  0.16050620536E+03  0.24104024998E+03  0.47000000000E+01 0. -1.
        -13    1    4    4    0    0  0.11307262129E+02 -0.16386980424E+02  0.35554761619E+01  0.20224458336E+02  0.00000000000E+00 0.  1.
         14    1    4    4    0    0  0.43986570851E+01  0.62054972578E+02  0.11208410959E+03  0.12819132353E+03  0.00000000000E+00 0. -1.
         -5    1    5    5    0  501 -0.45881336240E+02 -0.37573266404E+02  0.94003518940E+02  0.11124566929E+03  0.47000000000E+01 0.  1.
         11    1    6    6    0    0  0.38168021802E+02 -0.12883987371E+02  0.10819993698E+03  0.11545571178E+03  0.00000000000E+00 0. -1.
        -12    1    6    6    0    0  0.73679878287E+02 -0.15535341122E+03  0.25539781526E+03  0.30788220293E+03  0.00000000000E+00 0.  1.
</event>
<event>
12    1  0.2685360E-002  0.2207671E+03  0.7818608E-02  0.1133312E+00
          2   -1    0    0  502    0  0.00000000000E+00  0.00000000000E+00  0.63179276430E+03  0.63179276430E+03  0.00000000000E+00 0. -1.
         -2   -1    0    0    0  501 -0.00000000000E+00 -0.00000000000E+00 -0.77950271958E+02  0.77950271958E+02  0.00000000000E+00 0.  1.
          6    2    1    2  502    0  0.10550944938E+03 -0.92926655599E+02  0.24244741822E+03  0.32876717607E+03  0.17187058570E+03 0.  0.
         24    2    3    3    0    0  0.48500885283E+02 -0.34503177549E+02  0.33476234948E+02  0.10436948311E+03  0.78927343575E+02 0.  0.
         -6    2    1    2    0  501 -0.10550944938E+03  0.92926655599E+02  0.31139507413E+03  0.38097586019E+03  0.16854704574E+03 0.  0.
        -24    2    5    5    0    0 -0.18807014997E+02  0.52714735588E+01  0.19240270093E+03  0.20956402295E+03  0.80726625996E+02 0.  0.
          5    1    3    3  502    0  0.57008564100E+02 -0.58423478051E+02  0.20897118327E+03  0.22439769296E+03  0.47000000000E+01 0. -1.
        -13    1    4    4    0    0  0.13173220495E+02 -0.46536599004E+02  0.44219771501E+02  0.65533022032E+02  0.00000000000E+00 0.  1.
         14    1    4    4    0    0  0.35327664788E+02  0.12033421455E+02 -0.10743536553E+02  0.38836461077E+02  0.00000000000E+00 0. -1.
         -5    1    5    5    0  501 -0.86702434387E+02  0.87655182041E+02  0.11899237320E+03  0.17141183724E+03  0.47000000000E+01 0.  1.
         11    1    6    6    0    0 -0.47585921867E+01  0.41254683626E+02  0.72016100523E+02  0.83131894332E+02  0.00000000000E+00 0. -1.
        -12    1    6    6    0    0 -0.14048422810E+02 -0.35983210067E+02  0.12038660040E+03  0.12643212862E+03  0.00000000000E+00 0.  1.
</event>
<event>
12    1  0.2685360E-002  0.1882020E+03  0.7818608E-02  0.1160093E+00
          1   -1    0    0  502    0  0.00000000000E+00  0.00000000000E+00  0.14634072491E+03  0.14634072491E+03  0.00000000000E+00 0. -1.
         -1   -1    0    0    0  501 -0.00000000000E+00 -0.00000000000E+00 -0.24236968147E+03  0.24236968147E+03  0.00000000000E+00 0.  1.
          6    2    1    2  502    0  0.24841279313E+02  0.72386439426E+02 -0.40759630176E+02  0.19230365419E+03  0.17164632881E+03 0.  0.
         24    2    3    3    0    0  0.73490727088E+02  0.12891563483E+02 -0.30496713317E+02  0.11462594507E+03  0.81498333621E+02 0.  0.
         -6    2    1    2    0  501 -0.24841279313E+02 -0.72386439426E+02 -0.55269326389E+02  0.19640675219E+03  0.17223248269E+03 0.  0.
        -24    2    5    5    0    0  0.48236718117E+02 -0.38905457863E+02 -0.48305911745E+01  0.10139345920E+03  0.80105451318E+02 0.  0.
          5    1    3    3  502    0 -0.48649447775E+02  0.59494875943E+02 -0.10262916859E+02  0.77677709124E+02  0.47000000000E+01 0. -1.
        -11    1    4    4    0    0  0.19999315691E+02  0.38555068125E+02 -0.34051641514E+02  0.55190399491E+02  0.00000000000E+00 0.  1.
         12    1    4    4    0    0  0.53491411397E+02 -0.25663504642E+02  0.35549281966E+01  0.59435545578E+02  0.00000000000E+00 0. -1.
         -5    1    5    5    0  501 -0.73077997430E+02 -0.33480981563E+02 -0.50438735215E+02  0.95013292990E+02  0.47000000000E+01 0.  1.
         11    1    6    6    0    0  0.20759975364E+02 -0.44408203867E+02  0.29395528701E+02  0.57159095999E+02  0.00000000000E+00 0. -1.
        -12    1    6    6    0    0  0.27476742753E+02  0.55027460041E+01 -0.34226119875E+02  0.44234363199E+02  0.00000000000E+00 0.  1.
</event>
<event>
12    1  0.2685360E-002  0.1822152E+03  0.7818608E-02  0.1165676E+00
          1   -1    0    0  502    0  0.00000000000E+00  0.00000000000E+00  0.10131950662E+04  0.10131950662E+04  0.00000000000E+00 0.  1.
         -1   -1    0    0    0  501 -0.00000000000E+00 -0.00000000000E+00 -0.34005202657E+02  0.34005202657E+02  0.00000000000E+00 0. -1.
          6    2    1    2  502    0 -0.15960533067E+02 -0.56894932555E+02  0.38820442695E+03  0.42857751665E+03  0.17170975135E+03 0.  0.
         24    2    3    3    0    0 -0.64130784418E+01  0.32254874270E+02  0.24971222978E+03  0.26352897645E+03  0.77523023900E+02 0.  0.
         -6    2    1    2    0  501  0.15960533067E+02  0.56894932555E+02  0.59098543658E+03  0.61862275219E+03  0.17302760276E+03 0.  0.
        -24    2    5    5    0    0  0.53929001793E+02  0.22413102380E+02  0.18782012689E+03  0.21218092589E+03  0.79584300309E+02 0.  0.
          5    1    3    3  502    0 -0.95474546250E+01 -0.89149806825E+02  0.13849219717E+03  0.16504854020E+03  0.47000000000E+01 0. -1.
        -13    1    4    4    0    0  0.98360767343E+01  0.22960456503E+02  0.17347941368E+02  0.30411873308E+02  0.00000000000E+00 0.  1.
         14    1    4    4    0    0 -0.16249155176E+02  0.92944177671E+01  0.23236428842E+03  0.23311710314E+03  0.00000000000E+00 0. -1.
         -5    1    5    5    0  501 -0.37968468726E+02  0.34481830174E+02  0.40316530969E+03  0.40644182630E+03  0.47000000000E+01 0.  1.
         11    1    6    6    0    0  0.37842047731E+01  0.32841259623E+02  0.24863703126E+02  0.41365109362E+02  0.00000000000E+00 0. -1.
        -12    1    6    6    0    0  0.50144797020E+02 -0.10428157243E+02  0.16295642376E+03  0.17081581653E+03  0.00000000000E+00 0.  1.
</event>
<event>
12    1  0.2685360E-002  0.1990331E+03  0.7818608E-02  0.1150557E+00
         -2   -1    0    0    0  501 -0.00000000000E+00  0.00000000000E+00  0.62250477183E+02  0.62250477183E+02  0.00000000000E+00 0. -1.
          2   -1    0    0  502    0  0.00000000000E+00 -0.00000000000E+00 -0.76871956421E+03  0.76871956421E+03  0.00000000000E+00 0.  1.
          6    2    1    2  502    0  0.72154403549E+02 -0.69095615183E+02 -0.52552954839E+03  0.56193154899E+03  0.17206190028E+03 0.  0.
         24    2    3    3    0    0  0.19075117947E+02 -0.99107501212E+02 -0.42856348933E+03  0.44729023675E+03  0.78839930118E+02 0.  0.
         -6    2    1    2    0  501 -0.72154403549E+02  0.69095615183E+02 -0.18093953864E+03  0.26903849241E+03  0.17222697746E+03 0.  0.
        -24    2    5    5    0    0 -0.16384518923E+02  0.13083116085E+02 -0.16992001564E+03  0.18909351149E+03  0.80274055507E+02 0.  0.
          5    1    3    3  502    0  0.53079285602E+02  0.30011886028E+02 -0.96966059058E+02  0.11464131224E+03  0.47000000000E+01 0. -1.
        -13    1    4    4    0    0  0.22613783508E+02 -0.37694690088E+02 -0.31575184638E+03  0.31879695945E+03  0.00000000000E+00 0.  1.
         14    1    4    4    0    0 -0.35386655606E+01 -0.61412811124E+02 -0.11281164295E+03  0.12849327729E+03  0.00000000000E+00 0. -1.
         -5    1    5    5    0  501 -0.55769884626E+02  0.56012499098E+02 -0.11019523006E+02  0.79944980916E+02  0.47000000000E+01 0.  1.
         13    1    6    6    0    0 -0.28843510939E+02 -0.10261351719E+02 -0.19351965977E+02  0.36217979645E+02  0.00000000000E+00 0. -1.
        -14    1    6    6    0    0  0.12458992017E+02  0.23344467804E+02 -0.15056804966E+03  0.15287553185E+03  0.00000000000E+00 0.  1.
</event>
<event>
12    1  0.2685360E-002  0.1772224E+03  0.7818608E-02  0.1170519E+00
          4   -1    0    0  502    0  0.00000000000E+00  0.00000000000E+00  0.58246397760E+03  0.58246397760E+03  0.00000000000E+00 0.  1.
         -4   -1    0    0    0  501 -0.00000000000E+00 -0.00000000000E+00 -0.54005651207E+02  0.54005651207E+02  0.00000000000E+00 0. -1.
          6    2    1    2  502    0 -0.28842171260E+02 -0.37645204210E+02  0.27676720839E+03  0.32865815283E+03  0.17078366883E+03 0.  0.
         24    2    3    3    0    0 -0.62674181789E+02 -0.74307082970E+02  0.22183981799E+03  0.25430893288E+03  0.77527626402E+02 0.  0.
         -6    2    1    2    0  501  0.28842171260E+02  0.37645204210E+02  0.25169111801E+03  0.30781147598E+03  0.17073503922E+03 0.  0.
        -24    2    5    5    0    0  0.57635208454E+02  0.30234783980E+02  0.25855604065E+03  0.27693801680E+03  0.74883106083E+02 0.  0.
          5    1    3    3  502    0  0.33832010528E+02  0.36661878761E+02  0.54927390399E+02  0.74349219947E+02  0.47000000000E+01 0. -1.
        -11    1    4    4    0    0 -0.49577487753E+02 -0.31108482767E+01  0.67231616803E+02  0.83592433670E+02  0.00000000000E+00 0.  1.
         12    1    4    4    0    0 -0.13096694036E+02 -0.71196234694E+02  0.15460820118E+03  0.17071649921E+03  0.00000000000E+00 0. -1.
         -5    1    5    5    0  501 -0.28793037193E+02  0.74104202302E+01 -0.68649226439E+01  0.30873459180E+02  0.47000000000E+01 0.  1.
         11    1    6    6    0    0  0.44303956294E+02  0.35533242512E+02  0.81696295028E+02  0.99497419505E+02  0.00000000000E+00 0. -1.
        -12    1    6    6    0    0  0.13331252159E+02 -0.52984585328E+01  0.17685974562E+03  0.17744059730E+03  0.00000000000E+00 0.  1.
</event>
<event>
12    1  0.2685360E-002  0.2251018E+03  0.7818608E-02  0.1130136E+00
         -2   -1    0    0    0  501 -0.00000000000E+00  0.00000000000E+00  0.26303402805E+03  0.26303402805E+03  0.00000000000E+00 0. -1.
          2   -1    0    0  502    0  0.00000000000E+00 -0.00000000000E+00 -0.21736232489E+03  0.21736232489E+03  0.00000000000E+00 0.  1.
          6    2    1    2  502    0  0.75296125702E+02  0.12265589329E+03  0.10391894278E+03  0.24875646130E+03  0.17426031007E+03 0.  0.
         24    2    3    3    0    0  0.76193452504E+02  0.15405695909E+03  0.10239310301E+03  0.21695629910E+03  0.83944620601E+02 0.  0.
         -6    2    1    2    0  501 -0.75296125702E+02 -0.12265589329E+03 -0.58247239620E+02  0.23163989163E+03  0.17190207610E+03 0.  0.
        -24    2    5    5    0    0  0.62577817005E+01 -0.65823811711E+02  0.18985113757E+02  0.10567223024E+03  0.80213787339E+02 0.  0.
          5    1    3    3  502    0 -0.89732680196E+00 -0.31401065802E+02  0.15258397723E+01  0.31800162199E+02  0.47000000000E+01 0. -1.
        -13    1    4    4    0    0  0.19281043577E+02  0.12459891928E+02  0.50999577142E+02  0.55928207703E+02  0.00000000000E+00 0.  1.
         14    1    4    4    0    0  0.56912408927E+02  0.14159706716E+03  0.51393525871E+02  0.16102809140E+03  0.00000000000E+00 0. -1.
         -5    1    5    5    0  501 -0.81553907402E+02 -0.56832081575E+02 -0.77232353377E+02  0.12596766139E+03  0.47000000000E+01 0.  1.
         11    1    6    6    0    0 -0.31320810754E+02 -0.57433222626E+02  0.13185050907E+02  0.66733903040E+02  0.00000000000E+00 0. -1.
        -12    1    6    6    0    0  0.37578592454E+02 -0.83905890852E+01  0.58000628500E+01  0.38938327199E+02  0.00000000000E+00 0.  1.
</event>
<event>
12    1  0.2685360E-002  0.2132676E+03  0.7818608E-02  0.1139004E+00
         -1   -1    0    0    0  501 -0.00000000000E+00  0.00000000000E+00  0.26931828058E+03  0.26931828058E+03  0.00000000000E+00 0. -1.
          1   -1    0    0  502    0  0.00000000000E+00 -0.00000000000E+00 -0.17283595249E+03  0.17283595249E+03  0.00000000000E+00 0.  1.
          6    2    1    2  502    0 -0.29276841682E+02 -0.11998417814E+03  0.81981406521E+02  0.22992871468E+03  0.17576383688E+03 0.  0.
         24    2    3    3    0    0 -0.19218849741E+02 -0.43210057782E+02  0.11327256069E+03  0.14628270409E+03  0.79570617887E+02 0.  0.
         -6    2    1    2    0  501  0.29276841682E+02  0.11998417814E+03  0.14500921564E+02  0.21222551839E+03  0.17197690969E+03 0.  0.
        -24    2    5    5    0    0 -0.46140279682E+02  0.53846431588E+02 -0.77674401084E+01  0.10936681120E+03  0.82899955741E+02 0.  0.
          5    1    3    3  502    0 -0.10057991941E+02 -0.76774120358E+02 -0.31291154170E+02  0.83646010592E+02  0.47000000000E+01 0. -1.
        -13    1    4    4    0    0  0.11980622654E+01  0.19660101937E+02  0.65689145822E+01  0.20763082626E+02  0.00000000000E+00 0.  1.
         14    1    4    4    0    0 -0.20416912006E+02 -0.62870159719E+02  0.10670364611E+03  0.12551962146E+03  0.00000000000E+00 0. -1.
         -5    1    5    5    0  501  0.75417121364E+02  0.66137746552E+02  0.22268361672E+02  0.10285870719E+03  0.47000000000E+01 0.  1.
         13    1    6    6    0    0 -0.12286918419E+02  0.60550217909E+02  0.20140242671E+02  0.64984049027E+02  0.00000000000E+00 0. -1.
        -14    1    6    6    0    0 -0.33853361264E+02 -0.67037863213E+01 -0.27907682779E+02  0.44382762172E+02  0.00000000000E+00 0.  1.
</event>
<event>
12    1  0.2685360E-002  0.2294383E+03  0.7818608E-02  0.1127036E+00
         -1   -1    0    0    0  501 -0.00000000000E+00  0.00000000000E+00  0.12673364898E+03  0.12673364898E+03  0.00000000000E+00 0. -1.
          1   -1    0    0  502    0  0.00000000000E+00 -0.00000000000E+00 -0.49781045988E+03  0.49781045988E+03  0.00000000000E+00 0.  1.
          6    2    1    2  502    0  0.22315658013E+02 -0.15065887640E+03 -0.31211778604E+03  0.38694451685E+03  0.17062374140E+03 0.  0.
         24    2    3    3    0    0 -0.49434400297E+01 -0.17443782700E+02 -0.60834049680E+02  0.10119125655E+03  0.78804604224E+02 0.  0.
         -6    2    1    2    0  501 -0.22315658013E+02  0.15065887640E+03 -0.58959024864E+02  0.23759959201E+03  0.17257263364E+03 0.  0.
        -24    2    5    5    0    0  0.24899384260E+02  0.16341448672E+03 -0.64015620740E+02  0.18820703211E+03  0.63242497024E+02 0.  0.
          5    1    3    3  502    0  0.27259098043E+02 -0.13321509370E+03 -0.25128373636E+03  0.28575326030E+03  0.47000000000E+01 0. -1.
        -13    1    4    4    0    0  0.23092205081E+01  0.17377239775E+02 -0.63159403146E+02  0.65547014938E+02  0.00000000000E+00 0.  1.
         14    1    4    4    0    0 -0.72526605379E+01 -0.34821022476E+02  0.23253534658E+01  0.35644241609E+02  0.00000000000E+00 0. -1.
         -5    1    5    5    0  501 -0.47215042273E+02 -0.12755610325E+02  0.50565958760E+01  0.49392559900E+02  0.47000000000E+01 0.  1.
         11    1    6    6    0    0  0.45820723577E+01  0.15200012436E+03 -0.46388332950E+02  0.15898713981E+03  0.00000000000E+00 0. -1.
        -12    1    6    6    0    0  0.20317311902E+02  0.11414362367E+02 -0.17627287791E+02  0.29219892300E+02  0.00000000000E+00 0.  1.
</event>
<event>
12    1  0.2685360E-002  0.2018841E+03  0.7818608E-02  0.1148159E+00
          1   -1    0    0  502    0  0.00000000000E+00  0.00000000000E+00  0.37536526924E+04  0.37536526924E+04  0.00000000000E+00 0.  1.
         -1   -1    0    0    0  501 -0.00000000000E+00 -0.00000000000E+00 -0.11225562225E+02  0.11225562225E+02  0.00000000000E+00 0. -1.
          6    2    1    2  502    0  0.83654039448E+02  0.64545674044E+02  0.22091611236E+04  0.22183394823E+04  0.17167715703E+03 0.  0.
         24    2    3    3    0    0  0.38824360588E+01 -0.15847758190E+02  0.12279651931E+04  0.12306177823E+04  0.79090996958E+02 0.  0.
         -6    2    1    2    0  501 -0.83654039448E+02 -0.64545674044E+02  0.15332660065E+04  0.15465387723E+04  0.17237570915E+03 0.  0.
        -24    2    5    5    0    0 -0.12049512991E+03 -0.23942780347E+02  0.10425736413E+04  0.10527706605E+04  0.79208162769E+02 0.  0.
          5    1    3    3  502    0  0.79771603390E+02  0.80393432234E+02  0.98119593055E+03  0.98772170006E+03  0.47000000000E+01 0. -1.
        -11    1    4    4    0    0  0.23908337472E+02  0.12264950004E+02  0.96779924730E+03  0.96817220610E+03  0.00000000000E+00 0.  1.
         12    1    4    4    0    0 -0.20025901414E+02 -0.28112708194E+02  0.26016594580E+03  0.26244557616E+03  0.00000000000E+00 0. -1.
         -5    1    5    5    0  501  0.36841090458E+02 -0.40602893697E+02  0.49069236523E+03  0.49376811179E+03  0.47000000000E+01 0.  1.
         11    1    6    6    0    0 -0.45262920648E+02 -0.36860337471E+02  0.25944681974E+03  0.26593245146E+03  0.00000000000E+00 0. -1.
        -12    1    6    6    0    0 -0.75232209258E+02  0.12917557124E+02  0.78312682152E+03  0.78683820902E+03  0.00000000000E+00 0.  1.
</event>
<event>
12    1  0.2685360E-002  0.2039332E+03  0.7818608E-02  0.1146462E+00
          2   -1    0    0  502    0  0.00000000000E+00  0.00000000000E+00  0.21607107244E+02  0.21607107244E+02  0.00000000000E+00 0. -1.
         -2   -1    0    0    0  501 -0.00000000000E+00 -0.00000000000E+00 -0.22605745534E+04  0.22605745534E+04  0.00000000000E+00 0.  1.
          6    2    1    2  502    0  0.48137713874E+02  0.99772149762E+02 -0.15572061993E+04  0.15704457493E+04  0.17069558546E+03 0.  0.
         24    2    3    3    0    0  0.17985502145E+02 -0.15150865521E+02 -0.74867530389E+03  0.75321826922E+03  0.79183479469E+02 0.  0.
         -6    2    1    2    0  501 -0.48137713874E+02 -0.99772149762E+02 -0.68176124689E+03  0.71173591140E+03  0.17174949333E+03 0.  0.
        -24    2    5    5    0    0 -0.84200513745E+02 -0.19934485592E+02 -0.38252948867E+03  0.39990853403E+03  0.78172345858E+02 0.  0.
          5    1    3    3  502    0  0.30152211729E+02  0.11492301528E+03 -0.80853089542E+03  0.81722748006E+03  0.47000000000E+01 0. -1.
        -11    1    4    4    0    0  0.39804555397E+02 -0.90678003102E+01 -0.20253586220E+03  0.20660930064E+03  0.00000000000E+00 0.  1.
         12    1    4    4    0    0 -0.21819053251E+02 -0.60830652111E+01 -0.54613944169E+03  0.54660896858E+03  0.00000000000E+00 0. -1.
         -5    1    5    5    0  501  0.36062799871E+02 -0.79837664170E+02 -0.29923175821E+03  0.31182737737E+03  0.47000000000E+01 0.  1.
         11    1    6    6    0    0 -0.81915087520E+01  0.22466852077E+02 -0.41009432026E+02  0.47472452780E+02  0.00000000000E+00 0. -1.
        -12    1    6    6    0    0 -0.76009004993E+02 -0.42401337669E+02 -0.34152005665E+03  0.35243608125E+03  0.00000000000E+00 0.  1.
</event>
<event>
12    1  0.2685360E-002  0.1728355E+03  0.7818608E-02  0.1174923E+00
         -1   -1    0    0    0  501 -0.00000000000E+00  0.00000000000E+00  0.15982988387E+04  0.15982988387E+04  0.00000000000E+00 0. -1.
          1   -1    0    0  502    0  0.00000000000E+00 -0.00000000000E+00 -0.18997457026E+02  0.18997457026E+02  0.00000000000E+00 0.  1.
          6    2    1    2  502    0  0.29229287638E+02 -0.52966676444E+01  0.87760836492E+03  0.89387824796E+03  0.16715105162E+03 0.  0.
         24    2    3    3    0    0  0.50027327883E+02 -0.30098227491E+02  0.49017564506E+03  0.50506739643E+03  0.10682825045E+03 0.  0.
         -6    2    1    2    0  501 -0.29229287638E+02  0.52966676444E+01  0.70169301674E+03  0.72341804775E+03  0.17343060897E+03 0.  0.
        -24    2    5    5    0    0  0.58591612606E+01 -0.61167101987E+02  0.41204109755E+03  0.42413731631E+03  0.79616913297E+02 0.  0.
          5    1    3    3  502    0 -0.20798040245E+02  0.24801559847E+02  0.38743271987E+03  0.38881085154E+03  0.47000000000E+01 0. -1.
        -11    1    4    4    0    0 -0.33848195541E+02 -0.79799694791E+01  0.12686920303E+03  0.13154913504E+03  0.00000000000E+00 0.  1.
         12    1    4    4    0    0  0.83875523424E+02 -0.22118258012E+02  0.36330644203E+03  0.37351826138E+03  0.00000000000E+00 0. -1.
         -5    1    5    5    0  501 -0.35088448898E+02  0.66463769632E+02  0.28965191920E+03  0.29928073144E+03  0.47000000000E+01 0.  1.
         11    1    6    6    0    0 -0.33261682395E+02 -0.88820623911E+01  0.16939335408E+03  0.17285641138E+03  0.00000000000E+00 0. -1.
        -12    1    6    6    0    0  0.39120843656E+02 -0.52285039596E+02  0.24264774347E+03  0.25128090493E+03  0.00000000000E+00 0.  1.
</event>
<event>
12    1  0.2685360E-002  0.1782447E+03  0.7818608E-02  0.1169513E+00
         -2   -1    0    0    0  501 -0.00000000000E+00  0.00000000000E+00  0.32928687435E+03  0.32928687435E+03  0.00000000000E+00 0.  1.
          2   -1    0    0  502    0  0.00000000000E+00 -0.00000000000E+00 -0.17420825398E+03  0.17420825398E+03  0.00000000000E+00 0. -1.
          6    2    1    2  502    0  0.19911630834E+02 -0.50482741638E+02  0.24604358501E+03  0.30470844290E+03  0.17136163283E+03 0.  0.
         24    2    3    3    0    0  0.14460334533E+02  0.39762456934E+02  0.11037889132E+03  0.14161058390E+03  0.77973736399E+02 0.  0.
         -6    2    1    2    0  501 -0.19911630834E+02  0.50482741638E+02 -0.90964964635E+02  0.19878668542E+03  0.16821575807E+03 0.  0.
        -24    2    5    5    0    0 -0.28847177665E+02 -0.30700675305E+02 -0.69610444124E+02  0.11423671955E+03  0.80185553798E+02 0.  0.
          5    1    3    3  502    0  0.54512963012E+01 -0.90245198572E+02  0.13566469369E+03  0.16309785900E+03  0.47000000000E+01 0. -1.
        -13    1    4    4    0    0 -0.31563260396E+01  0.47545424455E+02  0.11255777725E+03  0.12222840505E+03  0.00000000000E+00 0.  1.
         14    1    4    4    0    0  0.17616660573E+02 -0.77829675206E+01 -0.21788859348E+01  0.19382178853E+02  0.00000000000E+00 0. -1.
         -5    1    5    5    0  501  0.89355468305E+01  0.81183416942E+02 -0.21354520511E+02  0.84549965877E+02  0.47000000000E+01 0.  1.
         13    1    6    6    0    0  0.78179428294E+01  0.42378411503E+01 -0.62458169923E+02  0.63088053686E+02  0.00000000000E+00 0. -1.
        -14    1    6    6    0    0 -0.36665120494E+02 -0.34938516455E+02 -0.71522742004E+01  0.51148665859E+02  0.00000000000E+00 0.  1.
</event>
<event>
12    1  0.2685360E-002  0.2172023E+03  0.7818608E-02  0.1135986E+00
         -2   -1    0    0    0  501 -0.00000000000E+00  0.00000000000E+00  0.96727184774E+02  0.96727184774E+02  0.00000000000E+00 0.  1.
          2   -1    0    0  502    0  0.00000000000E+00 -0.00000000000E+00 -0.62768307937E+03  0.62768307937E+03  0.00000000000E+00 0. -1.
          6    2    1    2  502    0 -0.13239354074E+02 -0.13223133455E+03 -0.43687573267E+03  0.48806356358E+03  0.17229402186E+03 0.  0.
         24    2    3    3    0    0  0.47189540858E+02 -0.11948710731E+03 -0.27944248527E+03  0.31888500685E+03  0.84234930063E+02 0.  0.
         -6    2    1    2    0  501  0.13239354074E+02  0.13223133455E+03 -0.94080161930E+02  0.23634670056E+03  0.17131339605E+03 0.  0.
        -24    2    5    5    0    0 -0.23518400756E+02  0.11780178167E+03 -0.10194458893E+02  0.14351219345E+03  0.77855300004E+02 0.  0.
          5    1    3    3  502    0 -0.60428894932E+02 -0.12744227241E+02 -0.15743324740E+03  0.16917855673E+03  0.47000000000E+01 0. -1.
        -11    1    4    4    0    0  0.24866505961E+02 -0.12034216557E+03 -0.26548045569E+03  0.29254136850E+03  0.00000000000E+00 0.  1.
         12    1    4    4    0    0  0.22323034897E+02  0.85505825972E+00 -0.13962029584E+02  0.26343638354E+02  0.00000000000E+00 0. -1.
         -5    1    5    5    0  501  0.36757754830E+02  0.14429552876E+02 -0.83885703037E+02  0.92834507110E+02  0.47000000000E+01 0.  1.
         11    1    6    6    0    0  0.14223868612E+02 -0.37912832155E+01 -0.66344898563E+01  0.16146477089E+02  0.00000000000E+00 0. -1.
        -12    1    6    6    0    0 -0.37742269368E+02  0.12159306489E+03 -0.35599690368E+01  0.12736571637E+03  0.00000000000E+00 0.  1.
</event>
<event>
12    1  0.2685360E-002  0.2283342E+03  0.7818608E-02  0.1127818E+00
          1   -1    0    0  502    0  0.00000000000E+00  0.00000000000E+00  0.69055843696E+03  0.69055843696E+03  0.00000000000E+00 0. -1.
         -1   -1    0    0    0  501 -0.00000000000E+00 -0.00000000000E+00 -0.75900094581E+02  0.75900094581E+02  0.00000000000E+00 0.  1.
          6    2    1    2  502    0 -0.30417390748E+02  0.14744751980E+03  0.33557473555E+03  0.40605590692E+03  0.17206105790E+03 0.  0.
         24    2    3    3    0    0 -0.10490888231E+02  0.32922166216E+02  0.23481166453E+03  0.25214551546E+03  0.85128816529E+02 0.  0.
         -6    2    1    2    0  501  0.30417390748E+02 -0.14744751980E+03  0.27908360683E+03  0.36040262463E+03  0.17127873038E+03 0.  0.
        -24    2    5    5    0    0 -0.44138257618E+02 -0.93402246284E+02  0.19771017922E+03  0.23742636263E+03  0.81300659960E+02 0.  0.
          5    1    3    3  502    0 -0.19926502517E+02  0.11452535358E+03  0.10076307103E+03  0.15391039146E+03  0.47000000000E+01 0. -1.
        -13    1    4    4    0    0 -0.47243092963E+02  0.97192073646E+01  0.13131645356E+03  0.13989418787E+03  0.00000000000E+00 0.  1.
         14    1    4    4    0    0  0.36752204731E+02  0.23202958851E+02  0.10349521097E+03  0.11225132759E+03  0.00000000000E+00 0. -1.
         -5    1    5    5    0  501  0.74555648367E+02 -0.54045273517E+02  0.81373427610E+02  0.12297626199E+03  0.47000000000E+01 0.  1.
         13    1    6    6    0    0  0.64517752934E+01 -0.26506050539E+02  0.12008781411E+03  0.12314738819E+03  0.00000000000E+00 0. -1.
        -14    1    6    6    0    0 -0.50590032912E+02 -0.66896195745E+02  0.77622365106E+02  0.11427897444E+03  0.00000000000E+00 0.  1.
</event>
<event>
12    1  0.2685360E-002  0.3175180E+03  0.7818608E-02  0.1076797E+00
         -2   -1    0    0    0  501 -0.00000000000E+00  0.00000000000E+00  0.49818790695E+03  0.49818790695E+03  0.00000000000E+00 0. -1.
          2   -1    0    0  502    0  0.00000000000E+00 -0.00000000000E+00 -0.46735857515E+03  0.46735857515E+03  0.00000000000E+00 0.  1.
          6    2    1    2  502    0 -0.16446249314E+03 -0.20986883609E+03 -0.34810946796E+03  0.47115021899E+03  0.17236440224E+03 0.  0.
         24    2    3    3    0    0 -0.44909220316E+02 -0.11452641756E+03 -0.93443019191E+02  0.17406394879E+03  0.80209239143E+02 0.  0.
         -6    2    1    2    0  501  0.16446249314E+03  0.20986883609E+03  0.37893879976E+03  0.49439626311E+03  0.17245350389E+03 0.  0.
        -24    2    5    5    0    0  0.80788830986E+02  0.16811836189E+03  0.33363899990E+03  0.39038402488E+03  0.79335274691E+02 0.  0.
          5    1    3    3  502    0 -0.11955327282E+03 -0.95342418534E+02 -0.25466644877E+03  0.29708627021E+03  0.47000000000E+01 0. -1.
        -11    1    4    4    0    0 -0.66255011703E+02 -0.94251254596E+02 -0.85800313027E+02  0.14364790038E+03  0.00000000000E+00 0.  1.
         12    1    4    4    0    0  0.21345791387E+02 -0.20275162963E+02 -0.76427061643E+01  0.30416048406E+02  0.00000000000E+00 0. -1.
         -5    1    5    5    0  501  0.83673662151E+02  0.41750474205E+02  0.45299799852E+02  0.10401223823E+03  0.47000000000E+01 0.  1.
         13    1    6    6    0    0  0.43848414198E+02  0.47190427007E+02  0.18131093939E+03  0.19241433567E+03  0.00000000000E+00 0. -1.
        -14    1    6    6    0    0  0.36940416788E+02  0.12092793488E+03  0.15232806052E+03  0.19796968921E+03  0.00000000000E+00 0.  1.
</event>
<event>
12    1  0.2685360E-002  0.2069044E+03  0.7818608E-02  0.1144041E+00
         -2   -1    0    0    0  501 -0.00000000000E+00  0.00000000000E+00  0.60364084763E+02  0.60364084763E+02  0.00000000000E+00 0. -1.
          2   -1    0    0  502    0  0.00000000000E+00 -0.00000000000E+00 -0.79003288340E+03  0.79003288340E+03  0.00000000000E+00 0.  1.
          6    2    1    2  502    0 -0.10719424442E+03  0.47540068897E+02 -0.49923371283E+03  0.54002469297E+03  0.16923860318E+03 0.  0.
         24    2    3    3    0    0 -0.14855563616E+02  0.73295028061E+02 -0.26250588384E+03  0.28458016883E+03  0.80521329686E+02 0.  0.
         -6    2    1    2    0  501  0.10719424442E+03 -0.47540068897E+02 -0.23043508581E+03  0.31037227519E+03  0.17169728084E+03 0.  0.
        -24    2    5    5    0    0  0.60230148562E+02 -0.96756371339E+02 -0.13715186004E+03  0.19482262813E+03  0.78458635778E+02 0.  0.
          5    1    3    3  502    0 -0.92338680807E+02 -0.25754959164E+02 -0.23672782899E+03  0.25544452414E+03  0.47000000000E+01 0. -1.
        -11    1    4    4    0    0 -0.44713588951E+02  0.24935187235E+02 -0.15068277553E+03  0.15914260096E+03  0.00000000000E+00 0.  1.
         12    1    4    4    0    0  0.29858025336E+02  0.48359840827E+02 -0.11182310831E+03  0.12543756787E+03  0.00000000000E+00 0. -1.
         -5    1    5    5    0  501  0.46964095861E+02  0.49216302442E+02 -0.93283225769E+02  0.11554964706E+03  0.47000000000E+01 0.  1.
         13    1    6    6    0    0 -0.12894110077E+02  0.24856324812E+01 -0.48684177521E+01  0.14004925380E+02  0.00000000000E+00 0. -1.
        -14    1    6    6    0    0  0.73124258639E+02 -0.99242003821E+02 -0.13228344229E+03  0.18081770275E+03  0.00000000000E+00 0.  1.
</event>
<event>
12    1  0.2685360E-002  0.1843335E+03  0.7818608E-02  0.1163674E+00
         -2   -1    0    0    0  501 -0.00000000000E+00  0.00000000000E+00  0.84096980340E+02  0.84096980340E+02  0.00000000000E+00 0. -1.
          2   -1    0    0  502    0  0.00000000000E+00 -0.00000000000E+00 -0.44198190703E+03  0.44198190703E+03  0.00000000000E+00 0.  1.
          6    2    1    2  502    0 -0.34240920063E+01 -0.66802183936E+02 -0.25588561789E+03  0.31528687351E+03  0.17162198864E+03 0.  0.
         24    2    3    3    0    0  0.64141560582E+02 -0.52439265538E+02 -0.16890537467E+03  0.20411554833E+03  0.79184058435E+02 0.  0.
         -6    2    1    2    0  501  0.34240920063E+01  0.66802183936E+02 -0.10199930880E+03  0.21079201385E+03  0.17191613631E+03 0.  0.
        -24    2    5    5    0    0 -0.37563350672E+02 -0.16664059028E+02 -0.65115431812E+02  0.11064664674E+03  0.79460460598E+02 0.  0.
          5    1    3    3  502    0 -0.67565652588E+02 -0.14362918398E+02 -0.86980243215E+02  0.11117132519E+03  0.47000000000E+01 0. -1.
        -11    1    4    4    0    0  0.11229846894E+02 -0.50769014788E+02 -0.12484694171E+03  0.13524186178E+03  0.00000000000E+00 0.  1.
         12    1    4    4    0    0  0.52911713688E+02 -0.16702507504E+01 -0.44058432967E+02  0.68873686546E+02  0.00000000000E+00 0. -1.
         -5    1    5    5    0  501  0.40987442679E+02  0.83466242964E+02 -0.36883876985E+02  0.10014536711E+03  0.47000000000E+01 0.  1.
         11    1    6    6    0    0 -0.36211119313E+02  0.23806159726E+02 -0.14222042501E+02  0.45609701772E+02  0.00000000000E+00 0. -1.
        -12    1    6    6    0    0 -0.13522313593E+01 -0.40470218755E+02 -0.50893389312E+02  0.65036944972E+02  0.00000000000E+00 0.  1.
</event>
<event>
12    1  0.2685360E-002  0.2158149E+03  0.7818608E-02  0.1137042E+00
          2   -1    0    0  502    0  0.00000000000E+00  0.00000000000E+00  0.33471517928E+02  0.33471517928E+02  0.00000000000E+00 0. -1.
         -2   -1    0    0    0  501 -0.00000000000E+00 -0.00000000000E+00 -0.13963336353E+04  0.13963336353E+04  0.00000000000E+00 0.  1.
          6    2    1    2  502    0  0.36466870682E+02 -0.12382351028E+03 -0.63526175501E+03  0.67047025496E+03  0.17120388735E+03 0.  0.
         24    2    3    3    0    0  0.40255193442E+02 -0.50117882003E+02 -0.54082432078E+03  0.55052280808E+03  0.80325173922E+02 0.  0.
         -6    2    1    2    0  501 -0.36466870682E+02  0.12382351028E+03 -0.72760036237E+03  0.75933489828E+03  0.17471435566E+03 0.  0.
        -24    2    5    5    0    0 -0.66336736528E+02  0.10546106925E+03 -0.69686481835E+03  0.71247178067E+03  0.80454107767E+02 0.  0.
          5    1    3    3  502    0 -0.37883227602E+01 -0.73705628280E+02 -0.94437434230E+02  0.11994744688E+03  0.47000000000E+01 0. -1.
        -13    1    4    4    0    0  0.48733796723E+02 -0.60354150455E+02 -0.52042927160E+03  0.52617889843E+03  0.00000000000E+00 0.  1.
         14    1    4    4    0    0 -0.84786032810E+01  0.10236268452E+02 -0.20395049185E+02  0.24343909642E+02  0.00000000000E+00 0. -1.
         -5    1    5    5    0  501  0.29869865846E+02  0.18362441029E+02 -0.30735544023E+02  0.46863117615E+02  0.47000000000E+01 0.  1.
         11    1    6    6    0    0 -0.73638795753E+02  0.11400367033E+03 -0.61212768506E+03  0.62699267293E+03  0.00000000000E+00 0. -1.
        -12    1    6    6    0    0  0.73020592246E+01 -0.85426010803E+01 -0.84737133284E+02  0.85479107736E+02  0.00000000000E+00 0.  1.
</event>
<event>
12    1  0.2685360E-002  0.1874861E+03  0.7818608E-02  0.1160748E+00
          2   -1    0    0  502    0  0.00000000000E+00  0.00000000000E+00  0.22693165143E+04  0.22693165143E+04  0.00000000000E+00 0. -1.
         -2   -1    0    0    0  501 -0.00000000000E+00 -0.00000000000E+00 -0.18586678315E+02  0.18586678315E+02  0.00000000000E+00 0.  1.
          6    2    1    2  502    0  0.71169702478E+02 -0.17963929233E+01  0.15876608360E+04  0.15985846565E+04  0.17244599164E+03 0.  0.
         24    2    3    3    0    0  0.66704369485E+02  0.47628455420E+02  0.56429666033E+03  0.57400714307E+03  0.65844793011E+02 0.  0.
         -6    2    1    2    0  501 -0.71169702478E+02  0.17963929233E+01  0.66306899996E+03  0.68931853616E+03  0.17444538402E+03 0.  0.
        -24    2    5    5    0    0  0.10038224359E+01 -0.52799668095E+02  0.27436669473E+03  0.29019284208E+03  0.78396363507E+02 0.  0.
          5    1    3    3  502    0  0.44653329934E+01 -0.49424848344E+02  0.10233641757E+04  0.10245775134E+04  0.47000000000E+01 0. -1.
        -11    1    4    4    0    0  0.42617436643E+02  0.19113092100E+02  0.13048466641E+03  0.13859222332E+03  0.00000000000E+00 0.  1.
         12    1    4    4    0    0  0.24086932842E+02  0.28515363321E+02  0.43381199392E+03  0.43541491975E+03  0.00000000000E+00 0. -1.
         -5    1    5    5    0  501 -0.72173524914E+02  0.54596061019E+02  0.38870230523E+03  0.39912569407E+03  0.47000000000E+01 0.  1.
         11    1    6    6    0    0  0.18020501023E+02 -0.41787221861E+01  0.19304115126E+03  0.19392546572E+03  0.00000000000E+00 0. -1.
        -12    1    6    6    0    0 -0.17016678587E+02 -0.48620945909E+02  0.81325543467E+02  0.96267376361E+02  0.00000000000E+00 0.  1.
</event>
<event>
12    1  0.2685360E-002  0.2876775E+03  0.7818608E-02  0.1091568E+00
          2   -1    0    0  502    0  0.00000000000E+00  0.00000000000E+00  0.71964245703E+03  0.71964245703E+03  0.00000000000E+00 0. -1.
         -2   -1    0    0    0  501 -0.00000000000E+00 -0.00000000000E+00 -0.28599634463E+03  0.28599634463E+03  0.00000000000E+00 0.  1.
          6    2    1    2  502    0  0.22394814902E+03  0.55933668316E+02  0.60568248721E+03  0.67061387281E+03  0.17201843618E+03 0.  0.
         24    2    3    3    0    0  0.13451154734E+03 -0.31076174421E+02  0.27718356158E+03  0.31918357731E+03  0.77384392675E+02 0.  0.
         -6    2    1    2    0  501 -0.22394814902E+03 -0.55933668316E+02 -0.17203637481E+03  0.33502492885E+03  0.17135880482E+03 0.  0.
        -24    2    5    5    0    0 -0.95496890749E+02  0.35428653967E+02 -0.72824605331E+02  0.14871372444E+03  0.80234051561E+02 0.  0.
          5    1    3    3  502    0  0.89436601687E+02  0.87009842738E+02  0.32849892563E+03  0.35143029550E+03  0.47000000000E+01 0. -1.
        -11    1    4    4    0    0  0.25310077136E+02 -0.29990246924E+02  0.13074839204E+03  0.13651064770E+03  0.00000000000E+00 0.  1.
         12    1    4    4    0    0  0.10920147020E+03 -0.10859274978E+01  0.14643516954E+03  0.18267292960E+03  0.00000000000E+00 0. -1.
         -5    1    5    5    0  501 -0.12845125828E+03 -0.91362322283E+02 -0.99211769477E+02  0.18631120441E+03  0.47000000000E+01 0.  1.
         13    1    6    6    0    0 -0.34615948265E+02  0.53137925610E+02 -0.51892605748E+02  0.81943550959E+02  0.00000000000E+00 0. -1.
        -14    1    6    6    0    0 -0.60880942484E+02 -0.17709271643E+02 -0.20931999583E+02  0.66770173479E+02  0.00000000000E+00 0.  1.
</event>
<event>
12    1  0.2685360E-002  0.1941871E+03  0.7818608E-02  0.1154738E+00
          2   -1    0    0  502    0  0.00000000000E+00  0.00000000000E+00  0.56700649728E+03  0.56700649728E+03  0.00000000000E+00 0.  1.
         -2   -1    0    0    0  501 -0.00000000000E+00 -0.00000000000E+00 -0.87086775485E+02  0.87086775485E+02  0.00000000000E+00 0. -1.
          6    2    1    2  502    0 -0.19495001250E+01  0.88645590739E+02  0.81338639305E+02  0.21089648177E+03  0.17320366760E+03 0.  0.
         24    2    3    3    0    0 -0.22907836060E+02  0.85318567539E+02  0.11832528416E+03  0.16799633228E+03  0.80111596350E+02 0.  0.
         -6    2    1    2    0  501  0.19495001250E+01 -0.88645590739E+02  0.39858108249E+03  0.44319679100E+03  0.17232142909E+03 0.  0.
        -24    2    5    5    0    0 -0.51822655705E+02 -0.11098849964E+02  0.15863991840E+03  0.18532319023E+03  0.79807825509E+02 0.  0.
          5    1    3    3  502    0  0.20958335935E+02  0.33270231994E+01 -0.36986644851E+02  0.42900149485E+02  0.47000000000E+01 0. -1.
        -13    1    4    4    0    0  0.13575532114E+02 -0.80031982323E+01  0.32280264021E+02  0.35921604911E+02  0.00000000000E+00 0.  1.
         14    1    4    4    0    0 -0.36483368174E+02  0.93321765772E+02  0.86045020135E+02  0.13207472737E+03  0.00000000000E+00 0. -1.
         -5    1    5    5    0  501  0.53772155830E+02 -0.77546740775E+02  0.23994116409E+03  0.25787360077E+03  0.47000000000E+01 0.  1.
         13    1    6    6    0    0  0.42810066321E+01  0.22169251052E+02  0.13768934060E+02  0.26445911879E+02  0.00000000000E+00 0. -1.
        -14    1    6    6    0    0 -0.56103662337E+02 -0.33268101016E+02  0.14487098434E+03  0.15887727835E+03  0.00000000000E+00 0.  1.
</event>
<event>
12    1  0.2685360E-002  0.1836213E+03  0.7818608E-02  0.1164344E+00
          2   -1    0    0  502    0  0.00000000000E+00  0.00000000000E+00  0.23560610333E+03  0.23560610333E+03  0.00000000000E+00 0. -1.
         -2   -1    0    0    0  501 -0.00000000000E+00 -0.00000000000E+00 -0.15273040502E+03  0.15273040502E+03  0.00000000000E+00 0.  1.
          6    2    1    2  502    0 -0.13912560662E+02 -0.62480970754E+02 -0.72620853087E+01  0.18395507680E+03  0.17230583666E+03 0.  0.
         24    2    3    3    0    0  0.45990944118E+02 -0.30988525863E+02 -0.43850862390E+02  0.10687698278E+03  0.80151953439E+02 0.  0.
         -6    2    1    2    0  501  0.13912560662E+02  0.62480970754E+02  0.90137783619E+02  0.20438143155E+03  0.17189973379E+03 0.  0.
        -24    2    5    5    0    0 -0.41650476377E+02  0.10943252001E+02  0.88498500989E+02  0.12843299650E+03  0.82513834998E+02 0.  0.
          5    1    3    3  502    0 -0.59903504779E+02 -0.31492444891E+02  0.36588777081E+02  0.77078094024E+02  0.47000000000E+01 0. -1.
        -13    1    4    4    0    0  0.63108961611E+02 -0.34833335442E+02 -0.15806211531E+02  0.73796603015E+02  0.00000000000E+00 0.  1.
         14    1    4    4    0    0 -0.17118017494E+02  0.38448095789E+01 -0.28044650859E+02  0.33080379765E+02  0.00000000000E+00 0. -1.
         -5    1    5    5    0  501  0.55563037039E+02  0.51537718752E+02  0.16392826304E+01  0.75948435051E+02  0.47000000000E+01 0.  1.
         13    1    6    6    0    0 -0.32249726182E+02 -0.45311984233E+01  0.10120332425E+03  0.10631410742E+03  0.00000000000E+00 0. -1.
        -14    1    6    6    0    0 -0.94007501954E+01  0.15474450425E+02 -0.12704823257E+02  0.22118889081E+02  0.00000000000E+00 0.  1.
</event>
<event>
12    1  0.2685360E-002  0.2187124E+03  0.7818608E-02  0.1134847E+00
          1   -1    0    0  502    0  0.00000000000E+00  0.00000000000E+00  0.26509013418E+03  0.26509013418E+03  0.00000000000E+00 0.  1.
         -1   -1    0    0    0  501 -0.00000000000E+00 -0.00000000000E+00 -0.25223961284E+03  0.25223961284E+03  0.00000000000E+00 0. -1.
          6    2    1    2  502    0  0.13063544247E+03  0.26918068855E+02  0.14441569249E+03  0.26188558321E+03  0.17302590904E+03 0.  0.
         24    2    3    3    0    0  0.15799879949E+03 -0.29719530732E+01  0.11220283964E+03  0.20990554274E+03  0.80612694450E+02 0.  0.
         -6    2    1    2    0  501 -0.13063544247E+03 -0.26918068855E+02 -0.13156517115E+03  0.25544416381E+03  0.17364367339E+03 0.  0.
        -24    2    5    5    0    0 -0.15613617602E+02 -0.50538359668E+02 -0.30126851971E+02  0.10020318685E+03  0.79593596424E+02 0.  0.
          5    1    3    3  502    0 -0.27363357023E+02  0.29890021929E+02  0.32212852846E+02  0.51980040467E+02  0.47000000000E+01 0. -1.
        -11    1    4    4    0    0  0.10429186959E+03 -0.40487303107E+02  0.71996898173E+02  0.13303972761E+03  0.00000000000E+00 0.  1.
         12    1    4    4    0    0  0.53706929899E+02  0.37515350034E+02  0.40205941465E+02  0.76865815136E+02  0.00000000000E+00 0. -1.
         -5    1    5    5    0  501 -0.11502182486E+03  0.23620290813E+02 -0.10143831918E+03  0.15524097697E+03  0.47000000000E+01 0.  1.
         13    1    6    6    0    0  0.14960652435E+02 -0.56012819113E+02 -0.36481455117E+02  0.68499296301E+02  0.00000000000E+00 0. -1.
        -14    1    6    6    0    0 -0.30574270037E+02  0.54744594451E+01  0.63546031461E+01  0.31703890544E+02  0.00000000000E+00 0.  1.
</event>
<event>
12    1  0.2685360E-002  0.1846964E+03  0.7818608E-02  0.1163334E+00
          2   -1    0    0  502    0  0.00000000000E+00  0.00000000000E+00  0.20572825670E+03  0.20572825670E+03  0.00000000000E+00 0. -1.
         -2   -1    0    0    0  501 -0.00000000000E+00 -0.00000000000E+00 -0.30592073581E+03  0.30592073581E+03  0.00000000000E+00 0.  1.
          6    2    1    2  502    0  0.66582013713E+02  0.16105151102E+02  0.12298566600E+03  0.22215335667E+03  0.17185487889E+03 0.  0.
         24    2    3    3    0    0  0.60542064929E+01  0.57219936429E+02  0.11052805971E+03  0.14778049218E+03  0.79447135531E+02 0.  0.
         -6    2    1    2    0  501 -0.66582013713E+02 -0.16105151102E+02 -0.22317814511E+03  0.28949563583E+03  0.17119199242E+03 0.  0.
        -24    2    5    5    0    0 -0.34694910754E+02 -0.69341300758E+02 -0.18647733132E+03  0.21724665869E+03  0.80064741256E+02 0.  0.
          5    1    3    3  502    0  0.60527807220E+02 -0.41114785327E+02  0.12457606291E+02  0.74372864500E+02  0.47000000000E+01 0. -1.
        -13    1    4    4    0    0  0.16935864939E+02  0.13726045303E+02 -0.62612257151E+01  0.22681066737E+02  0.00000000000E+00 0.  1.
         14    1    4    4    0    0 -0.10881658446E+02  0.43493891126E+02  0.11678928542E+03  0.12509942544E+03  0.00000000000E+00 0. -1.
         -5    1    5    5    0  501 -0.31887102959E+02  0.53236149656E+02 -0.36700813788E+02  0.72248977142E+02  0.47000000000E+01 0.  1.
         13    1    6    6    0    0 -0.17334596038E+02 -0.49740465986E+02 -0.34355752541E+02  0.62888153964E+02  0.00000000000E+00 0. -1.
        -14    1    6    6    0    0 -0.17360314716E+02 -0.19600834771E+02 -0.15212157878E+03  0.15435850473E+03  0.00000000000E+00 0.  1.
</event>
<event>
12    1  0.2685360E-002  0.2051792E+03  0.7818608E-02  0.1145441E+00
          1   -1    0    0  502    0  0.00000000000E+00  0.00000000000E+00  0.30366263049E+04  0.30366263049E+04  0.00000000000E+00 0. -1.
         -1   -1    0    0    0  501 -0.00000000000E+00 -0.00000000000E+00 -0.13909703112E+02  0.13909703112E+02  0.00000000000E+00 0.  1.
          6    2    1    2  502    0  0.17245364258E+02 -0.11090695479E+03  0.14230411491E+04  0.14377474621E+04  0.17167963611E+03 0.  0.
         24    2    3    3    0    0 -0.26087223136E+01 -0.12218332212E+02  0.29636329850E+03  0.30657165875E+03  0.77452463998E+02 0.  0.
         -6    2    1    2    0  501 -0.17245364258E+02  0.11090695479E+03  0.15996754527E+04  0.16127885459E+04  0.17183592398E+03 0.  0.
        -24    2    5    5    0    0  0.35502581942E+02  0.80016616408E+01  0.80182988776E+03  0.80659286208E+03  0.79601610228E+02 0.  0.
          5    1    3    3  502    0  0.19854086572E+02 -0.98688622580E+02  0.11266778506E+04  0.11311758033E+04  0.47000000000E+01 0. -1.
        -13    1    4    4    0    0 -0.24517199892E+02 -0.51926846226E+01  0.27166103007E+03  0.27281453833E+03  0.00000000000E+00 0.  1.
         14    1    4    4    0    0  0.21908477578E+02 -0.70256475898E+01  0.24702268426E+02  0.33757120422E+02  0.00000000000E+00 0. -1.
         -5    1    5    5    0  501 -0.52747946200E+02  0.10290529315E+03  0.79784556490E+03  0.80619568383E+03  0.47000000000E+01 0.  1.
         11    1    6    6    0    0  0.37035757165E+02  0.13614878957E+01  0.79783111807E+03  0.79869142597E+03  0.00000000000E+00 0. -1.
        -12    1    6    6    0    0 -0.15331752232E+01  0.66401737451E+01  0.39987696849E+01  0.79014361114E+01  0.00000000000E+00 0.  1.
</event>
<event>
12    1  0.2685360E-002  0.1916199E+03  0.7818608E-02  0.1157008E+00
         -2   -1    0    0    0  501 -0.00000000000E+00  0.00000000000E+00  0.46279255552E+03  0.46279255552E+03  0.00000000000E+00 0. -1.
          2   -1    0    0  502    0  0.00000000000E+00 -0.00000000000E+00 -0.97037677918E+02  0.97037677918E+02  0.00000000000E+00 0.  1.
          6    2    1    2  502    0 -0.50862016994E+02  0.66144021310E+02  0.30241309631E+03  0.35800900538E+03  0.17249577033E+03 0.  0.
         24    2    3    3    0    0  0.35110335281E+02  0.20488201847E+01  0.11298873774E+03  0.14028643470E+03  0.75345176331E+02 0.  0.
         -6    2    1    2    0  501  0.50862016994E+02 -0.66144021310E+02  0.63341781291E+02  0.20182122806E+03  0.17250405941E+03 0.  0.
        -24    2    5    5    0    0  0.25469489632E+01 -0.49778919101E+02  0.10282257957E+03  0.13714522167E+03  0.75841289690E+02 0.  0.
          5    1    3    3  502    0 -0.85972352275E+02  0.64095201126E+02  0.18942435857E+03  0.21772257068E+03  0.47000000000E+01 0. -1.
        -11    1    4    4    0    0  0.10000757474E+02 -0.33166855587E+02  0.26602220946E+02  0.43677610040E+02  0.00000000000E+00 0.  1.
         12    1    4    4    0    0  0.25109577807E+02  0.35215675772E+02  0.86386516795E+02  0.96608824657E+02  0.00000000000E+00 0. -1.
         -5    1    5    5    0  501  0.48315068031E+02 -0.16365102210E+02 -0.39480798284E+02  0.64676006388E+02  0.47000000000E+01 0.  1.
         11    1    6    6    0    0  0.21843354124E+02  0.11236772284E+02  0.16111057724E+02  0.29376237876E+02  0.00000000000E+00 0. -1.
        -12    1    6    6    0    0 -0.19296405161E+02 -0.61015691385E+02  0.86711521851E+02  0.10776898380E+03  0.00000000000E+00 0.  1.
</event>
<event>
12    1  0.2685360E-002  0.2758723E+03  0.7818608E-02  0.1097965E+00
         -2   -1    0    0    0  501 -0.00000000000E+00  0.00000000000E+00  0.46980281688E+03  0.46980281688E+03  0.00000000000E+00 0. -1.
          2   -1    0    0  502    0  0.00000000000E+00 -0.00000000000E+00 -0.17148434277E+03  0.17148434277E+03  0.00000000000E+00 0.  1.
          6    2    1    2  502    0  0.21507300137E+03 -0.20944448816E+02  0.73731805028E+02  0.28555777311E+03  0.17149867887E+03 0.  0.
         24    2    3    3    0    0  0.17640700433E+03  0.23511568961E+02  0.10269460330E+03  0.21973733154E+03  0.77885096630E+02 0.  0.
         -6    2    1    2    0  501 -0.21507300137E+03  0.20944448816E+02  0.22458666907E+03  0.35572938654E+03  0.17149098714E+03 0.  0.
        -24    2    5    5    0    0 -0.14346431388E+03 -0.34697807274E+02  0.20136988927E+03  0.26200119627E+03  0.79428252891E+02 0.  0.
          5    1    3    3  502    0  0.38665997045E+02 -0.44456017777E+02 -0.28962798268E+02  0.65820441564E+02  0.47000000000E+01 0. -1.
        -13    1    4    4    0    0 -0.14435866385E+01  0.11086275492E+02  0.20647536371E+02  0.23479995845E+02  0.00000000000E+00 0.  1.
         14    1    4    4    0    0  0.17785059096E+03  0.12425293469E+02  0.82047066925E+02  0.19625733570E+03  0.00000000000E+00 0. -1.
         -5    1    5    5    0  501 -0.71608687496E+02  0.55642256090E+02  0.23216779809E+02  0.93728190276E+02  0.47000000000E+01 0.  1.
         11    1    6    6    0    0 -0.14300999708E+03 -0.11117185119E+02  0.18009647701E+03  0.23023942343E+03  0.00000000000E+00 0. -1.
        -12    1    6    6    0    0 -0.45431679972E+00 -0.23580622155E+02  0.21273412256E+02  0.31761772841E+02  0.00000000000E+00 0.  1.
</event>
<event>
12    1  0.2685360E-002  0.1755945E+03  0.7818608E-02  0.1172136E+00
          2   -1    0    0  502    0  0.00000000000E+00  0.00000000000E+00  0.11340445801E+04  0.11340445801E+04  0.00000000000E+00 0. -1.
         -2   -1    0    0    0  501 -0.00000000000E+00 -0.00000000000E+00 -0.48889181256E+02  0.48889181256E+02  0.00000000000E+00 0.  1.
          6    2    1    2  502    0 -0.15944337671E+01 -0.43215676618E+02  0.14552013406E+03  0.22670409872E+03  0.16837013403E+03 0.  0.
         24    2    3    3    0    0 -0.58995359549E+02 -0.54663363845E+02  0.80070544427E+02  0.13877427098E+03  0.79865326674E+02 0.  0.
         -6    2    1    2    0  501  0.15944337671E+01  0.43215676618E+02  0.93963526478E+03  0.95622966264E+03  0.17201918487E+03 0.  0.
        -24    2    5    5    0    0 -0.64266916555E+02  0.26248602816E+02  0.44588799681E+03  0.45779806884E+03  0.77095657644E+02 0.  0.
          5    1    3    3  502    0  0.57400925782E+02  0.11447687227E+02  0.65449589634E+02  0.87929827742E+02  0.47000000000E+01 0. -1.
        -11    1    4    4    0    0 -0.37501475660E+02 -0.38403094536E+02 -0.64256380822E+00  0.53680268580E+02  0.00000000000E+00 0.  1.
         12    1    4    4    0    0 -0.21493883890E+02 -0.16260269309E+02  0.80713108236E+02  0.85094002396E+02  0.00000000000E+00 0. -1.
         -5    1    5    5    0  501  0.65861350322E+02  0.16967073802E+02  0.49374726797E+03  0.49843159379E+03  0.47000000000E+01 0.  1.
         13    1    6    6    0    0 -0.44533098360E+02  0.11275519413E+01  0.39639935431E+03  0.39889461806E+03  0.00000000000E+00 0. -1.
        -14    1    6    6    0    0 -0.19733818195E+02  0.25121050875E+02  0.49488642497E+02  0.58903450781E+02  0.00000000000E+00 0.  1.
</event>
<event>
12    1  0.2685360E-002  0.2911814E+03  0.7818608E-02  0.1089734E+00
          1   -1    0    0  502    0  0.00000000000E+00  0.00000000000E+00  0.37870373808E+03  0.37870373808E+03  0.00000000000E+00 0. -1.
         -1   -1    0    0    0  501 -0.00000000000E+00 -0.00000000000E+00 -0.33371669549E+03  0.33371669549E+03  0.00000000000E+00 0.  1.
          6    2    1    2  502    0 -0.45483592736E+02 -0.22417221057E+03 -0.18152519639E+03  0.34734038284E+03  0.18807447309E+03 0.  0.
         24    2    3    3    0    0  0.22289577957E+02 -0.11572800139E+03 -0.39909866281E+02  0.15647304438E+03  0.94874762712E+02 0.  0.
         -6    2    1    2    0  501  0.45483592736E+02  0.22417221057E+03  0.22651223898E+03  0.36508005073E+03  0.17220253144E+03 0.  0.
        -24    2    5    5    0    0  0.14244780154E+02  0.22430491033E+03  0.23265208202E+03  0.33289824386E+03  0.78604344264E+02 0.  0.
          5    1    3    3  502    0 -0.67773170693E+02 -0.10844420918E+03 -0.14161533011E+03  0.19086733846E+03  0.47000000000E+01 0. -1.
        -11    1    4    4    0    0 -0.10564150302E+02 -0.87341511910E+01 -0.42359364864E+02  0.44521932352E+02  0.00000000000E+00 0.  1.
         12    1    4    4    0    0  0.32853728259E+02 -0.10699385020E+03  0.24494985834E+01  0.11195111203E+03  0.00000000000E+00 0. -1.
         -5    1    5    5    0  501  0.31238812581E+02 -0.13269975327E+00 -0.61398430494E+01  0.32181806869E+02  0.47000000000E+01 0.  1.
         13    1    6    6    0    0 -0.63274401778E+01  0.16418422335E+03  0.20721871894E+03  0.26445433098E+03  0.00000000000E+00 0. -1.
        -14    1    6    6    0    0  0.20572220332E+02  0.60120686981E+02  0.25433363080E+02  0.68443912877E+02  0.00000000000E+00 0.  1.
</event>
<event>
12    1  0.2685360E-002  0.1934319E+03  0.7818608E-02  0.1155402E+00
          2   -1    0    0  502    0  0.00000000000E+00  0.00000000000E+00  0.16821315019E+04  0.16821315019E+04  0.00000000000E+00 0. -1.
         -2   -1    0    0    0  501 -0.00000000000E+00 -0.00000000000E+00 -0.22243167595E+02  0.22243167595E+02  0.00000000000E+00 0.  1.
          6    2    1    2  502    0  0.12841228758E+02 -0.88571951318E+02  0.83017475535E+03  0.85244709563E+03  0.17165674679E+03 0.  0.
         24    2    3    3    0    0 -0.50564172350E+02 -0.88286167503E+02  0.59318874697E+03  0.60708046235E+03  0.79514874929E+02 0.  0.
         -6    2    1    2    0  501 -0.12841228758E+02  0.88571951318E+02  0.82971357897E+03  0.85192757388E+03  0.17130697676E+03 0.  0.
        -24    2    5    5    0    0  0.14147665330E+02 -0.19230866080E+02  0.27577903921E+03  0.28693605874E+03  0.75552899946E+02 0.  0.
          5    1    3    3  502    0  0.63405401108E+02 -0.28578381489E+00  0.23698600838E+03  0.24536663329E+03  0.47000000000E+01 0. -1.
        -11    1    4    4    0    0  0.79816082011E+01 -0.49832186626E+02  0.36237743446E+03  0.36587478446E+03  0.00000000000E+00 0.  1.
         12    1    4    4    0    0 -0.58545780552E+02 -0.38453980877E+02  0.23081131251E+03  0.24120567789E+03  0.00000000000E+00 0. -1.
         -5    1    5    5    0  501 -0.26988894087E+02  0.10780281740E+03  0.55393453976E+03  0.56499151514E+03  0.47000000000E+01 0.  1.
         11    1    6    6    0    0  0.12993808476E+01  0.16754716340E+02  0.21143364736E+03  0.21210043882E+03  0.00000000000E+00 0. -1.
        -12    1    6    6    0    0  0.12848284482E+02 -0.35985582420E+02  0.64345391851E+02  0.74835619920E+02  0.00000000000E+00 0.  1.
</event>
<event>
12    1  0.2685360E-002  0.2231293E+03  0.7818608E-02  0.1131571E+00
          1   -1    0    0  502    0  0.00000000000E+00  0.00000000000E+00  0.42237945280E+03  0.42237945280E+03  0.00000000000E+00 0.  1.
         -1   -1    0    0    0  501 -0.00000000000E+00 -0.00000000000E+00 -0.17034586426E+03  0.17034586426E+03  0.00000000000E+00 0. -1.
          6    2    1    2  502    0  0.42623092971E+02  0.13413057637E+03 -0.38051308262E+02  0.22739406587E+03  0.17450621639E+03 0.  0.
         24    2    3    3    0    0  0.85565779738E+02  0.11182268608E+03  0.35811615607E+01  0.16338571595E+03  0.82802485914E+02 0.  0.
         -6    2    1    2    0  501 -0.42623092971E+02 -0.13413057637E+03  0.29008489680E+03  0.36533125119E+03  0.17178456324E+03 0.  0.
        -24    2    5    5    0    0  0.27645884588E+02 -0.12459709330E+03  0.18671733543E+03  0.23988979373E+03  0.79968863869E+02 0.  0.
          5    1    3    3  502    0 -0.42942686767E+02  0.22307890293E+02 -0.41632469823E+02  0.64008349921E+02  0.47000000000E+01 0. -1.
        -11    1    4    4    0    0  0.61612892464E+02  0.72144982053E+02  0.41451607037E+02  0.10353396872E+03  0.00000000000E+00 0.  1.
         12    1    4    4    0    0  0.23952887273E+02  0.39677704024E+02 -0.37870445476E+02  0.59851747225E+02  0.00000000000E+00 0. -1.
         -5    1    5    5    0  501 -0.70268977559E+02 -0.95334830672E+01  0.10336756137E+03  0.12544145746E+03  0.47000000000E+01 0.  1.
         11    1    6    6    0    0 -0.25763809436E+02 -0.35562352698E+02  0.35543726938E+02  0.56496117838E+02  0.00000000000E+00 0. -1.
        -12    1    6    6    0    0  0.53409694024E+02 -0.89034740604E+02  0.15117360850E+03  0.18339367589E+03  0.00000000000E+00 0.  1.
</event>
<event>
12    1  0.2685360E-002  0.1821646E+03  0.7818608E-02  0.1165724E+00
         -1   -1    0    0    0  501 -0.00000000000E+00  0.00000000000E+00  0.50250221452E+03  0.50250221452E+03  0.00000000000E+00 0. -1.
          1   -1    0    0  502    0  0.00000000000E+00 -0.00000000000E+00 -0.96197373478E+02  0.96197373478E+02  0.00000000000E+00 0.  1.
          6    2    1    2  502    0 -0.53273297739E+02 -0.10880467912E+02  0.36548321410E+02  0.18707831332E+03  0.17523152309E+03 0.  0.
         24    2    3    3    0    0 -0.40270568370E+02 -0.15591544414E+02 -0.50671691205E+02  0.98643671844E+02  0.72788314799E+02 0.  0.
         -6    2    1    2    0  501  0.53273297739E+02  0.10880467912E+02  0.36975651963E+03  0.41162127468E+03  0.17249858295E+03 0.  0.
        -24    2    5    5    0    0  0.21468625763E+02 -0.36593162686E+02  0.95866256973E+02  0.13179409812E+03  0.79871043717E+02 0.  0.
          5    1    3    3  502    0 -0.13002729370E+02  0.47110765016E+01  0.87220012615E+02  0.88434641478E+02  0.47000000000E+01 0. -1.
        -11    1    4    4    0    0 -0.57346573786E+02 -0.22191576321E+01 -0.51256805404E+02  0.76946827653E+02  0.00000000000E+00 0.  1.
         12    1    4    4    0    0  0.17076005417E+02 -0.13372386782E+02  0.58511419892E+00  0.21696844191E+02  0.00000000000E+00 0. -1.
         -5    1    5    5    0  501  0.31804671977E+02  0.47473630599E+02  0.27389026266E+03  0.27982717656E+03  0.47000000000E+01 0.  1.
         13    1    6    6    0    0  0.50721912617E+02 -0.12493875898E+02  0.60802539651E+02  0.80160826982E+02  0.00000000000E+00 0. -1.
        -14    1    6    6    0    0 -0.29253286854E+02 -0.24099286789E+02  0.35063717322E+02  0.51633271133E+02  0.00000000000E+00 0.  1.
</event>
<event>
12    1  0.2685360E-002  0.3138056E+03  0.7818608E-02  0.1078536E+00
          2   -1    0    0  502    0  0.00000000000E+00  0.00000000000E+00  0.32986569374E+04  0.32986569374E+04  0.00000000000E+00 0.  1.
         -2   -1    0    0    0  501 -0.00000000000E+00 -0.00000000000E+00 -0.32430599591E+02  0.32430599591E+02  0.00000000000E+00 0. -1.
          6    2    1    2  502    0 -0.57760028320E+02  0.25672503440E+03  0.11614332108E+04  0.12029652501E+04  0.17015970668E+03 0.  0.
         24    2    3    3    0    0  0.12738788711E+02  0.10956675411E+03  0.35325397334E+03  0.37846454517E+03  0.79245769142E+02 0.  0.
         -6    2    1    2    0  501  0.57760028320E+02 -0.25672503440E+03  0.21047931271E+04  0.21281222869E+04  0.17177425901E+03 0.  0.
        -24    2    5    5    0    0  0.64208297119E+02 -0.21512048447E+03  0.20143227213E+04  0.20282248241E+04  0.76160248585E+02 0.  0.
          5    1    3    3  502    0 -0.70498817031E+02  0.14715828028E+03  0.80817923744E+03  0.82450070496E+03  0.47000000000E+01 0. -1.
        -13    1    4    4    0    0 -0.20530850428E+01  0.85247292691E+02  0.33243940155E+03  0.34320150316E+03  0.00000000000E+00 0.  1.
         14    1    4    4    0    0  0.14791873754E+02  0.24319461422E+02  0.20814571789E+02  0.35263042009E+02  0.00000000000E+00 0. -1.
         -5    1    5    5    0  501 -0.64482687983E+01 -0.41604549924E+02  0.90470405816E+02  0.99897462797E+02  0.47000000000E+01 0.  1.
         13    1    6    6    0    0 -0.32936129267E+00  0.85764078513E+00  0.19350486892E+03  0.19350704980E+03  0.00000000000E+00 0. -1.
        -14    1    6    6    0    0  0.64537658411E+02 -0.21597812526E+03  0.18208178523E+04  0.18347177743E+04  0.00000000000E+00 0.  1.
</event>
<event>
12    1  0.2685360E-002  0.2374577E+03  0.7818608E-02  0.1121498E+00
         -1   -1    0    0    0  501 -0.00000000000E+00  0.00000000000E+00  0.56845403523E+02  0.56845403523E+02  0.00000000000E+00 0. -1.
          1   -1    0    0  502    0  0.00000000000E+00 -0.00000000000E+00 -0.10726896771E+04  0.10726896771E+04  0.00000000000E+00 0.  1.
          6    2    1    2  502    0 -0.10471436829E+03 -0.13001395779E+03 -0.65686044622E+03  0.69746619379E+03  0.16469583337E+03 0.  0.
         24    2    3    3    0    0 -0.38073184545E+02 -0.99293469375E+02 -0.56223454822E+03  0.57762902781E+03  0.78986366621E+02 0.  0.
         -6    2    1    2    0  501  0.10471436829E+03  0.13001395779E+03 -0.35898382734E+03  0.43206888682E+03  0.17304741118E+03 0.  0.
        -24    2    5    5    0    0  0.11649268068E+03  0.93011247922E+02 -0.16986959157E+03  0.23895178931E+03  0.77592799801E+02 0.  0.
          5    1    3    3  502    0 -0.66641183742E+02 -0.30720488413E+02 -0.94625898000E+02  0.11983716598E+03  0.47000000000E+01 0. -1.
        -11    1    4    4    0    0  0.19295552360E+02 -0.20269594402E+02 -0.63036456340E+02  0.68969338304E+02  0.00000000000E+00 0.  1.
         12    1    4    4    0    0 -0.57368736905E+02 -0.79023874973E+02 -0.49919809188E+03  0.50865968951E+03  0.00000000000E+00 0. -1.
         -5    1    5    5    0  501 -0.11778312388E+02  0.37002709866E+02 -0.18911423577E+03  0.19311709751E+03  0.47000000000E+01 0.  1.
         13    1    6    6    0    0  0.55411597359E+02 -0.15276722995E+01 -0.59256193373E+02  0.81142315456E+02  0.00000000000E+00 0. -1.
        -14    1    6    6    0    0  0.61081083316E+02  0.94538920221E+02 -0.11061339820E+03  0.15780947385E+03  0.00000000000E+00 0.  1.
</event>
<event>
12    1  0.2685360E-002  0.2367684E+03  0.7818608E-02  0.1121964E+00
         -2   -1    0    0    0  501 -0.00000000000E+00  0.00000000000E+00  0.50618793713E+02  0.50618793713E+02  0.00000000000E+00 0. -1.
          2   -1    0    0  502    0  0.00000000000E+00 -0.00000000000E+00 -0.14700114718E+04  0.14700114718E+04  0.00000000000E+00 0.  1.
          6    2    1    2  502    0 -0.10798174950E+03  0.12137408585E+03 -0.10873177971E+04  0.11128020910E+04  0.17226948302E+03 0.  0.
         24    2    3    3    0    0 -0.87454597476E+02  0.42329253870E+02 -0.89608915552E+03  0.90481186812E+03  0.79174930920E+02 0.  0.
         -6    2    1    2    0  501  0.10798174950E+03 -0.12137408585E+03 -0.33207488095E+03  0.40782817453E+03  0.17221604583E+03 0.  0.
        -24    2    5    5    0    0  0.12389821710E+03 -0.83545461420E+02 -0.32380181494E+03  0.36569894016E+03  0.80978312840E+02 0.  0.
          5    1    3    3  502    0 -0.20527152026E+02  0.79044831982E+02 -0.19122864160E+03  0.20799022285E+03  0.47000000000E+01 0. -1.
        -11    1    4    4    0    0 -0.36317132726E+02 -0.14297583782E+02 -0.49455597831E+03  0.49609371163E+03  0.00000000000E+00 0.  1.
         12    1    4    4    0    0 -0.51137464750E+02  0.56626837652E+02 -0.40153317721E+03  0.40871815649E+03  0.00000000000E+00 0. -1.
         -5    1    5    5    0  501 -0.15916467601E+02 -0.37828624432E+02 -0.82730660067E+01  0.42129234368E+02  0.47000000000E+01 0.  1.
         11    1    6    6    0    0  0.39770656943E+02 -0.46754991891E+02 -0.57865351226E+02  0.84357176890E+02  0.00000000000E+00 0. -1.
        -12    1    6    6    0    0  0.84127560159E+02 -0.36790469528E+02 -0.26593646372E+03  0.28134176327E+03  0.00000000000E+00 0.  1.
</event>
<event>
12    1  0.2685360E-002  0.1761693E+03  0.7818608E-02  0.1171563E+00
          2   -1    0    0  502    0  0.00000000000E+00  0.00000000000E+00  0.17000702938E+03  0.17000702938E+03  0.00000000000E+00 0. -1.
         -2   -1    0    0    0  501 -0.00000000000E+00 -0.00000000000E+00 -0.20495465540E+03  0.20495465540E+03  0.00000000000E+00 0.  1.
          6    2    1    2  502    0 -0.35199538746E+02  0.15584487657E+02  0.44543648332E+02  0.18127864879E+03  0.17145240773E+03 0.  0.
         24    2    3    3    0    0  0.14588160377E+02  0.37059907691E+02 -0.25544414623E+02  0.92540634285E+02  0.79529872968E+02 0.  0.
         -6    2    1    2    0  501  0.35199538746E+02 -0.15584487657E+02 -0.79491274355E+02  0.19368303598E+03  0.17237277032E+03 0.  0.
        -24    2    5    5    0    0  0.62920194248E+02 -0.52786420417E+02 -0.13605895019E+02  0.11296505934E+03  0.76358543916E+02 0.  0.
          5    1    3    3  502    0 -0.49787699122E+02 -0.21475420035E+02  0.70088062954E+02  0.88738014505E+02  0.47000000000E+01 0. -1.
        -13    1    4    4    0    0 -0.28484846999E+02  0.30916983969E+02 -0.25234135505E+02  0.49030684281E+02  0.00000000000E+00 0.  1.
         14    1    4    4    0    0  0.43073007376E+02  0.61429237218E+01 -0.31027911713E+00  0.43509950005E+02  0.00000000000E+00 0. -1.
         -5    1    5    5    0  501 -0.27720655502E+02  0.37201932760E+02 -0.65885379337E+02  0.80717976640E+02  0.47000000000E+01 0.  1.
         13    1    6    6    0    0  0.11612535737E+02 -0.64476143295E+00  0.26928908620E+02  0.29333135240E+02  0.00000000000E+00 0. -1.
        -14    1    6    6    0    0  0.51307658510E+02 -0.52141658984E+02 -0.40534803639E+02  0.83631924104E+02  0.00000000000E+00 0.  1.
</event>
<event>
12    1  0.2685360E-002  0.1987053E+03  0.7818608E-02  0.1150836E+00
         -2   -1    0    0    0  501 -0.00000000000E+00  0.00000000000E+00  0.85480563904E+02  0.85480563904E+02  0.00000000000E+00 0. -1.
          2   -1    0    0  502    0  0.00000000000E+00 -0.00000000000E+00 -0.51205948393E+03  0.51205948393E+03  0.00000000000E+00 0.  1.
          6    2    1    2  502    0 -0.88699681097E+02  0.38861499545E+02 -0.12125530908E+03  0.23405977547E+03  0.17522351138E+03 0.  0.
         24    2    3    3    0    0 -0.52053295839E+02  0.75611460624E+02 -0.30202670305E+02  0.12914938409E+03  0.85678022454E+02 0.  0.
         -6    2    1    2    0  501  0.88699681097E+02 -0.38861499545E+02 -0.30532361094E+03  0.36348027236E+03  0.17180672695E+03 0.  0.
        -24    2    5    5    0    0  0.10021778701E+03 -0.22308421314E+02 -0.31490481122E+03  0.34066447605E+03  0.79661625721E+02 0.  0.
          5    1    3    3  502    0 -0.36646385258E+02 -0.36749961078E+02 -0.91052638778E+02  0.10491039138E+03  0.47000000000E+01 0. -1.
        -13    1    4    4    0    0 -0.29637745046E+02  0.92687465671E+02 -0.25318128154E+02  0.10055033484E+03  0.00000000000E+00 0.  1.
         14    1    4    4    0    0 -0.22415550793E+02 -0.17076005047E+02 -0.48845421512E+01  0.28599049246E+02  0.00000000000E+00 0. -1.
         -5    1    5    5    0  501 -0.11518105909E+02 -0.16553078231E+02  0.95812002830E+01  0.22815796316E+02  0.47000000000E+01 0.  1.
         11    1    6    6    0    0  0.76965361557E+01 -0.35676494202E+01  0.30323462942E+01  0.90088797988E+01  0.00000000000E+00 0. -1.
        -12    1    6    6    0    0  0.92521250851E+02 -0.18740771894E+02 -0.31793715752E+03  0.33165559625E+03  0.00000000000E+00 0.  1.
</event>
<event>
12    1  0.2685360E-002  0.2418468E+03  0.7818608E-02  0.1118569E+00
          2   -1    0    0  502    0  0.00000000000E+00  0.00000000000E+00  0.13152206816E+04  0.13152206816E+04  0.00000000000E+00 0.  1.
         -2   -1    0    0    0  501 -0.00000000000E+00 -0.00000000000E+00 -0.46118868696E+02  0.46118868696E+02  0.00000000000E+00 0. -1.
          6    2    1    2  502    0  0.51925210546E+02  0.16145317428E+03  0.50845472645E+03  0.56347074737E+03  0.17380943392E+03 0.  0.
         24    2    3    3    0    0  0.66120680395E+02  0.38069749827E+02  0.17014131346E+03  0.20305010950E+03  0.80374313031E+02 0.  0.
         -6    2    1    2    0  501 -0.51925210546E+02 -0.16145317428E+03  0.76064708644E+03  0.79786880291E+03  0.17101836618E+03 0.  0.
        -24    2    5    5    0    0  0.21145283743E+02 -0.53129775609E+02  0.45419332948E+03  0.46468829479E+03  0.79835673037E+02 0.  0.
          5    1    3    3  502    0 -0.14195469849E+02  0.12338342446E+03  0.33831341298E+03  0.36042063787E+03  0.47000000000E+01 0. -1.
        -11    1    4    4    0    0  0.23892764678E+02  0.32092893308E+02  0.15116467719E+03  0.15637000235E+03  0.00000000000E+00 0.  1.
         12    1    4    4    0    0  0.42227915717E+02  0.59768565191E+01  0.18976636270E+02  0.46680107153E+02  0.00000000000E+00 0. -1.
         -5    1    5    5    0  501 -0.73070494289E+02 -0.10832339867E+03  0.30645375696E+03  0.33318050812E+03  0.47000000000E+01 0.  1.
         11    1    6    6    0    0 -0.19920211426E+02 -0.46748297752E+02  0.16873367021E+03  0.17621937926E+03  0.00000000000E+00 0. -1.
        -12    1    6    6    0    0  0.41065495169E+02 -0.63814778563E+01  0.28545965928E+03  0.28846891553E+03  0.00000000000E+00 0.  1.
</event>
<event>
12    1  0.2685360E-002  0.1838509E+03  0.7818608E-02  0.1164127E+00
         -1   -1    0    0    0  501 -0.00000000000E+00  0.00000000000E+00  0.32018693619E+02  0.32018693619E+02  0.00000000000E+00 0. -1.
          1   -1    0    0  502    0  0.00000000000E+00 -0.00000000000E+00 -0.10658776330E+04  0.10658776330E+04  0.00000000000E+00 0.  1.
          6    2    1    2  502    0  0.49510043949E+02  0.29321223185E+02 -0.46722897791E+03  0.50261109234E+03  0.17607956658E+03 0.  0.
         24    2    3    3    0    0 -0.27357746013E+02  0.33762122661E+02 -0.14438703219E+03  0.17068129459E+03  0.79976009303E+02 0.  0.
         -6    2    1    2    0  501 -0.49510043949E+02 -0.29321223185E+02 -0.56662996147E+03  0.59528523428E+03  0.17315893950E+03 0.  0.
        -24    2    5    5    0    0 -0.11325540973E+02  0.38964794942E+02 -0.18111838550E+03  0.20188683348E+03  0.79422294377E+02 0.  0.
          5    1    3    3  502    0  0.76867789962E+02 -0.44408994759E+01 -0.32284194572E+03  0.33192979776E+03  0.47000000000E+01 0. -1.
        -13    1    4    4    0    0 -0.14886761297E+02  0.56447911900E+02 -0.12618618917E+03  0.13903573914E+03  0.00000000000E+00 0.  1.
         14    1    4    4    0    0 -0.12470984717E+02 -0.22685789239E+02 -0.18200843018E+02  0.31645555450E+02  0.00000000000E+00 0. -1.
         -5    1    5    5    0  501 -0.38184502976E+02 -0.68286018127E+02 -0.38551157597E+03  0.39339840080E+03  0.47000000000E+01 0.  1.
         13    1    6    6    0    0  0.14272816668E+02  0.12975272109E+02 -0.23468566854E+01  0.19431384877E+02  0.00000000000E+00 0. -1.
        -14    1    6    6    0    0 -0.25598357642E+02  0.25989522833E+02 -0.17877152881E+03  0.18245544860E+03  0.00000000000E+00 0.  1.
</event>
<event>
12    1  0.2685360E-002  0.2100264E+03  0.7818608E-02  0.1141545E+00
         -1   -1    0    0    0  501 -0.00000000000E+00  0.00000000000E+00  0.27812054172E+03  0.27812054172E+03  0.00000000000E+00 0. -1.
          1   -1    0    0  502    0  0.00000000000E+00 -0.00000000000E+00 -0.33473987939E+03  0.33473987939E+03  0.00000000000E+00 0.  1.
          6    2    1    2  502    0 -0.91711814799E+02  0.74662910634E+02 -0.25055295932E+03  0.32657421710E+03  0.17288240700E+03 0.  0.
         24    2    3    3    0    0 -0.10940104670E+03  0.38133784334E+01 -0.14079795671E+03  0.19466206551E+03  0.78013615865E+02 0.  0.
         -6    2    1    2    0  501  0.91711814799E+02 -0.74662910634E+02  0.19393362165E+03  0.28628620401E+03  0.17425250012E+03 0.  0.
        -24    2    5    5    0    0  0.86865323209E+02  0.13535774312E+02  0.13141185486E+03  0.17796465569E+03  0.81691746918E+02 0.  0.
          5    1    3    3  502    0  0.17689231899E+02  0.70849532201E+02 -0.10975500261E+03  0.13191215159E+03  0.47000000000E+01 0. -1.
        -13    1    4    4    0    0 -0.94451680194E+02  0.34063480944E+02 -0.99856092916E+02  0.14160748539E+03  0.00000000000E+00 0.  1.
         14    1    4    4    0    0 -0.14949366504E+02 -0.30250102510E+02 -0.40941863795E+02  0.53054580121E+02  0.00000000000E+00 0. -1.
         -5    1    5    5    0  501  0.48464915900E+01 -0.88198684946E+02  0.62521766790E+02  0.10832154832E+03  0.47000000000E+01 0.  1.
         13    1    6    6    0    0  0.35407892290E+02  0.10242505378E+01  0.11818757683E+03  0.12338181083E+03  0.00000000000E+00 0. -1.
        -14    1    6    6    0    0  0.51457430920E+02  0.12511523774E+02  0.13224278030E+02  0.54582844864E+02  0.00000000000E+00 0.  1.
</event>
<event>
12    1  0.2685360E-002  0.2786074E+03  0.7818608E-02  0.1096452E+00
         -1   -1    0    0    0  501 -0.00000000000E+00  0.00000000000E+00  0.37149447483E+03  0.37149447483E+03  0.00000000000E+00 0. -1.
          1   -1    0    0  502    0  0.00000000000E+00 -0.00000000000E+00 -0.21412724719E+03  0.21412724719E+03  0.00000000000E+00 0.  1.
          6    2    1    2  502    0 -0.15980051986E+03  0.14912905743E+03  0.32977581636E+02  0.27997651704E+03  0.17182446649E+03 0.  0.
         24    2    3    3    0    0 -0.17511492488E+03  0.15278914921E+03  0.27425116592E+01  0.24556464802E+03  0.79276187844E+02 0.  0.
         -6    2    1    2    0  501  0.15980051986E+03 -0.14912905743E+03  0.12438964600E+03  0.30564520498E+03  0.17369664757E+03 0.  0.
        -24    2    5    5    0    0  0.15444285593E+03 -0.17421752617E+03  0.12848052052E+03  0.27924518452E+03  0.85242517277E+02 0.  0.
          5    1    3    3  502    0  0.15314405013E+02 -0.36600917748E+01  0.30235069976E+02  0.34411869016E+02  0.47000000000E+01 0. -1.
        -11    1    4    4    0    0 -0.99002573226E+01  0.29744685610E+02 -0.21690195366E+02  0.38121201346E+02  0.00000000000E+00 0.  1.
         12    1    4    4    0    0 -0.16521466755E+03  0.12304446360E+03  0.24432707025E+02  0.20744344668E+03  0.00000000000E+00 0. -1.
         -5    1    5    5    0  501  0.53576639385E+01  0.25088468734E+02 -0.40908745200E+01  0.26400020467E+02  0.47000000000E+01 0.  1.
         13    1    6    6    0    0  0.44172620875E+02 -0.31972389433E+02  0.72582251080E+02  0.90783463763E+02  0.00000000000E+00 0. -1.
        -14    1    6    6    0    0  0.11027023505E+03 -0.14224513673E+03  0.55898269440E+02  0.18846172075E+03  0.00000000000E+00 0.  1.
</event>
<event>
12    1  0.2685360E-002  0.2213056E+03  0.7818608E-02  0.1132913E+00
          2   -1    0    0  502    0  0.00000000000E+00  0.00000000000E+00  0.74176735124E+03  0.74176735124E+03  0.00000000000E+00 0.  1.
         -2   -1    0    0    0  501 -0.00000000000E+00 -0.00000000000E+00 -0.66038673788E+02  0.66038673788E+02  0.00000000000E+00 0. -1.
          6    2    1    2  502    0  0.13980007964E+02 -0.13919589798E+03  0.33265643986E+03  0.39965486783E+03  0.17173458522E+03 0.  0.
         24    2    3    3    0    0  0.45110217533E+02 -0.64828388087E+02  0.88841613694E+02  0.14281371861E+03  0.79153485523E+02 0.  0.
         -6    2    1    2    0  501 -0.13980007964E+02  0.13919589798E+03  0.34307223758E+03  0.40815115719E+03  0.17122461354E+03 0.  0.
        -24    2    5    5    0    0  0.45652832011E+02  0.35106847653E+02  0.18771716853E+03  0.21181498253E+03  0.79442933235E+02 0.  0.
          5    1    3    3  502    0 -0.31130209568E+02 -0.74367509888E+02  0.24381482617E+03  0.25684114922E+03  0.47000000000E+01 0. -1.
        -11    1    4    4    0    0  0.36756587286E+01 -0.72309877473E+01  0.68533595404E+02  0.69011965266E+02  0.00000000000E+00 0.  1.
         12    1    4    4    0    0  0.41434558804E+02 -0.57597400340E+02  0.20308018291E+02  0.73801753340E+02  0.00000000000E+00 0. -1.
         -5    1    5    5    0  501 -0.59632839975E+02  0.10408905032E+03  0.15535506905E+03  0.19633617466E+03  0.47000000000E+01 0.  1.
         13    1    6    6    0    0  0.44695771774E+02  0.48665233360E+02  0.82383784286E+02  0.10560826135E+03  0.00000000000E+00 0. -1.
        -14    1    6    6    0    0  0.95706023651E+00 -0.13558385707E+02  0.10533338425E+03  0.10620672118E+03  0.00000000000E+00 0.  1.
</event>
<event>
12    1  0.2685360E-002  0.2049166E+03  0.7818608E-02  0.1145656E+00
          2   -1    0    0  502    0  0.00000000000E+00  0.00000000000E+00  0.15690297309E+04  0.15690297309E+04  0.00000000000E+00 0. -1.
         -2   -1    0    0    0  501 -0.00000000000E+00 -0.00000000000E+00 -0.26859928553E+02  0.26859928553E+02  0.00000000000E+00 0.  1.
          6    2    1    2  502    0 -0.97753945890E+02  0.54212740568E+02  0.72572907041E+03  0.75429921553E+03  0.17259712549E+03 0.  0.
         24    2    3    3    0    0 -0.78409991427E+02  0.28275135927E+02  0.22334804200E+03  0.25085534019E+03  0.78079726998E+02 0.  0.
         -6    2    1    2    0  501  0.97753945890E+02 -0.54212740568E+02  0.81644073197E+03  0.84159044396E+03  0.17089222150E+03 0.  0.
        -24    2    5    5    0    0  0.93817148038E+02 -0.22387037364E+02  0.78926504473E+03  0.79929408787E+03  0.81418003887E+02 0.  0.
          5    1    3    3  502    0 -0.19343954462E+02  0.25937604640E+02  0.50238102842E+03  0.50344387534E+03  0.47000000000E+01 0. -1.
        -11    1    4    4    0    0 -0.57861196816E+02  0.12465462745E+02  0.21591982541E+03  0.22388541012E+03  0.00000000000E+00 0.  1.
         12    1    4    4    0    0 -0.20548794611E+02  0.15809673182E+02  0.74282165848E+01  0.26969930065E+02  0.00000000000E+00 0. -1.
         -5    1    5    5    0  501  0.39367978523E+01 -0.31825703204E+02  0.27175687236E+02  0.42296356090E+02  0.47000000000E+01 0.  1.
         11    1    6    6    0    0  0.24817407261E+02 -0.45832965618E+02  0.38518378059E+03  0.38869410759E+03  0.00000000000E+00 0. -1.
        -12    1    6    6    0    0  0.68999740777E+02  0.23445928254E+02  0.40408126414E+03  0.41059998028E+03  0.00000000000E+00 0.  1.
</event>
<event>
12    1  0.2685360E-002  0.5307333E+03  0.7818608E-02  0.1006054E+00
         -3   -1    0    0    0  501 -0.00000000000E+00  0.00000000000E+00  0.60885629877E+03  0.60885629877E+03  0.00000000000E+00 0. -1.
          3   -1    0    0  502    0  0.00000000000E+00 -0.00000000000E+00 -0.65166432012E+03  0.65166432012E+03  0.00000000000E+00 0.  1.
          6    2    1    2  502    0 -0.47564273015E+03  0.16310156870E+03  0.31803300841E+03  0.61905032632E+03  0.17099761289E+03 0.  0.
         24    2    3    3    0    0 -0.37369108943E+03  0.96955490520E+02  0.17536134080E+03  0.43157570018E+03  0.80377781000E+02 0.  0.
         -6    2    1    2    0  501  0.47564273015E+03 -0.16310156870E+03 -0.36084102977E+03  0.64147029257E+03  0.16864091742E+03 0.  0.
        -24    2    5    5    0    0  0.38180887919E+03 -0.15791420419E+03 -0.34882042089E+03  0.54661100006E+03  0.79956133273E+02 0.  0.
          5    1    3    3  502    0 -0.10195164073E+03  0.66146078184E+02  0.14267166762E+03  0.18747462614E+03  0.47000000000E+01 0. -1.
        -13    1    4    4    0    0 -0.18704734224E+03  0.10157219663E+02  0.66911799514E+02  0.19891472108E+03  0.00000000000E+00 0.  1.
         14    1    4    4    0    0 -0.18664374719E+03  0.86798270857E+02  0.10844954128E+03  0.23266097910E+03  0.00000000000E+00 0. -1.
         -5    1    5    5    0  501  0.93833850970E+02 -0.51873645105E+01 -0.12020608880E+02  0.94859292514E+02  0.47000000000E+01 0.  1.
         11    1    6    6    0    0  0.25828749940E+03 -0.12053702128E+03 -0.19269833095E+03  0.34405559521E+03  0.00000000000E+00 0. -1.
        -12    1    6    6    0    0  0.12352137978E+03 -0.37377182916E+02 -0.15612208994E+03  0.20255540485E+03  0.00000000000E+00 0.  1.
</event>
<event>
12    1  0.2685360E-002  0.2020602E+03  0.7818608E-02  0.1148012E+00
         -1   -1    0    0    0  501 -0.00000000000E+00  0.00000000000E+00  0.22237091198E+03  0.22237091198E+03  0.00000000000E+00 0.  1.
          1   -1    0    0  502    0  0.00000000000E+00 -0.00000000000E+00 -0.18384938536E+03  0.18384938536E+03  0.00000000000E+00 0. -1.
          6    2    1    2  502    0 -0.34087388293E+02  0.99160281300E+02  0.26629227206E+02  0.20344517263E+03  0.17229657889E+03 0.  0.
         24    2    3    3    0    0 -0.15721158409E+02  0.12941016560E+03 -0.10115688949E+02  0.15221380759E+03  0.77926698108E+02 0.  0.
         -6    2    1    2    0  501  0.34087388293E+02 -0.99160281300E+02  0.11892299407E+02  0.20277512471E+03  0.17315199389E+03 0.  0.
        -24    2    5    5    0    0  0.34135968090E+01 -0.49889140008E+02 -0.58568165521E+02  0.11136782759E+03  0.80448642479E+02 0.  0.
          5    1    3    3  502    0 -0.18366229885E+02 -0.30249884297E+02  0.36744916156E+02  0.51231365036E+02  0.47000000000E+01 0. -1.
        -13    1    4    4    0    0 -0.11030477701E+02  0.16675089967E+02  0.26853667081E+02  0.33479090481E+02  0.00000000000E+00 0.  1.
         14    1    4    4    0    0 -0.46906807073E+01  0.11273507563E+03 -0.36969356031E+02  0.11873471711E+03  0.00000000000E+00 0. -1.
         -5    1    5    5    0  501  0.30673791484E+02 -0.49271141292E+02  0.70460464928E+02  0.91407297116E+02  0.47000000000E+01 0.  1.
         11    1    6    6    0    0 -0.29602708074E+02 -0.53401900063E+02 -0.32598199820E+02  0.69215069798E+02  0.00000000000E+00 0. -1.
        -12    1    6    6    0    0  0.33016304883E+02  0.35127600550E+01 -0.25969965701E+02  0.42152757796E+02  0.00000000000E+00 0.  1.
</event>
<event>
12    1  0.2685360E-002  0.2332264E+03  0.7818608E-02  0.1124389E+00
          1   -1    0    0  502    0  0.00000000000E+00  0.00000000000E+00  0.13093316938E+03  0.13093316938E+03  0.00000000000E+00 0.  1.
         -1   -1    0    0    0  501 -0.00000000000E+00 -0.00000000000E+00 -0.69213270856E+03  0.69213270856E+03  0.00000000000E+00 0. -1.
          6    2    1    2  502    0  0.15673034268E+03 -0.14768212211E+02 -0.20389423492E+02  0.23410450712E+03  0.17206595031E+03 0.  0.
         24    2    3    3    0    0  0.13492574554E+03  0.34184822947E+01  0.44404148834E+02  0.16320674039E+03  0.80299868270E+02 0.  0.
         -6    2    1    2    0  501 -0.15673034268E+03  0.14768212211E+02 -0.54081011569E+03  0.58896137082E+03  0.17209710828E+03 0.  0.
        -24    2    5    5    0    0 -0.18106328356E+03  0.84052233038E+01 -0.41248564779E+03  0.45811092679E+03  0.82865259202E+02 0.  0.
          5    1    3    3  502    0  0.21804597142E+02 -0.18186694505E+02 -0.64793572326E+02  0.70897766737E+02  0.47000000000E+01 0. -1.
        -11    1    4    4    0    0  0.74508205333E+01 -0.25172834962E+02  0.10173487748E+02  0.28154683440E+02  0.00000000000E+00 0.  1.
         12    1    4    4    0    0  0.12747492500E+03  0.28591317257E+02  0.34230661086E+02  0.13505205695E+03  0.00000000000E+00 0. -1.
         -5    1    5    5    0  501  0.24332940884E+02  0.63629889070E+01 -0.12832446790E+03  0.13085044403E+03  0.47000000000E+01 0.  1.
         13    1    6    6    0    0 -0.92448663360E+02 -0.35460371836E+02 -0.23356699769E+03  0.25368826488E+03  0.00000000000E+00 0. -1.
        -14    1    6    6    0    0 -0.88614620205E+02  0.43865595140E+02 -0.17891865010E+03  0.20442266191E+03  0.00000000000E+00 0.  1.
</event>
<event>
12    1  0.2685360E-002  0.3124065E+03  0.7818608E-02  0.1079198E+00
         -2   -1    0    0    0  501 -0.00000000000E+00  0.00000000000E+00  0.18351207189E+04  0.18351207189E+04  0.00000000000E+00 0. -1.
          2   -1    0    0  502    0  0.00000000000E+00 -0.00000000000E+00 -0.62748958680E+02  0.62748958680E+02  0.00000000000E+00 0.  1.
          6    2    1    2  502    0  0.24744613177E+03 -0.90564458905E+02  0.12609290570E+04  0.12994839948E+04  0.17112877187E+03 0.  0.
         24    2    3    3    0    0  0.83144565410E+02 -0.34516076133E+02  0.75854380954E+03  0.76793018491E+03  0.78890301328E+02 0.  0.
         -6    2    1    2    0  501 -0.24744613177E+03  0.90564458905E+02  0.51144270316E+03  0.59838568274E+03  0.16450008313E+03 0.  0.
        -24    2    5    5    0    0 -0.21928325453E+03  0.93563303205E+02  0.51130147955E+03  0.56967591671E+03  0.79134124484E+02 0.  0.
          5    1    3    3  502    0  0.16430156635E+03 -0.56048382772E+02  0.50238524748E+03  0.53155380989E+03  0.47000000000E+01 0. -1.
        -11    1    4    4    0    0  0.48114689346E+02  0.19653843792E+02  0.25269523801E+03  0.25798484495E+03  0.00000000000E+00 0.  1.
         12    1    4    4    0    0  0.35029876064E+02 -0.54169919925E+02  0.50584857152E+03  0.50994533997E+03  0.00000000000E+00 0. -1.
         -5    1    5    5    0  501 -0.28162877237E+02 -0.29988443003E+01  0.14122360371E+00  0.28709766031E+02  0.47000000000E+01 0.  1.
         13    1    6    6    0    0 -0.22367023274E+03  0.82739251253E+02  0.47440092237E+03  0.53097117799E+03  0.00000000000E+00 0. -1.
        -14    1    6    6    0    0  0.43869782125E+01  0.10824051952E+02  0.36900557181E+02  0.38704738712E+02  0.00000000000E+00 0.  1.
</event>
<event>
12    1  0.2685360E-002  0.2323625E+03  0.7818608E-02  0.1124988E+00
         -1   -1    0    0    0  501 -0.00000000000E+00  0.00000000000E+00  0.79813581011E+02  0.79813581011E+02  0.00000000000E+00 0.  1.
          1   -1    0    0  502    0  0.00000000000E+00 -0.00000000000E+00 -0.70647537220E+03  0.70647537220E+03  0.00000000000E+00 0. -1.
          6    2    1    2  502    0  0.10356259461E+03 -0.11775414096E+03 -0.39455071294E+03  0.45797267963E+03  0.17169001570E+03 0.  0.
         24    2    3    3    0    0  0.30387420247E+02 -0.31729462424E+02 -0.28730695068E+03  0.30215815526E+03  0.82608188376E+02 0.  0.
         -6    2    1    2    0  501 -0.10356259461E+03  0.11775414096E+03 -0.23211107825E+03  0.32831627359E+03  0.17124477842E+03 0.  0.
        -24    2    5    5    0    0 -0.38908327778E+01  0.14001498336E+02 -0.12604501467E+03  0.14951143360E+03  0.79089458956E+02 0.  0.
          5    1    3    3  502    0  0.73175174368E+02 -0.86024678534E+02 -0.10724376226E+03  0.15581452437E+03  0.47000000000E+01 0. -1.
        -11    1    4    4    0    0 -0.19408260519E+02 -0.37170352334E+02 -0.15852483833E+03  0.16397694971E+03  0.00000000000E+00 0.  1.
         12    1    4    4    0    0  0.49795680765E+02  0.54408899107E+01 -0.12878211235E+03  0.13818120555E+03  0.00000000000E+00 0. -1.
         -5    1    5    5    0  501 -0.99671761837E+02  0.10375264262E+03 -0.10606606358E+03  0.17880483999E+03  0.47000000000E+01 0.  1.
         13    1    6    6    0    0  0.97339332811E+01  0.39434754023E+02 -0.10823217677E+03  0.11560299897E+03  0.00000000000E+00 0. -1.
        -14    1    6    6    0    0 -0.13624766059E+02 -0.25433255687E+02 -0.17812837900E+02  0.33908434630E+02  0.00000000000E+00 0.  1.
</event>
<event>
12    1  0.2685360E-002  0.2042494E+03  0.7818608E-02  0.1146203E+00
          1   -1    0    0  502    0  0.00000000000E+00  0.00000000000E+00  0.16059533565E+03  0.16059533565E+03  0.00000000000E+00 0. -1.
         -1   -1    0    0    0  501 -0.00000000000E+00 -0.00000000000E+00 -0.26256684985E+03  0.26256684985E+03  0.00000000000E+00 0.  1.
          6    2    1    2  502    0  0.81784501371E+02 -0.77986995895E+02 -0.72939409689E+02  0.21734615074E+03  0.17072936350E+03 0.  0.
         24    2    3    3    0    0  0.77126059960E+02 -0.99291543001E+02 -0.71057504508E+01  0.14783539263E+03  0.77443992598E+02 0.  0.
         -6    2    1    2    0  501 -0.81784501371E+02  0.77986995895E+02 -0.29032104516E+02  0.20581603476E+03  0.16954852072E+03 0.  0.
        -24    2    5    5    0    0  0.19274672906E+02  0.49185706341E+02  0.44196342626E+01  0.95436780310E+02  0.79359304086E+02 0.  0.
          5    1    3    3  502    0  0.46584414106E+01  0.21304547106E+02 -0.65833659238E+02  0.69510758105E+02  0.47000000000E+01 0. -1.
        -13    1    4    4    0    0  0.23379344711E+02 -0.54619352528E+02 -0.38942226449E+02  0.71037767634E+02  0.00000000000E+00 0.  1.
         14    1    4    4    0    0  0.53746715249E+02 -0.44672190474E+02  0.31836475998E+02  0.76797625001E+02  0.00000000000E+00 0. -1.
         -5    1    5    5    0  501 -0.10105917428E+03  0.28801289555E+02 -0.33451738779E+02  0.11037925445E+03  0.47000000000E+01 0.  1.
         11    1    6    6    0    0  0.36807229736E+02  0.46070366152E+02 -0.22538163894E+02  0.63128595976E+02  0.00000000000E+00 0. -1.
        -12    1    6    6    0    0 -0.17532556830E+02  0.31153401884E+01  0.26957798157E+02  0.32308184334E+02  0.00000000000E+00 0.  1.
</event>
<event>
12    1  0.2685360E-002  0.1927547E+03  0.7818608E-02  0.1156000E+00
          1   -1    0    0  502    0  0.00000000000E+00  0.00000000000E+00  0.29906261768E+03  0.29906261768E+03  0.00000000000E+00 0. -1.
         -1   -1    0    0    0  501 -0.00000000000E+00 -0.00000000000E+00 -0.12550677465E+03  0.12550677465E+03  0.00000000000E+00 0.  1.
          6    2    1    2  502    0 -0.83404127129E+02 -0.13022648351E+02  0.10848316017E+03  0.22189926348E+03  0.17419773048E+03 0.  0.
         24    2    3    3    0    0  0.15511841210E+02  0.12555240662E+02  0.82031836015E+02  0.11625665963E+03  0.79925825011E+02 0.  0.
         -6    2    1    2    0  501  0.83404127129E+02  0.13022648351E+02  0.65072682863E+02  0.20267012885E+03  0.17238007217E+03 0.  0.
        -24    2    5    5    0    0  0.14130022151E+02 -0.74181782290E+01 -0.26340175525E+02  0.86071974100E+02  0.80373459453E+02 0.  0.
          5    1    3    3  502    0 -0.98915968338E+02 -0.25577889013E+02  0.26451324152E+02  0.10564260385E+03  0.47000000000E+01 0. -1.
        -11    1    4    4    0    0  0.14201547926E+01  0.37937742782E+02  0.11007495162E+02  0.39527890366E+02  0.00000000000E+00 0.  1.
         12    1    4    4    0    0  0.14091686417E+02 -0.25382502120E+02  0.71024340853E+02  0.76728769269E+02  0.00000000000E+00 0. -1.
         -5    1    5    5    0  501  0.69274104978E+02  0.20440826580E+02  0.91412858388E+02  0.11659815475E+03  0.47000000000E+01 0.  1.
         11    1    6    6    0    0 -0.18991069887E+02  0.24021524942E+02  0.45228788573E+01  0.30954011519E+02  0.00000000000E+00 0. -1.
        -12    1    6    6    0    0  0.33121092037E+02 -0.31439703171E+02 -0.30863054382E+02  0.55117962580E+02  0.00000000000E+00 0.  1.
</event>
<event>
12    1  0.2685360E-002  0.2226969E+03  0.7818608E-02  0.1131888E+00
         -2   -1    0    0    0  501 -0.00000000000E+00  0.00000000000E+00  0.60416469187E+02  0.60416469187E+02  0.00000000000E+00 0. -1.
          2   -1    0    0  502    0  0.00000000000E+00 -0.00000000000E+00 -0.93075961596E+03  0.93075961596E+03  0.00000000000E+00 0.  1.
          6    2    1    2  502    0 -0.13128208365E+03  0.49270719063E+02 -0.60428745514E+03  0.64378315227E+03  0.17213607833E+03 0.  0.
         24    2    3    3    0    0 -0.11387685060E+03  0.81354096315E+02 -0.33005915269E+03  0.36709643936E+03  0.78957744597E+02 0.  0.
         -6    2    1    2    0  501  0.13128208365E+03 -0.49270719063E+02 -0.26605569164E+03  0.34739293288E+03  0.17387820311E+03 0.  0.
        -24    2    5    5    0    0  0.14665146831E+03  0.16656183216E+01 -0.22660798630E+03  0.28099308418E+03  0.78080128456E+02 0.  0.
          5    1    3    3  502    0 -0.17405233055E+02 -0.32083377252E+02 -0.27422830245E+03  0.27668671291E+03  0.47000000000E+01 0. -1.
        -13    1    4    4    0    0 -0.87114694137E+02  0.90983363247E+02 -0.30166283866E+03  0.32690581296E+03  0.00000000000E+00 0.  1.
         14    1    4    4    0    0 -0.26762156459E+02 -0.96292669323E+01 -0.28396314033E+02  0.40190626403E+02  0.00000000000E+00 0. -1.
         -5    1    5    5    0  501 -0.15369384658E+02 -0.50936337384E+02 -0.39447705333E+02  0.66399848696E+02  0.47000000000E+01 0.  1.
         11    1    6    6    0    0  0.75470461386E+02 -0.21805194149E+02 -0.61833917500E+02  0.99973448411E+02  0.00000000000E+00 0. -1.
        -12    1    6    6    0    0  0.71181006923E+02  0.23470812471E+02 -0.16477406880E+03  0.18101963577E+03  0.00000000000E+00 0.  1.
</event>
<event>
12    1  0.2685360E-002  0.2372951E+03  0.7818608E-02  0.1121608E+00
         -2   -1    0    0    0  501 -0.00000000000E+00  0.00000000000E+00  0.23175083624E+03  0.23175083624E+03  0.00000000000E+00 0. -1.
          2   -1    0    0  502    0  0.00000000000E+00 -0.00000000000E+00 -0.30835235989E+03  0.30835235989E+03  0.00000000000E+00 0.  1.
          6    2    1    2  502    0  0.16193149989E+03  0.91266338145E+01 -0.16273682740E+03  0.28830857608E+03  0.17416501930E+03 0.  0.
         24    2    3    3    0    0  0.53431984543E+02  0.29700440839E+02 -0.14550449995E+03  0.17644048646E+03  0.78883411425E+02 0.  0.
         -6    2    1    2    0  501 -0.16193149989E+03 -0.91266338145E+01  0.86135303738E+02  0.25179462005E+03  0.17226762329E+03 0.  0.
        -24    2    5    5    0    0 -0.99934791975E+02 -0.21444244707E+02  0.11835241651E+03  0.18069365180E+03  0.90532220937E+02 0.  0.
          5    1    3    3  502    0  0.10849951535E+03 -0.20573807025E+02 -0.17232327450E+02  0.11186808962E+03  0.47000000000E+01 0. -1.
        -11    1    4    4    0    0  0.19549087301E+01  0.15051049346E+02  0.55688002702E+01  0.16166857797E+02  0.00000000000E+00 0.  1.
         12    1    4    4    0    0  0.51477075813E+02  0.14649391493E+02 -0.15107330022E+03  0.16027362866E+03  0.00000000000E+00 0. -1.
         -5    1    5    5    0  501 -0.61996707916E+02  0.12317610892E+02 -0.32217112776E+02  0.71100968250E+02  0.47000000000E+01 0.  1.
         13    1    6    6    0    0 -0.42536429966E+02 -0.48521255350E+02  0.28143509838E+02  0.70396855334E+02  0.00000000000E+00 0. -1.
        -14    1    6    6    0    0 -0.57398362009E+02  0.27077010643E+02  0.90208906677E+02  0.11029679647E+03  0.00000000000E+00 0.  1.
</event>
<event>
12    1  0.2685360E-002  0.3201066E+03  0.7818608E-02  0.1075600E+00
          2   -1    0    0  502    0  0.00000000000E+00  0.00000000000E+00  0.40660858897E+03  0.40660858897E+03  0.00000000000E+00 0. -1.
         -2   -1    0    0    0  501 -0.00000000000E+00 -0.00000000000E+00 -0.40371418148E+03  0.40371418148E+03  0.00000000000E+00 0.  1.
          6    2    1    2  502    0  0.15054569071E+03  0.21970843603E+03  0.24979021058E+03  0.40881238697E+03  0.18383856121E+03 0.  0.
         24    2    3    3    0    0  0.12809521385E+03  0.23200799235E+03  0.17003710629E+03  0.32491989243E+03  0.80151273570E+02 0.  0.
         -6    2    1    2    0  501 -0.15054569071E+03 -0.21970843603E+03 -0.24689580309E+03  0.40151038348E+03  0.17122280398E+03 0.  0.
        -24    2    5    5    0    0 -0.16536788338E+03 -0.21900640415E+03 -0.18697336897E+03  0.33959933151E+03  0.71121890763E+02 0.  0.
          5    1    3    3  502    0  0.22450476855E+02 -0.12299556318E+02  0.79753104294E+02  0.83892494546E+02  0.47000000000E+01 0. -1.
        -13    1    4    4    0    0  0.60796202057E+02  0.98174161020E+02  0.28747454901E+02  0.11899899260E+03  0.00000000000E+00 0.  1.
         14    1    4    4    0    0  0.67299011797E+02  0.13383383133E+03  0.14128965139E+03  0.20592089983E+03  0.00000000000E+00 0. -1.
         -5    1    5    5    0  501  0.14822192676E+02 -0.70203188113E+00 -0.59922434123E+02  0.61911051968E+02  0.47000000000E+01 0.  1.
         11    1    6    6    0    0 -0.10812044593E+02 -0.62858256733E+02 -0.43171356123E+02  0.77018353250E+02  0.00000000000E+00 0. -1.
        -12    1    6    6    0    0 -0.15455583879E+03 -0.15614814741E+03 -0.14380201285E+03  0.26258097826E+03  0.00000000000E+00 0.  1.
</event>
<event>
12    1  0.2685360E-002  0.1902193E+03  0.7818608E-02  0.1158264E+00
         -2   -1    0    0    0  501 -0.00000000000E+00  0.00000000000E+00  0.31180555125E+02  0.31180555125E+02  0.00000000000E+00 0.  1.
          2   -1    0    0  502    0  0.00000000000E+00 -0.00000000000E+00 -0.16639275340E+04  0.16639275340E+04  0.00000000000E+00 0. -1.
          6    2    1    2  502    0  0.22949580267E+02  0.75256715809E+02 -0.35308329744E+03  0.40152612445E+03  0.17425601043E+03 0.  0.
         24    2    3    3    0    0 -0.12498120302E+02  0.73723465289E+02 -0.10744301366E+03  0.15329210310E+03  0.79769137800E+02 0.  0.
         -6    2    1    2    0  501 -0.22949580267E+02 -0.75256715809E+02 -0.12796636815E+04  0.12935819647E+04  0.17211886955E+03 0.  0.
        -24    2    5    5    0    0 -0.52559659073E+02  0.13972139111E+02 -0.75155179130E+03  0.75714669009E+03  0.74049151812E+02 0.  0.
          5    1    3    3  502    0  0.35447700569E+02  0.15332505199E+01 -0.24564028379E+03  0.24823402134E+03  0.47000000000E+01 0. -1.
        -11    1    4    4    0    0  0.52598076686E+01  0.80724072462E+02 -0.10707828581E+03  0.13420059889E+03  0.00000000000E+00 0.  1.
         12    1    4    4    0    0 -0.17757927971E+02 -0.70006071730E+01 -0.36472784601E+00  0.19091504210E+02  0.00000000000E+00 0. -1.
         -5    1    5    5    0  501  0.29610078806E+02 -0.89228854920E+02 -0.52811189017E+03  0.53643527462E+03  0.47000000000E+01 0.  1.
         13    1    6    6    0    0 -0.51938235694E+02 -0.89986368163E+00 -0.24833494048E+03  0.25370974113E+03  0.00000000000E+00 0. -1.
        -14    1    6    6    0    0 -0.62142337913E+00  0.14872002792E+02 -0.50321685081E+03  0.50343694896E+03  0.00000000000E+00 0.  1.
</event>
<event>
12    1  0.2685360E-002  0.3774234E+03  0.7818608E-02  0.1051890E+00
         -1   -1    0    0    0  501 -0.00000000000E+00  0.00000000000E+00  0.32806754100E+03  0.32806754100E+03  0.00000000000E+00 0.  1.
          1   -1    0    0  502    0  0.00000000000E+00 -0.00000000000E+00 -0.44105685137E+03  0.44105685137E+03  0.00000000000E+00 0. -1.
          6    2    1    2  502    0 -0.33578121237E+03 -0.66754568721E+01 -0.85503296951E+01  0.37744514243E+03  0.17204110875E+03 0.  0.
         24    2    3    3    0    0 -0.63685980329E+02 -0.22731783634E+00  0.21310019174E+02  0.10360006902E+03  0.78885370123E+02 0.  0.
         -6    2    1    2    0  501  0.33578121237E+03  0.66754568721E+01 -0.10443898068E+03  0.39167924994E+03  0.17237038563E+03 0.  0.
        -24    2    5    5    0    0  0.33619569588E+03 -0.12976477691E+02 -0.11959102205E+03  0.36641970350E+03  0.82252365625E+02 0.  0.
          5    1    3    3  502    0 -0.27209523204E+03 -0.64481390358E+01 -0.29860348869E+02  0.27384507341E+03  0.47000000000E+01 0. -1.
        -13    1    4    4    0    0 -0.46503780139E+02 -0.34001538847E+02  0.29663204201E+02  0.64796696634E+02  0.00000000000E+00 0.  1.
         14    1    4    4    0    0 -0.17182200189E+02  0.33774221011E+02 -0.83531850268E+01  0.38803372384E+02  0.00000000000E+00 0. -1.
         -5    1    5    5    0  501 -0.41448351023E+00  0.19651934564E+02  0.15152041375E+02  0.25259546443E+02  0.47000000000E+01 0.  1.
         13    1    6    6    0    0  0.15452016919E+02  0.15764311172E+02 -0.18774397661E+02  0.28978549673E+02  0.00000000000E+00 0. -1.
        -14    1    6    6    0    0  0.32074367896E+03 -0.28740788864E+02 -0.10081662439E+03  0.33744115382E+03  0.00000000000E+00 0.  1.
</event>
<event>
12    1  0.2685360E-002  0.2102348E+03  0.7818608E-02  0.1141380E+00
          2   -1    0    0  502    0  0.00000000000E+00  0.00000000000E+00  0.24707739366E+03  0.24707739366E+03  0.00000000000E+00 0. -1.
         -2   -1    0    0    0  501 -0.00000000000E+00 -0.00000000000E+00 -0.17961766917E+03  0.17961766917E+03  0.00000000000E+00 0.  1.
          6    2    1    2  502    0  0.36505788837E+02  0.11461007579E+03  0.47263924324E+02  0.21502574913E+03  0.17185474144E+03 0.  0.
         24    2    3    3    0    0  0.84506650933E+02  0.43098883793E+02  0.27588259378E+02  0.12655453837E+03  0.79095203968E+02 0.  0.
         -6    2    1    2    0  501 -0.36505788837E+02 -0.11461007579E+03  0.20195800172E+02  0.21166931369E+03  0.17299678010E+03 0.  0.
        -24    2    5    5    0    0 -0.64238885534E+02 -0.10675836125E+03 -0.33195460061E+02  0.15081300143E+03  0.78221740708E+02 0.  0.
          5    1    3    3  502    0 -0.48000862095E+02  0.71511191997E+02  0.19675664946E+02  0.88471210763E+02  0.47000000000E+01 0. -1.
        -11    1    4    4    0    0  0.22467430665E+02  0.54480098176E+02  0.34934370753E+01  0.59034486874E+02  0.00000000000E+00 0.  1.
         12    1    4    4    0    0  0.62039220268E+02 -0.11381214383E+02  0.24094822303E+02  0.67520051497E+02  0.00000000000E+00 0. -1.
         -5    1    5    5    0  501  0.27733096697E+02 -0.78517145408E+01  0.53391260233E+02  0.60856312268E+02  0.47000000000E+01 0.  1.
         13    1    6    6    0    0 -0.36440070738E+02 -0.85598420120E+02  0.11876069702E+02  0.93787042357E+02  0.00000000000E+00 0. -1.
        -14    1    6    6    0    0 -0.27798814796E+02 -0.21159941129E+02 -0.45071529763E+02  0.57025959070E+02  0.00000000000E+00 0.  1.
</event>
<event>
12    1  0.2685360E-002  0.1908209E+03  0.7818608E-02  0.1157723E+00
          2   -1    0    0  502    0  0.00000000000E+00  0.00000000000E+00  0.26089675896E+04  0.26089675896E+04  0.00000000000E+00 0.  1.
         -2   -1    0    0    0  501 -0.00000000000E+00 -0.00000000000E+00 -0.19331564551E+02  0.19331564551E+02  0.00000000000E+00 0. -1.
          6    2    1    2  502    0  0.81150820496E+02 -0.16784967155E+02  0.19749351938E+04  0.19838881970E+04  0.16904486891E+03 0.  0.
         24    2    3    3    0    0  0.11581494575E+03 -0.25206288046E+02  0.12714293540E+04  0.12794628448E+04  0.80275216205E+02 0.  0.
         -6    2    1    2    0  501 -0.81150820496E+02  0.16784967155E+02  0.61470083132E+03  0.64441095722E+03  0.17476034725E+03 0.  0.
        -24    2    5    5    0    0 -0.48741029295E+02  0.73357746909E+02  0.31089072944E+03  0.33364811842E+03  0.83132269940E+02 0.  0.
          5    1    3    3  502    0 -0.34664125249E+02  0.84213208911E+01  0.70350583975E+03  0.70442535218E+03  0.47000000000E+01 0. -1.
        -13    1    4    4    0    0  0.54961873543E+02 -0.20879114191E+02  0.97763304913E+03  0.97939936885E+03  0.00000000000E+00 0.  1.
         14    1    4    4    0    0  0.60853072202E+02 -0.43271738544E+01  0.29379630487E+03  0.30006347593E+03  0.00000000000E+00 0. -1.
         -5    1    5    5    0  501 -0.32409791201E+02 -0.56572779755E+02  0.30381010189E+03  0.31076283881E+03  0.47000000000E+01 0.  1.
         13    1    6    6    0    0 -0.46336184214E+02 -0.11572123882E+01  0.10982247668E+03  0.11920300957E+03  0.00000000000E+00 0. -1.
        -14    1    6    6    0    0 -0.24048450810E+01  0.74514959297E+02  0.20106825276E+03  0.21444510884E+03  0.00000000000E+00 0.  1.
</event>
<event>
12    1  0.2685360E-002  0.2506675E+03  0.7818608E-02  0.1112884E+00
          2   -1    0    0  502    0  0.00000000000E+00  0.00000000000E+00  0.78726034650E+03  0.78726034650E+03  0.00000000000E+00 0.  1.
         -2   -1    0    0    0  501 -0.00000000000E+00 -0.00000000000E+00 -0.79926389503E+02  0.79926389503E+02  0.00000000000E+00 0. -1.
          6    2    1    2  502    0 -0.13217903383E+03  0.12210559344E+03  0.34019060951E+03  0.42363088044E+03  0.17706608688E+03 0.  0.
         24    2    3    3    0    0 -0.99558693292E+02  0.18356450763E+01  0.17549407429E+03  0.21704921181E+03  0.79980542853E+02 0.  0.
         -6    2    1    2    0  501  0.13217903383E+03 -0.12210559344E+03  0.36714334748E+03  0.44355585557E+03  0.17194908105E+03 0.  0.
        -24    2    5    5    0    0  0.59455160267E+02  0.64694976879E+01  0.17321232407E+03  0.19972876994E+03  0.79449995897E+02 0.  0.
          5    1    3    3  502    0 -0.32620340542E+02  0.12026994836E+03  0.16469653522E+03  0.20658166862E+03  0.47000000000E+01 0. -1.
        -13    1    4    4    0    0 -0.23345454273E+02  0.13674911372E+02  0.11743598397E+03  0.12051233865E+03  0.00000000000E+00 0.  1.
         14    1    4    4    0    0 -0.76213239019E+02 -0.11839266296E+02  0.58058090319E+02  0.96536873161E+02  0.00000000000E+00 0. -1.
         -5    1    5    5    0  501  0.72723873567E+02 -0.12857509113E+03  0.19393102341E+03  0.24382708563E+03  0.47000000000E+01 0.  1.
         11    1    6    6    0    0  0.33343586760E+01 -0.24208657819E+02  0.14031020136E+02  0.28178832255E+02  0.00000000000E+00 0. -1.
        -12    1    6    6    0    0  0.56120801591E+02  0.30678155507E+02  0.15918130393E+03  0.17154993768E+03  0.00000000000E+00 0.  1.
</event>
<event>
12    1  0.2685360E-002  0.1743928E+03  0.7818608E-02  0.1173343E+00
         -1   -1    0    0    0  501 -0.00000000000E+00  0.00000000000E+00  0.15594539269E+03  0.15594539269E+03  0.00000000000E+00 0.  1.
          1   -1    0    0  502    0  0.00000000000E+00 -0.00000000000E+00 -0.19512119903E+03  0.19512119903E+03  0.00000000000E+00 0. -1.
          6    2    1    2  502    0 -0.22441951494E+02 -0.25392234258E+01 -0.23357511853E+02  0.17513851747E+03  0.17209833846E+03 0.  0.
         24    2    3    3    0    0 -0.34049137838E+02  0.26221614220E+02  0.44805503042E+02  0.10010386443E+03  0.78526006723E+02 0.  0.
         -6    2    1    2    0  501  0.22441951494E+02  0.25392234258E+01 -0.15818294485E+02  0.17592807425E+03  0.17375379140E+03 0.  0.
        -24    2    5    5    0    0  0.56890400190E+02 -0.44946804791E+02  0.14690381008E+02  0.10963714143E+03  0.80918246346E+02 0.  0.
          5    1    3    3  502    0  0.11607186343E+02 -0.28760837646E+02 -0.68163014895E+02  0.75034653038E+02  0.47000000000E+01 0. -1.
        -13    1    4    4    0    0 -0.54399356787E+02  0.29205813476E+02  0.14409021603E+02  0.63402598237E+02  0.00000000000E+00 0.  1.
         14    1    4    4    0    0  0.20350218950E+02 -0.29841992558E+01  0.30396481440E+02  0.36701266196E+02  0.00000000000E+00 0. -1.
         -5    1    5    5    0  501 -0.34448448696E+02  0.47486028217E+02 -0.30508675494E+02  0.66290932817E+02  0.47000000000E+01 0.  1.
         13    1    6    6    0    0 -0.17515804346E+02 -0.12475386483E+02  0.18496837888E+02  0.28364972795E+02  0.00000000000E+00 0. -1.
        -14    1    6    6    0    0  0.74406204537E+02 -0.32471418308E+02 -0.38064568792E+01  0.81272168634E+02  0.00000000000E+00 0.  1.
</event>
<event>
12    1  0.2685360E-002  0.1943170E+03  0.7818608E-02  0.1154624E+00
          3   -1    0    0  502    0  0.00000000000E+00  0.00000000000E+00  0.24183424398E+02  0.24183424398E+02  0.00000000000E+00 0. -1.
         -3   -1    0    0    0  501 -0.00000000000E+00 -0.00000000000E+00 -0.15669948667E+04  0.15669948667E+04  0.00000000000E+00 0.  1.
          6    2    1    2  502    0  0.85151870261E+02  0.29497720341E+02 -0.72054418581E+03  0.74607058743E+03  0.17122044624E+03 0.  0.
         24    2    3    3    0    0  0.28971671026E+02  0.56906352896E+02 -0.61553600929E+03  0.62377481866E+03  0.78311907977E+02 0.  0.
         -6    2    1    2    0  501 -0.85151870261E+02 -0.29497720341E+02 -0.82226725651E+03  0.84510770368E+03  0.17309717844E+03 0.  0.
        -24    2    5    5    0    0 -0.61134142206E+01  0.34505075724E+02 -0.28620132450E+03  0.29945927392E+03  0.80849765059E+02 0.  0.
          5    1    3    3  502    0  0.56180199235E+02 -0.27408632556E+02 -0.10500817652E+03  0.12229576877E+03  0.47000000000E+01 0. -1.
        -11    1    4    4    0    0  0.73225129518E+01 -0.88790574350E+01 -0.13378435328E+02  0.17647645415E+02  0.00000000000E+00 0.  1.
         12    1    4    4    0    0  0.21649158074E+02  0.65785410331E+02 -0.60215757397E+03  0.60612717324E+03  0.00000000000E+00 0. -1.
         -5    1    5    5    0  501 -0.79038456040E+02 -0.64002796065E+02 -0.53606593201E+03  0.54564842976E+03  0.47000000000E+01 0.  1.
         13    1    6    6    0    0 -0.37054637848E+02  0.60309941261E+01 -0.72320599447E+02  0.81484281801E+02  0.00000000000E+00 0. -1.
        -14    1    6    6    0    0  0.30941223628E+02  0.28474081598E+02 -0.21388072505E+03  0.21797499212E+03  0.00000000000E+00 0.  1.
</event>
<event>
12    1  0.2685360E-002  0.2016941E+03  0.7818608E-02  0.1148318E+00
         -1   -1    0    0    0  501 -0.00000000000E+00  0.00000000000E+00  0.20666614397E+03  0.20666614397E+03  0.00000000000E+00 0. -1.
          1   -1    0    0  502    0  0.00000000000E+00 -0.00000000000E+00 -0.22723620151E+03  0.22723620151E+03  0.00000000000E+00 0.  1.
          6    2    1    2  502    0  0.15888889180E+01  0.10249427629E+03  0.69078813209E+02  0.21276864172E+03  0.17317913046E+03 0.  0.
         24    2    3    3    0    0  0.13943722890E+01  0.83595365117E+02 -0.23485023064E+02  0.11817815348E+03  0.80152356850E+02 0.  0.
         -6    2    1    2    0  501 -0.15888889180E+01 -0.10249427629E+03 -0.89648870748E+02  0.22113370376E+03  0.17422856732E+03 0.  0.
        -24    2    5    5    0    0 -0.67914880497E+02 -0.74391648642E+02 -0.40525966871E+02  0.13381792898E+03  0.78219791260E+02 0.  0.
          5    1    3    3  502    0  0.19451662902E+00  0.18898911170E+02  0.92563836273E+02  0.94590488241E+02  0.47000000000E+01 0. -1.
        -13    1    4    4    0    0  0.40460329847E+02  0.48332906947E+02 -0.15903903156E+02  0.65008017359E+02  0.00000000000E+00 0.  1.
         14    1    4    4    0    0 -0.39065957558E+02  0.35262458170E+02 -0.75811199078E+01  0.53170136121E+02  0.00000000000E+00 0. -1.
         -5    1    5    5    0  501  0.66325991579E+02 -0.28102627645E+02 -0.49122903877E+02  0.87315774777E+02  0.47000000000E+01 0.  1.
         13    1    6    6    0    0 -0.24830668244E+01 -0.47150844730E+02  0.80445430523E+01  0.47896580802E+02  0.00000000000E+00 0. -1.
        -14    1    6    6    0    0 -0.65431813673E+02 -0.27240803912E+02 -0.48570509923E+02  0.85921348176E+02  0.00000000000E+00 0.  1.
</event>
<event>
12    1  0.2685360E-002  0.1863070E+03  0.7818608E-02  0.1161835E+00
          4   -1    0    0  502    0  0.00000000000E+00  0.00000000000E+00  0.32487937296E+03  0.32487937296E+03  0.00000000000E+00 0. -1.
         -4   -1    0    0    0  501 -0.00000000000E+00 -0.00000000000E+00 -0.11205479934E+03  0.11205479934E+03  0.00000000000E+00 0.  1.
          6    2    1    2  502    0 -0.58701093686E+02 -0.49298212083E+02  0.15090254664E+03  0.23643892825E+03  0.16509287111E+03 0.  0.
         24    2    3    3    0    0 -0.11133066215E+01 -0.41697469705E+02  0.15370960134E+03  0.17809431359E+03  0.79693315642E+02 0.  0.
         -6    2    1    2    0  501  0.58701093686E+02  0.49298212083E+02  0.61922026979E+02  0.20049524404E+03  0.17460777000E+03 0.  0.
        -24    2    5    5    0    0  0.82726231563E+02  0.87710025385E+02  0.39736208240E+02  0.14982991858E+03  0.79582412098E+02 0.  0.
          5    1    3    3  502    0 -0.57587787064E+02 -0.76007423779E+01 -0.28070546936E+01  0.58344614659E+02  0.47000000000E+01 0. -1.
        -13    1    4    4    0    0 -0.13012431273E+02 -0.45674000278E+02  0.35683515386E+02  0.59403290644E+02  0.00000000000E+00 0.  1.
         14    1    4    4    0    0  0.11899124651E+02  0.39765305724E+01  0.11802608595E+03  0.11869102294E+03  0.00000000000E+00 0. -1.
         -5    1    5    5    0  501 -0.24025137877E+02 -0.38411813301E+02  0.22185818738E+02  0.50665325463E+02  0.47000000000E+01 0.  1.
         11    1    6    6    0    0 -0.68799485264E+01  0.19379957711E+02  0.30473291281E+02  0.36763268817E+02  0.00000000000E+00 0. -1.
        -12    1    6    6    0    0  0.89606180089E+02  0.68330067674E+02  0.92629169593E+01  0.11306664977E+03  0.00000000000E+00 0.  1.
</event>
<event>
12    1  0.2685360E-002  0.3979446E+03  0.7818608E-02  0.1044494E+00
         -2   -1    0    0    0  501 -0.00000000000E+00  0.00000000000E+00  0.11485759790E+03  0.11485759790E+03  0.00000000000E+00 0. -1.
          2   -1    0    0  502    0  0.00000000000E+00 -0.00000000000E+00 -0.14153913384E+04  0.14153913384E+04  0.00000000000E+00 0.  1.
          6    2    1    2  502    0  0.66195581092E+02  0.35212099048E+03 -0.52801045579E+03  0.66149698939E+03  0.17439087897E+03 0.  0.
         24    2    3    3    0    0  0.96049171556E+02  0.31527146515E+03 -0.39631270031E+03  0.52144159614E+03  0.78841877634E+02 0.  0.
         -6    2    1    2    0  501 -0.66195581092E+02 -0.35212099048E+03 -0.77252328467E+03  0.86875194687E+03  0.17194962326E+03 0.  0.
        -24    2    5    5    0    0 -0.98749010855E+02 -0.23325758947E+03 -0.61611315112E+03  0.66956747517E+03  0.67562701493E+02 0.  0.
          5    1    3    3  502    0 -0.29853590464E+02  0.36849525328E+02 -0.13169775548E+03  0.14005539325E+03  0.47000000000E+01 0. -1.
        -13    1    4    4    0    0 -0.95791514703E+01  0.53784215470E+01 -0.18424127251E+02  0.21450781482E+02  0.00000000000E+00 0.  1.
         14    1    4    4    0    0  0.10562832303E+03  0.30989304360E+03 -0.37788857305E+03  0.49999081466E+03  0.00000000000E+00 0. -1.
         -5    1    5    5    0  501  0.32553429763E+02 -0.11886340100E+03 -0.15641013355E+03  0.19918447170E+03  0.47000000000E+01 0.  1.
         13    1    6    6    0    0  0.27684764757E+01 -0.37483324073E+02 -0.13832593708E+03  0.14334130219E+03  0.00000000000E+00 0. -1.
        -14    1    6    6    0    0 -0.10151748733E+03 -0.19577426540E+03 -0.47778721404E+03  0.52622617298E+03  0.00000000000E+00 0.  1.
</event>
<event>
12    1  0.2685360E-002  0.3460279E+03  0.7818608E-02  0.1064257E+00
         -2   -1    0    0    0  501 -0.00000000000E+00  0.00000000000E+00  0.63283537702E+02  0.63283537702E+02  0.00000000000E+00 0.  1.
          2   -1    0    0  502    0  0.00000000000E+00 -0.00000000000E+00 -0.26393597408E+04  0.26393597408E+04  0.00000000000E+00 0. -1.
          6    2    1    2  502    0  0.13411236796E+03 -0.26736326046E+03 -0.20095073755E+04  0.20392365203E+04  0.17577386938E+03 0.  0.
         24    2    3    3    0    0  0.95701335205E+02 -0.17681998150E+03 -0.91524837623E+03  0.94055624819E+03  0.80885192634E+02 0.  0.
         -6    2    1    2    0  501 -0.13411236796E+03  0.26736326046E+03 -0.56656882758E+03  0.66340675820E+03  0.17215995518E+03 0.  0.
        -24    2    5    5    0    0 -0.48989187752E+02  0.38459813092E+02 -0.19583945094E+03  0.21944155154E+03  0.76957171594E+02 0.  0.
          5    1    3    3  502    0  0.38411032759E+02 -0.90543278953E+02 -0.10942589993E+04  0.10986802721E+04  0.47000000000E+01 0. -1.
        -13    1    4    4    0    0  0.34618639582E+01  0.86848667886E+01 -0.32106273688E+02  0.33439859798E+02  0.00000000000E+00 0.  1.
         14    1    4    4    0    0  0.92239471247E+02 -0.18550484829E+03 -0.88314210254E+03  0.90711638839E+03  0.00000000000E+00 0. -1.
         -5    1    5    5    0  501 -0.85123180212E+02  0.22890344736E+03 -0.37072937664E+03  0.44396520666E+03  0.47000000000E+01 0.  1.
         13    1    6    6    0    0 -0.44272720347E+02  0.48950741010E+02 -0.83123886274E+02  0.10614061090E+03  0.00000000000E+00 0. -1.
        -14    1    6    6    0    0 -0.47164674046E+01 -0.10490927918E+02 -0.11271556466E+03  0.11330094064E+03  0.00000000000E+00 0.  1.
</event>
<event>
12    1  0.2685360E-002  0.2460111E+03  0.7818608E-02  0.1115852E+00
          2   -1    0    0  502    0  0.00000000000E+00  0.00000000000E+00  0.38670617919E+03  0.38670617919E+03  0.00000000000E+00 0.  1.
         -2   -1    0    0    0  501 -0.00000000000E+00 -0.00000000000E+00 -0.16078252757E+03  0.16078252757E+03  0.00000000000E+00 0. -1.
          6    2    1    2  502    0 -0.15254247294E+03 -0.96663484787E+02  0.69024378096E+02  0.25698077816E+03  0.16929772659E+03 0.  0.
         24    2    3    3    0    0 -0.29947716262E+02 -0.24581527165E+01 -0.54832092243E+01  0.85290389598E+02  0.79633389670E+02 0.  0.
         -6    2    1    2    0  501  0.15254247294E+03  0.96663484787E+02  0.15689927352E+03  0.29050792860E+03  0.16481638029E+03 0.  0.
        -24    2    5    5    0    0  0.67202992282E+02  0.11870606546E+03  0.98876150257E+02  0.18487897824E+03  0.76133904137E+02 0.  0.
          5    1    3    3  502    0 -0.12259475668E+03 -0.94205332070E+02  0.74507587321E+02  0.17169038856E+03  0.47000000000E+01 0. -1.
        -13    1    4    4    0    0 -0.17805474405E+02 -0.27701077351E+02  0.26865922845E+02  0.42498969582E+02  0.00000000000E+00 0.  1.
         14    1    4    4    0    0 -0.12142241856E+02  0.25242924634E+02 -0.32349132069E+02  0.42791420017E+02  0.00000000000E+00 0. -1.
         -5    1    5    5    0  501  0.85339480655E+02 -0.22042580671E+02  0.58023123259E+02  0.10562895036E+03  0.47000000000E+01 0.  1.
         11    1    6    6    0    0 -0.98424292750E+01  0.77701144185E+01 -0.59763457861E+01  0.13891177094E+02  0.00000000000E+00 0. -1.
        -12    1    6    6    0    0  0.77045421557E+02  0.11093595104E+03  0.10485249604E+03  0.17098780115E+03  0.00000000000E+00 0.  1.
</event>
<event>
12    1  0.2685360E-002  0.3471059E+03  0.7818608E-02  0.1063809E+00
          2   -1    0    0  502    0  0.00000000000E+00  0.00000000000E+00  0.22399184214E+04  0.22399184214E+04  0.00000000000E+00 0.  1.
         -2   -1    0    0    0  501 -0.00000000000E+00 -0.00000000000E+00 -0.55098372521E+02  0.55098372521E+02  0.00000000000E+00 0. -1.
          6    2    1    2  502    0 -0.13993979735E+03  0.26486730752E+03  0.12606171206E+04  0.13068051081E+04  0.16984177443E+03 0.  0.
         24    2    3    3    0    0 -0.51177270033E+02  0.17325018768E+03  0.96032976136E+03  0.98051218599E+03  0.80846495408E+02 0.  0.
         -6    2    1    2    0  501  0.13993979735E+03 -0.26486730752E+03  0.92420292827E+03  0.98821168581E+03  0.18075797595E+03 0.  0.
        -24    2    5    5    0    0  0.58194953352E+02 -0.20165128328E+03  0.45146594743E+03  0.50428934876E+03  0.80226884132E+02 0.  0.
          5    1    3    3  502    0 -0.88762527314E+02  0.91617119835E+02  0.30028735922E+03  0.32629292210E+03  0.47000000000E+01 0. -1.
        -11    1    4    4    0    0 -0.53774105216E+02  0.49614856876E+02  0.40795609615E+03  0.41446527575E+03  0.00000000000E+00 0.  1.
         12    1    4    4    0    0  0.25968351828E+01  0.12363533081E+03  0.55237366521E+03  0.56604691024E+03  0.00000000000E+00 0. -1.
         -5    1    5    5    0  501  0.81744843995E+02 -0.63216024235E+02  0.47273698084E+03  0.48392233705E+03  0.47000000000E+01 0.  1.
         11    1    6    6    0    0  0.40849740239E+02 -0.97490776510E+02  0.14008257035E+03  0.17548868709E+03  0.00000000000E+00 0. -1.
        -12    1    6    6    0    0  0.17345213113E+02 -0.10416050677E+03  0.31138337709E+03  0.32880066167E+03  0.00000000000E+00 0.  1.
</event>
<event>
12    1  0.2685360E-002  0.1723190E+03  0.7818608E-02  0.1175451E+00
         -3   -1    0    0    0  501 -0.00000000000E+00  0.00000000000E+00  0.15177618744E+04  0.15177618744E+04  0.00000000000E+00 0. -1.
          3   -1    0    0  502    0  0.00000000000E+00 -0.00000000000E+00 -0.19566591872E+02  0.19566591872E+02  0.00000000000E+00 0.  1.
          6    2    1    2  502    0 -0.22642945609E+02  0.34248639616E+01  0.75248397173E+03  0.77175850605E+03  0.16986651016E+03 0.  0.
         24    2    3    3    0    0  0.11106510832E+02  0.58739048340E+02  0.34765382957E+03  0.36174848324E+03  0.80157030448E+02 0.  0.
         -6    2    1    2    0  501  0.22642945609E+02 -0.34248639616E+01  0.74571131077E+03  0.76556996019E+03  0.17171945801E+03 0.  0.
        -24    2    5    5    0    0 -0.28393395715E+02 -0.27366620217E+02  0.22810427309E+03  0.24488094429E+03  0.79874906266E+02 0.  0.
          5    1    3    3  502    0 -0.33749456441E+02 -0.55314184379E+02  0.40483014216E+03  0.41001002281E+03  0.47000000000E+01 0. -1.
        -13    1    4    4    0    0 -0.27729013578E+02  0.52351803609E+02  0.17840928195E+03  0.18798798212E+03  0.00000000000E+00 0.  1.
         14    1    4    4    0    0  0.38835524410E+02  0.63872447308E+01  0.16924454761E+03  0.17376050112E+03  0.00000000000E+00 0. -1.
         -5    1    5    5    0  501  0.51036341323E+02  0.23941756256E+02  0.51760703767E+03  0.52068901590E+03  0.47000000000E+01 0.  1.
         13    1    6    6    0    0  0.24316172630E+02  0.16203978278E+00  0.10994433127E+03  0.11260132543E+03  0.00000000000E+00 0. -1.
        -14    1    6    6    0    0 -0.52709568344E+02 -0.27528660000E+02  0.11815994182E+03  0.13227961886E+03  0.00000000000E+00 0.  1.
</event>
<event>
12    1  0.2685360E-002  0.1918397E+03  0.7818608E-02  0.1156812E+00
          1   -1    0    0  502    0  0.00000000000E+00  0.00000000000E+00  0.10837075044E+04  0.10837075044E+04  0.00000000000E+00 0.  1.
         -1   -1    0    0    0  501 -0.00000000000E+00 -0.00000000000E+00 -0.34347606431E+02  0.34347606431E+02  0.00000000000E+00 0. -1.
          6    2    1    2  502    0  0.32528021829E+02 -0.77040831067E+02  0.58202038485E+03  0.61258838534E+03  0.17182386217E+03 0.  0.
         24    2    3    3    0    0 -0.90584941837E+01 -0.71056080123E+02  0.54861663975E+03  0.55870744488E+03  0.77735247551E+02 0.  0.
         -6    2    1    2    0  501 -0.32528021829E+02  0.77040831067E+02  0.46733951308E+03  0.50546672546E+03  0.17348495094E+03 0.  0.
        -24    2    5    5    0    0  0.14507397159E+02  0.31555440583E+02  0.89949965045E+02  0.12241814844E+03  0.75425436386E+02 0.  0.
          5    1    3    3  502    0  0.41586516012E+02 -0.59847509449E+01  0.33403745105E+02  0.53880940461E+02  0.47000000000E+01 0. -1.
        -11    1    4    4    0    0 -0.41024167637E+02 -0.42586078343E+02  0.38820322625E+03  0.39268091533E+03  0.00000000000E+00 0.  1.
         12    1    4    4    0    0  0.31965673453E+02 -0.28470001780E+02  0.16041341350E+03  0.16602652954E+03  0.00000000000E+00 0. -1.
         -5    1    5    5    0  501 -0.47035418988E+02  0.45485390484E+02  0.37738954804E+03  0.38304857702E+03  0.47000000000E+01 0.  1.
         13    1    6    6    0    0 -0.27090831137E+02  0.31279220699E+02  0.47148750983E+02  0.62732029287E+02  0.00000000000E+00 0. -1.
        -14    1    6    6    0    0  0.41598228296E+02  0.27621988375E+00  0.42801214062E+02  0.59686119157E+02  0.00000000000E+00 0.  1.
</event>
<event>
12    1  0.2685360E-002  0.1922552E+03  0.7818608E-02  0.1156443E+00
         -1   -1    0    0    0  501 -0.00000000000E+00  0.00000000000E+00  0.17192620572E+03  0.17192620572E+03  0.00000000000E+00 0.  1.
          1   -1    0    0  502    0  0.00000000000E+00 -0.00000000000E+00 -0.21507536765E+03  0.21507536765E+03  0.00000000000E+00 0. -1.
          6    2    1    2  502    0  0.31472259655E+01  0.82568572200E+02 -0.25437156631E+02  0.19367626171E+03  0.17330888974E+03 0.  0.
         24    2    3    3    0    0 -0.20160217147E+02  0.10831058049E+03  0.72439781869E+01  0.14575930784E+03  0.95161359806E+02 0.  0.
         -6    2    1    2    0  501 -0.31472259655E+01 -0.82568572200E+02 -0.17712005300E+02  0.19332531167E+03  0.17387779287E+03 0.  0.
        -24    2    5    5    0    0 -0.41946695891E+02  0.27000451216E+01 -0.34783267136E+02  0.97985635001E+02  0.81390991234E+02 0.  0.
          5    1    3    3  502    0  0.23307443113E+02 -0.25742008287E+02 -0.32681134818E+02  0.47916953869E+02  0.47000000000E+01 0. -1.
        -13    1    4    4    0    0  0.15305056255E+02  0.37623781024E+02  0.42838606034E+02  0.59033378799E+02  0.00000000000E+00 0.  1.
         14    1    4    4    0    0 -0.35465273403E+02  0.70686799463E+02 -0.35594627847E+02  0.86725929037E+02  0.00000000000E+00 0. -1.
         -5    1    5    5    0  501  0.38799469925E+02 -0.85268617322E+02  0.17071261836E+02  0.95339676668E+02  0.47000000000E+01 0.  1.
         13    1    6    6    0    0 -0.28555575447E+02 -0.34968852376E+02 -0.36372285147E+02  0.57975724682E+02  0.00000000000E+00 0. -1.
        -14    1    6    6    0    0 -0.13391120444E+02  0.37668897498E+02  0.15890180111E+01  0.40009910319E+02  0.00000000000E+00 0.  1.
</event>
<event>
12    1  0.2685360E-002  0.1851347E+03  0.7818608E-02  0.1162924E+00
         -2   -1    0    0    0  501 -0.00000000000E+00  0.00000000000E+00  0.13033151869E+03  0.13033151869E+03  0.00000000000E+00 0. -1.
          2   -1    0    0  502    0  0.00000000000E+00 -0.00000000000E+00 -0.38420213779E+03  0.38420213779E+03  0.00000000000E+00 0.  1.
          6    2    1    2  502    0  0.65941501764E+02  0.71161790449E+01 -0.27143191137E+03  0.32854419928E+03  0.17282096722E+03 0.  0.
         24    2    3    3    0    0  0.70408940356E+02 -0.56117184968E+02 -0.19667656657E+03  0.23041740422E+03  0.79397424392E+02 0.  0.
         -6    2    1    2    0  501 -0.65941501764E+02 -0.71161790449E+01  0.17561292266E+02  0.18598945720E+03  0.17287208434E+03 0.  0.
        -24    2    5    5    0    0 -0.68004989654E+02  0.40323819618E+02 -0.35988504731E+02  0.11426441127E+03  0.74232702795E+02 0.  0.
          5    1    3    3  502    0 -0.44674385919E+01  0.63233364013E+02 -0.74755344800E+02  0.98126795057E+02  0.47000000000E+01 0. -1.
        -13    1    4    4    0    0 -0.10749080113E+02 -0.34193836456E+02 -0.63847417836E+02  0.73220584122E+02  0.00000000000E+00 0.  1.
         14    1    4    4    0    0  0.81158020468E+02 -0.21923348513E+02 -0.13282914873E+03  0.15719682010E+03  0.00000000000E+00 0. -1.
         -5    1    5    5    0  501  0.20634878904E+01 -0.47439998662E+02  0.53549796997E+02  0.71725045931E+02  0.47000000000E+01 0.  1.
         13    1    6    6    0    0  0.72804509180E+01  0.31569930589E+02 -0.14419229121E+02  0.35462369512E+02  0.00000000000E+00 0. -1.
        -14    1    6    6    0    0 -0.75285440572E+02  0.87538890286E+01 -0.21569275609E+02  0.78802041760E+02  0.00000000000E+00 0.  1.
</event>
<event>
12    1  0.2685360E-002  0.2335079E+03  0.7818608E-02  0.1124195E+00
          2   -1    0    0  502    0  0.00000000000E+00  0.00000000000E+00  0.73686392375E+03  0.73686392375E+03  0.00000000000E+00 0.  1.
         -2   -1    0    0    0  501 -0.00000000000E+00 -0.00000000000E+00 -0.10125218646E+03  0.10125218646E+03  0.00000000000E+00 0. -1.
          6    2    1    2  502    0  0.13497106738E+03  0.83097220875E+02  0.53544249315E+03  0.58423271086E+03  0.17177560891E+03 0.  0.
         24    2    3    3    0    0  0.12875248638E+03  0.37267768223E+02  0.50538688602E+03  0.52887533556E+03  0.79543237942E+02 0.  0.
         -6    2    1    2    0  501 -0.13497106738E+03 -0.83097220875E+02  0.10016924413E+03  0.25388339935E+03  0.17117408055E+03 0.  0.
        -24    2    5    5    0    0 -0.77719878701E+00 -0.77060765559E+01  0.42290505710E+02  0.89372435066E+02  0.78351500448E+02 0.  0.
          5    1    3    3  502    0  0.62185809979E+01  0.45829452651E+02  0.30055607130E+02  0.55357375298E+02  0.47000000000E+01 0. -1.
        -13    1    4    4    0    0  0.97451925300E+02  0.29718076298E+02  0.22927642286E+03  0.25089384186E+03  0.00000000000E+00 0.  1.
         14    1    4    4    0    0  0.31300561082E+02  0.75496919256E+01  0.27611046316E+03  0.27798149370E+03  0.00000000000E+00 0. -1.
         -5    1    5    5    0  501 -0.13419386859E+03 -0.75391144319E+02  0.57878738420E+02  0.16451096429E+03  0.47000000000E+01 0.  1.
         11    1    6    6    0    0  0.10709076050E+02  0.35645081456E+01 -0.21122782575E+02  0.23949153886E+02  0.00000000000E+00 0. -1.
        -12    1    6    6    0    0 -0.11486274837E+02 -0.11270584701E+02  0.63413288285E+02  0.65423281179E+02  0.00000000000E+00 0.  1.
</event>
<event>
12    1  0.2685360E-002  0.1993238E+03  0.7818608E-02  0.1150311E+00
          2   -1    0    0  502    0  0.00000000000E+00  0.00000000000E+00  0.14618059690E+04  0.14618059690E+04  0.00000000000E+00 0.  1.
         -2   -1    0    0    0  501 -0.00000000000E+00 -0.00000000000E+00 -0.27409503781E+02  0.27409503781E+02  0.00000000000E+00 0. -1.
          6    2    1    2  502    0  0.36461715419E+02 -0.91346817151E+02  0.78156444488E+03  0.80631622135E+03  0.17213125695E+03 0.  0.
         24    2    3    3    0    0 -0.33432381194E+02 -0.14062947236E+02  0.45938881568E+03  0.46767598845E+03  0.79795085077E+02 0.  0.
         -6    2    1    2    0  501 -0.36461715419E+02  0.91346817151E+02  0.65283202031E+03  0.68289925140E+03  0.17460825618E+03 0.  0.
        -24    2    5    5    0    0  0.26455386937E+02 -0.70630405675E+01  0.22136942038E+03  0.23588121261E+03  0.76718655768E+02 0.  0.
          5    1    3    3  502    0  0.69894096613E+02 -0.77283869915E+02  0.32217562920E+03  0.33864023290E+03  0.47000000000E+01 0. -1.
        -13    1    4    4    0    0 -0.20656816845E+02  0.32959274487E+02  0.20970171838E+03  0.21327875785E+03  0.00000000000E+00 0.  1.
         14    1    4    4    0    0 -0.12775564349E+02 -0.47022221723E+02  0.24968709730E+03  0.25439723060E+03  0.00000000000E+00 0. -1.
         -5    1    5    5    0  501 -0.62917102356E+02  0.98409857718E+02  0.43146259993E+03  0.44701803879E+03  0.47000000000E+01 0.  1.
         13    1    6    6    0    0  0.53097298279E+02  0.18660247401E+01  0.15303417257E+03  0.16199463913E+03  0.00000000000E+00 0. -1.
        -14    1    6    6    0    0 -0.26641911342E+02 -0.89290653076E+01  0.68335247812E+02  0.73886573481E+02  0.00000000000E+00 0.  1.
</event>
<event>
12    1  0.2685360E-002  0.2846624E+03  0.7818608E-02  0.1093169E+00
         -1   -1    0    0    0  501 -0.00000000000E+00  0.00000000000E+00  0.47230179196E+03  0.47230179196E+03  0.00000000000E+00 0.  1.
          1   -1    0    0  502    0  0.00000000000E+00 -0.00000000000E+00 -0.19585378413E+03  0.19585378413E+03  0.00000000000E+00 0. -1.
          6    2    1    2  502    0  0.18045712405E+03  0.13850573185E+03  0.25598792995E+03  0.38305847621E+03  0.17162565236E+03 0.  0.
         24    2    3    3    0    0  0.19192454895E+03  0.88500114254E+02  0.23836182863E+03  0.32860819548E+03  0.80620605761E+02 0.  0.
         -6    2    1    2    0  501 -0.18045712405E+03 -0.13850573185E+03  0.20460077881E+02  0.28509709988E+03  0.17062570204E+03 0.  0.
        -24    2    5    5    0    0 -0.16249885519E+03 -0.45493730259E+02  0.28466645275E+02  0.18991345117E+03  0.82348112367E+02 0.  0.
          5    1    3    3  502    0 -0.11467424905E+02  0.50005617592E+02  0.17626101316E+02  0.54450280737E+02  0.47000000000E+01 0. -1.
        -13    1    4    4    0    0  0.13318048421E+02  0.20529839195E+02  0.69168645520E+02  0.73369927315E+02  0.00000000000E+00 0.  1.
         14    1    4    4    0    0  0.17860650053E+03  0.67970275060E+02  0.16919318311E+03  0.25523826816E+03  0.00000000000E+00 0. -1.
         -5    1    5    5    0  501 -0.17958268853E+02 -0.93012001587E+02 -0.80065673943E+01  0.95183648705E+02  0.47000000000E+01 0.  1.
         11    1    6    6    0    0 -0.13165502816E+03 -0.13796959336E+02 -0.79621806792E+01  0.13261522857E+03  0.00000000000E+00 0. -1.
        -12    1    6    6    0    0 -0.30843827031E+02 -0.31696770923E+02  0.36428825955E+02  0.57298222602E+02  0.00000000000E+00 0.  1.
</event>
<event>
12    1  0.2685360E-002  0.1968035E+03  0.7818608E-02  0.1152464E+00
          1   -1    0    0  502    0  0.00000000000E+00  0.00000000000E+00  0.16871457993E+03  0.16871457993E+03  0.00000000000E+00 0. -1.
         -1   -1    0    0    0  501 -0.00000000000E+00 -0.00000000000E+00 -0.23864926241E+03  0.23864926241E+03  0.00000000000E+00 0.  1.
          6    2    1    2  502    0  0.41206824326E+02  0.83888004714E+02  0.47587242365E+01  0.19688719876E+03  0.17322448982E+03 0.  0.
         24    2    3    3    0    0 -0.28489875022E+02  0.86715946043E+02  0.23112527255E+02  0.12460594782E+03  0.81615715640E+02 0.  0.
         -6    2    1    2    0  501 -0.41206824326E+02 -0.83888004714E+02 -0.74693406715E+02  0.21047664358E+03  0.17316498717E+03 0.  0.
        -24    2    5    5    0    0  0.12295484910E+02 -0.50359239034E+02 -0.86104472428E+02  0.14614175691E+03  0.10609524512E+03 0.  0.
          5    1    3    3  502    0  0.69696699348E+02 -0.28279413289E+01 -0.18353803018E+02  0.72281250940E+02  0.47000000000E+01 0. -1.
        -11    1    4    4    0    0 -0.83249196233E+01 -0.14390499579E+02  0.12823631966E+02  0.20996102059E+02  0.00000000000E+00 0.  1.
         12    1    4    4    0    0 -0.20164955399E+02  0.10110644562E+03  0.10288895289E+02  0.10360984576E+03  0.00000000000E+00 0. -1.
         -5    1    5    5    0  501 -0.53502309236E+02 -0.33528765681E+02  0.11411065713E+02  0.64334886666E+02  0.47000000000E+01 0.  1.
         11    1    6    6    0    0  0.44475440686E+02  0.38189028988E+01 -0.72855907262E+01  0.45229732210E+02  0.00000000000E+00 0. -1.
        -12    1    6    6    0    0 -0.32179955777E+02 -0.54178141932E+02 -0.78818881702E+02  0.10091202470E+03  0.00000000000E+00 0.  1.
</event>
<event>
12    1  0.2685360E-002  0.1745645E+03  0.7818608E-02  0.1173170E+00
          1   -1    0    0  502    0  0.00000000000E+00  0.00000000000E+00  0.30953847397E+02  0.30953847397E+02  0.00000000000E+00 0.  1.
         -1   -1    0    0    0  501 -0.00000000000E+00 -0.00000000000E+00 -0.10787869127E+04  0.10787869127E+04  0.00000000000E+00 0. -1.
          6    2    1    2  502    0 -0.25438850952E+02  0.26351542476E+02 -0.69206025336E+03  0.71410931283E+03  0.17223001323E+03 0.  0.
         24    2    3    3    0    0  0.11067611956E+02  0.77418883281E+02 -0.43507243235E+03  0.44952392911E+03  0.81655164724E+02 0.  0.
         -6    2    1    2    0  501  0.25438850952E+02 -0.26351542476E+02 -0.35577281190E+03  0.39563144722E+03  0.16914020639E+03 0.  0.
        -24    2    5    5    0    0  0.78589973393E+02 -0.56350500673E+01 -0.18881645506E+03  0.21913575333E+03  0.78490043821E+02 0.  0.
          5    1    3    3  502    0 -0.36506462909E+02 -0.51067340805E+02 -0.25698782101E+03  0.26458538372E+03  0.47000000000E+01 0. -1.
        -11    1    4    4    0    0 -0.28344265769E+02  0.65216574616E+02 -0.25056891472E+03  0.26046377873E+03  0.00000000000E+00 0.  1.
         12    1    4    4    0    0  0.39411877725E+02  0.12202308665E+02 -0.18450351763E+03  0.18906015038E+03  0.00000000000E+00 0. -1.
         -5    1    5    5    0  501 -0.53151122440E+02 -0.20716492409E+02 -0.16695635684E+03  0.17649569389E+03  0.47000000000E+01 0.  1.
         13    1    6    6    0    0 -0.64907675474E+01  0.18353363680E+02 -0.58602509219E+02  0.61751357139E+02  0.00000000000E+00 0. -1.
        -14    1    6    6    0    0  0.85080740940E+02 -0.23988413747E+02 -0.13021394584E+03  0.15738439619E+03  0.00000000000E+00 0.  1.
</event>
<event>
12    1  0.2685360E-002  0.1942161E+03  0.7818608E-02  0.1154713E+00
         -2   -1    0    0    0  501 -0.00000000000E+00  0.00000000000E+00  0.45449539582E+03  0.45449539582E+03  0.00000000000E+00 0.  1.
          2   -1    0    0  502    0  0.00000000000E+00 -0.00000000000E+00 -0.10901167082E+03  0.10901167082E+03  0.00000000000E+00 0. -1.
          6    2    1    2  502    0  0.42844819350E+02 -0.83252513830E+02  0.30907814503E+03  0.36402994929E+03  0.16799358511E+03 0.  0.
         24    2    3    3    0    0 -0.15289022661E+02  0.69487568073E+01  0.16980502101E+03  0.18814673267E+03  0.79267953296E+02 0.  0.
         -6    2    1    2    0  501 -0.42844819350E+02  0.83252513830E+02  0.36405579965E+02  0.19947711736E+03  0.17233425223E+03 0.  0.
        -24    2    5    5    0    0  0.97145053941E+00  0.11583956487E+02  0.72632488634E+02  0.10787620835E+03  0.78909227340E+02 0.  0.
          5    1    3    3  502    0  0.58133842012E+02 -0.90201270638E+02  0.13927312402E+03  0.17588321662E+03  0.47000000000E+01 0. -1.
        -13    1    4    4    0    0 -0.20085339937E+02 -0.33784541573E+02  0.95537086552E+02  0.10330610358E+03  0.00000000000E+00 0.  1.
         14    1    4    4    0    0  0.47963172751E+01  0.40733298380E+02  0.74267934458E+02  0.84840629094E+02  0.00000000000E+00 0. -1.
         -5    1    5    5    0  501 -0.43816269890E+02  0.71668557344E+02 -0.36226908669E+02  0.91600909005E+02  0.47000000000E+01 0.  1.
         11    1    6    6    0    0  0.26227509284E+02  0.19012041593E+02  0.19520527785E+01  0.32452280025E+02  0.00000000000E+00 0. -1.
        -12    1    6    6    0    0 -0.25256058745E+02 -0.74280851066E+01  0.70680435855E+02  0.75423928328E+02  0.00000000000E+00 0.  1.
</event>
<event>
12    1  0.2685360E-002  0.1773022E+03  0.7818608E-02  0.1170440E+00
         -4   -1    0    0    0  501 -0.00000000000E+00  0.00000000000E+00  0.79199482532E+02  0.79199482532E+02  0.00000000000E+00 0. -1.
          4   -1    0    0  502    0  0.00000000000E+00 -0.00000000000E+00 -0.40418485772E+03  0.40418485772E+03  0.00000000000E+00 0.  1.
          6    2    1    2  502    0 -0.10308940824E+02 -0.28340201253E+02 -0.19174980102E+03  0.25903806554E+03  0.17153218922E+03 0.  0.
         24    2    3    3    0    0  0.28448269678E+02 -0.31506151154E+02 -0.19922234284E+03  0.21916234002E+03  0.80874271485E+02 0.  0.
         -6    2    1    2    0  501  0.10308940824E+02  0.28340201253E+02 -0.13323557417E+03  0.22434627471E+03  0.17796092685E+03 0.  0.
        -24    2    5    5    0    0  0.73478058069E+02  0.21862390526E-01 -0.60261828654E+02  0.12365107511E+03  0.79114315307E+02 0.  0.
          5    1    3    3  502    0 -0.38757210503E+02  0.31659499004E+01  0.74725418182E+01  0.39875725522E+02  0.47000000000E+01 0. -1.
        -13    1    4    4    0    0 -0.12726365561E+02 -0.29279446443E+01 -0.14398229194E+03  0.14457328119E+03  0.00000000000E+00 0.  1.
         14    1    4    4    0    0  0.41174635239E+02 -0.28578206509E+02 -0.55240050895E+02  0.74589058831E+02  0.00000000000E+00 0. -1.
         -5    1    5    5    0  501 -0.63169117245E+02  0.28318338863E+02 -0.72973745517E+02  0.10069519961E+03  0.47000000000E+01 0.  1.
         13    1    6    6    0    0  0.14963570341E+02  0.32922842138E+02 -0.39110729595E+02  0.53267918499E+02  0.00000000000E+00 0. -1.
        -14    1    6    6    0    0  0.58514487728E+02 -0.32900979748E+02 -0.21151099059E+02  0.70383156606E+02  0.00000000000E+00 0.  1.
</event>
<event>
12    1  0.2685360E-002  0.1793145E+03  0.7818608E-02  0.1168468E+00
          1   -1    0    0  502    0  0.00000000000E+00  0.00000000000E+00  0.20324794321E+04  0.20324794321E+04  0.00000000000E+00 0. -1.
         -1   -1    0    0    0  501 -0.00000000000E+00 -0.00000000000E+00 -0.20801552150E+02  0.20801552150E+02  0.00000000000E+00 0.  1.
          6    2    1    2  502    0  0.48424116690E+02 -0.55114835915E+02  0.14608773709E+04  0.14706538717E+04  0.15256990991E+03 0.  0.
         24    2    3    3    0    0  0.62269725316E+02 -0.77235227860E+02  0.13724939014E+04  0.13783785213E+04  0.79655755932E+02 0.  0.
         -6    2    1    2    0  501 -0.48424116690E+02  0.55114835915E+02  0.55080050910E+03  0.58262711257E+03  0.17518736045E+03 0.  0.
        -24    2    5    5    0    0 -0.44458318300E+02  0.88137815762E+02  0.52514438343E+03  0.54035925789E+03  0.80415716778E+02 0.  0.
          5    1    3    3  502    0 -0.13845608626E+02  0.22120391945E+02  0.88383469461E+02  0.92275350403E+02  0.47000000000E+01 0. -1.
        -13    1    4    4    0    0 -0.16188306335E+01 -0.37880806428E+02  0.20507283579E+03  0.20854842144E+03  0.00000000000E+00 0.  1.
         14    1    4    4    0    0  0.63888555949E+02 -0.39354421432E+02  0.11674210656E+04  0.11698300999E+04  0.00000000000E+00 0. -1.
         -5    1    5    5    0  501 -0.39657983902E+01 -0.33022979847E+02  0.25656125668E+02  0.42267854679E+02  0.47000000000E+01 0.  1.
         11    1    6    6    0    0  0.17141468359E+02  0.43146075490E+01  0.15073575062E+03  0.15176861431E+03  0.00000000000E+00 0. -1.
        -12    1    6    6    0    0 -0.61599786659E+02  0.83823208213E+02  0.37440863281E+03  0.38859064358E+03  0.00000000000E+00 0.  1.
</event>
<event>
12    1  0.2685360E-002  0.1739481E+03  0.7818608E-02  0.1173792E+00
         -1   -1    0    0    0  501 -0.00000000000E+00  0.00000000000E+00  0.14229896054E+02  0.14229896054E+02  0.00000000000E+00 0.  1.
          1   -1    0    0  502    0  0.00000000000E+00 -0.00000000000E+00 -0.21264108705E+04  0.21264108705E+04  0.00000000000E+00 0. -1.
          6    2    1    2  502    0 -0.22031730713E+02 -0.18443573903E+02 -0.10588677272E+04  0.10730119808E+04  0.17125502852E+03 0.  0.
         24    2    3    3    0    0 -0.63679527490E+02 -0.23688090386E+02 -0.42432723335E+03  0.43706719374E+03  0.79736585309E+02 0.  0.
         -6    2    1    2    0  501  0.22031730713E+02  0.18443573903E+02 -0.10533132473E+04  0.10676287858E+04  0.17186292397E+03 0.  0.
        -24    2    5    5    0    0 -0.38020643702E+02 -0.21805489722E+02 -0.76747000679E+03  0.77274792346E+03  0.78791453610E+02 0.  0.
          5    1    3    3  502    0  0.41647796777E+02  0.52445164835E+01 -0.63454049381E+03  0.63594478708E+03  0.47000000000E+01 0. -1.
        -13    1    4    4    0    0 -0.32244978067E+02 -0.64556115549E+01 -0.37307864739E+03  0.37452515358E+03  0.00000000000E+00 0.  1.
         14    1    4    4    0    0 -0.31434549422E+02 -0.17232478831E+02 -0.51248585963E+02  0.62542040159E+02  0.00000000000E+00 0. -1.
         -5    1    5    5    0  501  0.60052374415E+02  0.40249063624E+02 -0.28584324053E+03  0.29488086230E+03  0.47000000000E+01 0.  1.
         13    1    6    6    0    0 -0.47175274150E+01 -0.44100893196E+02 -0.53618802190E+03  0.53801927351E+03  0.00000000000E+00 0. -1.
        -14    1    6    6    0    0 -0.33303116287E+02  0.22295403474E+02 -0.23128198489E+03  0.23472864995E+03  0.00000000000E+00 0.  1.
</event>
<event>
12    1  0.2685360E-002  0.2955210E+03  0.7818608E-02  0.1087501E+00
          1   -1    0    0  502    0  0.00000000000E+00  0.00000000000E+00  0.42461391126E+03  0.42461391126E+03  0.00000000000E+00 0.  1.
         -1   -1    0    0    0  501 -0.00000000000E+00 -0.00000000000E+00 -0.20593797479E+03  0.20593797479E+03  0.00000000000E+00 0. -1.
          6    2    1    2  502    0  0.23931369189E+03 -0.18342525788E+02  0.97868813000E+02  0.31070888587E+03  0.17133072060E+03 0.  0.
         24    2    3    3    0    0  0.24330286067E+03  0.33904599454E+01  0.11649945030E+03  0.28142703513E+03  0.80132870637E+02 0.  0.
         -6    2    1    2    0  501 -0.23931369189E+03  0.18342525788E+02  0.12080712347E+03  0.31984300018E+03  0.17348686494E+03 0.  0.
        -24    2    5    5    0    0 -0.24432681505E+03  0.36680191077E+02  0.13740827908E+03  0.29417025706E+03  0.81326969742E+02 0.  0.
          5    1    3    3  502    0 -0.39891687814E+01 -0.21732985733E+02 -0.18630637296E+02  0.29281850736E+02  0.47000000000E+01 0. -1.
        -11    1    4    4    0    0  0.10742641145E+03  0.17918276652E+02  0.12343881644E+02  0.10960780050E+03  0.00000000000E+00 0.  1.
         12    1    4    4    0    0  0.13587644922E+03 -0.14527816707E+02  0.10415556865E+03  0.17181923464E+03  0.00000000000E+00 0. -1.
         -5    1    5    5    0  501  0.50131231610E+01 -0.18337665289E+02 -0.16601155608E+02  0.25672743126E+02  0.47000000000E+01 0.  1.
         11    1    6    6    0    0 -0.91205455479E+02  0.25043828206E+02  0.96784186083E+02  0.13532482077E+03  0.00000000000E+00 0. -1.
        -12    1    6    6    0    0 -0.15312135957E+03  0.11636362871E+02  0.40624092996E+02  0.15884543629E+03  0.00000000000E+00 0.  1.
</event>
<event>
12    1  0.2685360E-002  0.1763410E+03  0.7818608E-02  0.1171392E+00
          2   -1    0    0  502    0  0.00000000000E+00  0.00000000000E+00  0.21021805238E+03  0.21021805238E+03  0.00000000000E+00 0.  1.
         -2   -1    0    0    0  501 -0.00000000000E+00 -0.00000000000E+00 -0.14801467713E+03  0.14801467713E+03  0.00000000000E+00 0. -1.
          6    2    1    2  502    0  0.38892039562E+02 -0.29982289402E+02  0.33979728009E+02  0.17680858692E+03  0.16641852684E+03 0.  0.
         24    2    3    3    0    0  0.17734175728E+02  0.43041290131E+02 -0.34290111473E+01  0.91946333033E+02  0.79216894636E+02 0.  0.
         -6    2    1    2    0  501 -0.38892039562E+02  0.29982289402E+02  0.28223647240E+02  0.18142414260E+03  0.17235607571E+03 0.  0.
        -24    2    5    5    0    0 -0.74183979863E+02 -0.19308882462E+02 -0.32177292638E+01  0.11297130606E+03  0.82922050143E+02 0.  0.
          5    1    3    3  502    0  0.21157863835E+02 -0.73023579533E+02  0.37408739156E+02  0.84862253889E+02  0.47000000000E+01 0. -1.
        -13    1    4    4    0    0  0.26607913369E+02  0.20444914042E+02  0.33718314447E+02  0.47569951579E+02  0.00000000000E+00 0.  1.
         14    1    4    4    0    0 -0.88737376418E+01  0.22596376089E+02 -0.37147325595E+02  0.44376381454E+02  0.00000000000E+00 0. -1.
         -5    1    5    5    0  501  0.35291940301E+02  0.49291171864E+02  0.31441376504E+02  0.68452836540E+02  0.47000000000E+01 0.  1.
         13    1    6    6    0    0  0.18267117113E+02 -0.47566649349E+01 -0.43671517379E+01  0.19374866277E+02  0.00000000000E+00 0. -1.
        -14    1    6    6    0    0 -0.92451096977E+02 -0.14552217527E+02  0.11494224741E+01  0.93596439778E+02  0.00000000000E+00 0.  1.
</event>
<event>
12    1  0.2685360E-002  0.1921280E+03  0.7818608E-02  0.1156556E+00
          2   -1    0    0  502    0  0.00000000000E+00  0.00000000000E+00  0.24335358344E+04  0.24335358344E+04  0.00000000000E+00 0. -1.
         -2   -1    0    0    0  501 -0.00000000000E+00 -0.00000000000E+00 -0.17769547592E+02  0.17769547592E+02  0.00000000000E+00 0.  1.
          6    2    1    2  502    0  0.52694470282E+02 -0.71500818141E+02  0.74930745258E+03  0.77402316739E+03  0.17251414717E+03 0.  0.
         24    2    3    3    0    0  0.90239185585E+02 -0.75832200413E+02  0.44271901483E+03  0.46507830713E+03  0.80025448681E+02 0.  0.
         -6    2    1    2    0  501 -0.52694470282E+02  0.71500818141E+02  0.16664588342E+04  0.16772822146E+04  0.16823051758E+03 0.  0.
        -24    2    5    5    0    0 -0.72978903400E+02  0.50739609428E+02  0.16008540820E+04  0.16053895201E+04  0.81494115953E+02 0.  0.
          5    1    3    3  502    0 -0.37544715303E+02  0.43313822724E+01  0.30658843774E+03  0.30894486025E+03  0.47000000000E+01 0. -1.
        -13    1    4    4    0    0  0.11368300824E+02 -0.53859439574E+02  0.11817975143E+03  0.13037074497E+03  0.00000000000E+00 0.  1.
         14    1    4    4    0    0  0.78870884761E+02 -0.21972760839E+02  0.32453926340E+03  0.33470756217E+03  0.00000000000E+00 0. -1.
         -5    1    5    5    0  501  0.20284433118E+02  0.20761208713E+02  0.65604752215E+02  0.71892694534E+02  0.47000000000E+01 0.  1.
         11    1    6    6    0    0 -0.66430927084E+02  0.59900850317E+02  0.15699774604E+04  0.15725235789E+04  0.00000000000E+00 0. -1.
        -12    1    6    6    0    0 -0.65479763159E+01 -0.91612408892E+01  0.30876621627E+02  0.32865941209E+02  0.00000000000E+00 0.  1.
</event>
<event>
12    1  0.2685360E-002  0.1863455E+03  0.7818608E-02  0.1161799E+00
         -2   -1    0    0    0  501 -0.00000000000E+00  0.00000000000E+00  0.13773287190E+02  0.13773287190E+02  0.00000000000E+00 0.  1.
          2   -1    0    0  502    0  0.00000000000E+00 -0.00000000000E+00 -0.31363820670E+04  0.31363820670E+04  0.00000000000E+00 0. -1.
          6    2    1    2  502    0 -0.71045173014E+02  0.73526648144E+01 -0.22609501877E+04  0.22686415067E+04  0.17244435857E+03 0.  0.
         24    2    3    3    0    0 -0.76286572588E+02 -0.47652599072E+02 -0.10938174132E+04  0.11001920836E+04  0.76783305301E+02 0.  0.
         -6    2    1    2    0  501  0.71045173014E+02 -0.73526648144E+01 -0.86165859214E+03  0.88151384743E+03  0.17178374634E+03 0.  0.
        -24    2    5    5    0    0  0.32010547142E+02 -0.50032194266E+02 -0.33309818969E+03  0.34977760333E+03  0.88668327053E+02 0.  0.
          5    1    3    3  502    0  0.52413995736E+01  0.55005263886E+02 -0.11671327745E+04  0.11684494232E+04  0.47000000000E+01 0. -1.
        -11    1    4    4    0    0 -0.84084281385E+02 -0.44289167560E+02 -0.10784919917E+04  0.10826710825E+04  0.00000000000E+00 0.  1.
         12    1    4    4    0    0  0.77977087966E+01 -0.33634315118E+01 -0.15325421500E+02  0.17521001061E+02  0.00000000000E+00 0. -1.
         -5    1    5    5    0  501  0.39034625872E+02  0.42679529451E+02 -0.52856040245E+03  0.53173624410E+03  0.47000000000E+01 0.  1.
         13    1    6    6    0    0 -0.69424410531E+01 -0.12520670504E+02 -0.21940859762E+01  0.14483738845E+02  0.00000000000E+00 0. -1.
        -14    1    6    6    0    0  0.38952988195E+02 -0.37511523761E+02 -0.33090410371E+03  0.33529386448E+03  0.00000000000E+00 0.  1.
</event>
<event>
12    1  0.2685360E-002  0.1930914E+03  0.7818608E-02  0.1155702E+00
          1   -1    0    0  502    0  0.00000000000E+00  0.00000000000E+00  0.43273334660E+03  0.43273334660E+03  0.00000000000E+00 0.  1.
         -1   -1    0    0    0  501 -0.00000000000E+00 -0.00000000000E+00 -0.88634372023E+02  0.88634372023E+02  0.00000000000E+00 0. -1.
          6    2    1    2  502    0  0.85871635154E+02  0.26020208802E+02  0.21554757879E+03  0.28934303458E+03  0.17090243986E+03 0.  0.
         24    2    3    3    0    0  0.79068542482E+02  0.78426273252E+02  0.12962570113E+03  0.18836117126E+03  0.79212332985E+02 0.  0.
         -6    2    1    2    0  501 -0.85871635154E+02 -0.26020208802E+02  0.12855139579E+03  0.23202468405E+03  0.17105263417E+03 0.  0.
        -24    2    5    5    0    0 -0.55663954365E+02 -0.50675979655E+02  0.12753122817E+02  0.10974737201E+03  0.78837255096E+02 0.  0.
          5    1    3    3  502    0  0.68030926719E+01 -0.52406064449E+02  0.85921877652E+02  0.10098186332E+03  0.47000000000E+01 0. -1.
        -11    1    4    4    0    0  0.15814389014E+02  0.18200543734E+02  0.88680951387E+02  0.91900303759E+02  0.00000000000E+00 0.  1.
         12    1    4    4    0    0  0.63254153468E+02  0.60225729518E+02  0.40944749747E+02  0.96460867500E+02  0.00000000000E+00 0. -1.
         -5    1    5    5    0  501 -0.30207680789E+02  0.24655770853E+02  0.11579827298E+03  0.12227731204E+03  0.47000000000E+01 0.  1.
         11    1    6    6    0    0  0.18413799476E+02 -0.20981545002E+02  0.10751113780E+02  0.29914539765E+02  0.00000000000E+00 0. -1.
        -12    1    6    6    0    0 -0.74077753841E+02 -0.29694434653E+02  0.20020090366E+01  0.79832832242E+02  0.00000000000E+00 0.  1.
</event>
<event>
12    1  0.2685360E-002  0.1879956E+03  0.7818608E-02  0.1160282E+00
          2   -1    0    0  502    0  0.00000000000E+00  0.00000000000E+00  0.32436716467E+02  0.32436716467E+02  0.00000000000E+00 0. -1.
         -2   -1    0    0    0  501 -0.00000000000E+00 -0.00000000000E+00 -0.12605862644E+04  0.12605862644E+04  0.00000000000E+00 0.  1.
          6    2    1    2  502    0 -0.13661685561E+02 -0.76205750198E+02 -0.85288831355E+03  0.87341479447E+03  0.17158371076E+03 0.  0.
         24    2    3    3    0    0 -0.45426384908E+02 -0.84538343052E+02 -0.80611670865E+03  0.81607282683E+03  0.83309200165E+02 0.  0.
         -6    2    1    2    0  501  0.13661685561E+02  0.76205750198E+02 -0.37526123439E+03  0.41960818640E+03  0.17104408216E+03 0.  0.
        -24    2    5    5    0    0  0.48417919410E+02  0.99773615371E+02 -0.22616660775E+03  0.26464129396E+03  0.81145614566E+02 0.  0.
          5    1    3    3  502    0  0.31764699347E+02  0.83325928536E+01 -0.46771604898E+02  0.57341967642E+02  0.47000000000E+01 0. -1.
        -13    1    4    4    0    0 -0.39134124412E+02 -0.11495493754E+01 -0.16810108572E+03  0.17260004686E+03  0.00000000000E+00 0.  1.
         14    1    4    4    0    0 -0.62922604958E+01 -0.83388793676E+02 -0.63801562293E+03  0.64347277996E+03  0.00000000000E+00 0. -1.
         -5    1    5    5    0  501 -0.34756233849E+02 -0.23567865173E+02 -0.14909462664E+03  0.15496689244E+03  0.47000000000E+01 0.  1.
         13    1    6    6    0    0  0.49654898818E+02  0.30040878006E+02 -0.55616724973E+02  0.80382108859E+02  0.00000000000E+00 0. -1.
        -14    1    6    6    0    0 -0.12369794081E+01  0.69732737365E+02 -0.17054988278E+03  0.18425918510E+03  0.00000000000E+00 0.  1.
</event>
<event>
12    1  0.2685360E-002  0.2197306E+03  0.7818608E-02  0.1134084E+00
          1   -1    0    0  502    0  0.00000000000E+00  0.00000000000E+00  0.16979591447E+04  0.16979591447E+04  0.00000000000E+00 0.  1.
         -1   -1    0    0    0  501 -0.00000000000E+00 -0.00000000000E+00 -0.29799084260E+02  0.29799084260E+02  0.00000000000E+00 0. -1.
          6    2    1    2  502    0  0.12631502137E+03  0.55074178366E+02  0.10189799859E+04  0.10424061897E+04  0.17117769384E+03 0.  0.
         24    2    3    3    0    0  0.31578551994E+02 -0.31440454969E+02  0.40019626340E+03  0.41044482564E+03  0.79512253758E+02 0.  0.
         -6    2    1    2    0  501 -0.12631502137E+03 -0.55074178366E+02  0.64918007456E+03  0.68535203930E+03  0.17112568136E+03 0.  0.
        -24    2    5    5    0    0 -0.13827835579E+03 -0.29526709920E+02  0.63124889033E+03  0.65159686366E+03  0.78170204782E+02 0.  0.
          5    1    3    3  502    0  0.94736469377E+02  0.86514633335E+02  0.61878372247E+03  0.63196136402E+03  0.47000000000E+01 0. -1.
        -11    1    4    4    0    0  0.48825513038E+02 -0.70799020340E+01  0.33655406806E+03  0.34015099068E+03  0.00000000000E+00 0.  1.
         12    1    4    4    0    0 -0.17246961044E+02 -0.24360552935E+02  0.63642195347E+02  0.70293834958E+02  0.00000000000E+00 0. -1.
         -5    1    5    5    0  501  0.11963334419E+02 -0.25547468446E+02  0.17931184231E+02  0.33755175638E+02  0.47000000000E+01 0.  1.
         11    1    6    6    0    0 -0.10915262023E+03 -0.53796459936E+02  0.43399955897E+03  0.45073714157E+03  0.00000000000E+00 0. -1.
        -12    1    6    6    0    0 -0.29125735559E+02  0.24269750016E+02  0.19724933135E+03  0.20085972209E+03  0.00000000000E+00 0.  1.
</event>
<event>
12    1  0.2685360E-002  0.1773629E+03  0.7818608E-02  0.1170380E+00
          2   -1    0    0  502    0  0.00000000000E+00  0.00000000000E+00  0.13213583879E+04  0.13213583879E+04  0.00000000000E+00 0.  1.
         -2   -1    0    0    0  501 -0.00000000000E+00 -0.00000000000E+00 -0.24543395592E+02  0.24543395592E+02  0.00000000000E+00 0. -1.
          6    2    1    2  502    0  0.20706960968E+02 -0.36893575306E+02  0.76291376987E+03  0.78312952643E+03  0.17165232529E+03 0.  0.
         24    2    3    3    0    0 -0.41052117579E+02 -0.72616464079E+01  0.26175497249E+03  0.27728917100E+03  0.81459258911E+02 0.  0.
         -6    2    1    2    0  501 -0.20706960968E+02  0.36893575306E+02  0.53390122240E+03  0.56277225703E+03  0.17283571351E+03 0.  0.
        -24    2    5    5    0    0  0.46286400224E+02 -0.16207774413E+02  0.22510990006E+03  0.24233188108E+03  0.75134217792E+02 0.  0.
          5    1    3    3  502    0  0.61759078547E+02 -0.29631928898E+02  0.50115879738E+03  0.50584035544E+03  0.47000000000E+01 0. -1.
        -13    1    4    4    0    0  0.20473061749E+02  0.76474581405E+01  0.30473391343E+02  0.37500099377E+02  0.00000000000E+00 0.  1.
         14    1    4    4    0    0 -0.61525179329E+02 -0.14909104548E+02  0.23128158115E+03  0.23978907162E+03  0.00000000000E+00 0. -1.
         -5    1    5    5    0  501 -0.66993361192E+02  0.53101349719E+02  0.30879132234E+03  0.32044037595E+03  0.47000000000E+01 0.  1.
         11    1    6    6    0    0 -0.73401490189E+00  0.21212696672E+02  0.22215649674E+02  0.30725435203E+02  0.00000000000E+00 0. -1.
        -12    1    6    6    0    0  0.47020415126E+02 -0.37420471085E+02  0.20289425039E+03  0.21160644587E+03  0.00000000000E+00 0.  1.
</event>
<event>
12    1  0.2685360E-002  0.2022369E+03  0.7818608E-02  0.1147865E+00
          1   -1    0    0  502    0  0.00000000000E+00  0.00000000000E+00  0.11686970339E+04  0.11686970339E+04  0.00000000000E+00 0. -1.
         -1   -1    0    0    0  501 -0.00000000000E+00 -0.00000000000E+00 -0.10962812196E+03  0.10962812196E+03  0.00000000000E+00 0.  1.
          6    2    1    2  502    0 -0.10639413923E+03 -0.88713169382E+01  0.10558860584E+04  0.10748535617E+04  0.17034200203E+03 0.  0.
         24    2    3    3    0    0 -0.37728181819E+02  0.30645167949E+02  0.83899828455E+03  0.84390126635E+03  0.76737760216E+02 0.  0.
         -6    2    1    2    0  501  0.10639413923E+03  0.88713169382E+01  0.31828534743E+01  0.20347159410E+03  0.17318240650E+03 0.  0.
        -24    2    5    5    0    0  0.21923267781E+02 -0.54696573809E+02  0.15345832964E+02  0.96952896549E+02  0.75445508171E+02 0.  0.
          5    1    3    3  502    0 -0.68665957415E+02 -0.39516484887E+02  0.21688777389E+03  0.23095229540E+03  0.47000000000E+01 0. -1.
        -11    1    4    4    0    0  0.13072693699E+02 -0.16803225163E+02  0.20659773336E+03  0.20769175989E+03  0.00000000000E+00 0.  1.
         12    1    4    4    0    0 -0.50800875517E+02  0.47448393112E+02  0.63240055119E+03  0.63620950646E+03  0.00000000000E+00 0. -1.
         -5    1    5    5    0  501  0.84470871453E+02  0.63567890747E+02 -0.12162979490E+02  0.10651869755E+03  0.47000000000E+01 0.  1.
         11    1    6    6    0    0 -0.22190481089E+02  0.37464259755E+01  0.39442930688E+01  0.22847551430E+02  0.00000000000E+00 0. -1.
        -12    1    6    6    0    0  0.44113748870E+02 -0.58442999784E+02  0.11401539895E+02  0.74105345118E+02  0.00000000000E+00 0.  1.
</event>
<event>
12    1  0.2685360E-002  0.3259427E+03  0.7818608E-02  0.1072946E+00
          2   -1    0    0  502    0  0.00000000000E+00  0.00000000000E+00  0.22473023414E+04  0.22473023414E+04  0.00000000000E+00 0.  1.
         -2   -1    0    0    0  501 -0.00000000000E+00 -0.00000000000E+00 -0.73758658636E+02  0.73758658636E+02  0.00000000000E+00 0. -1.
          6    2    1    2  502    0 -0.76583854172E+02 -0.26582442363E+03  0.38929382803E+03  0.50711021551E+03  0.17053848603E+03 0.  0.
         24    2    3    3    0    0 -0.33450281925E+02 -0.23342024859E+03  0.37684411013E+03  0.45154384897E+03  0.79223925611E+02 0.  0.
         -6    2    1    2    0  501  0.76583854172E+02  0.26582442363E+03  0.17842498548E+04  0.18139507845E+04  0.17419010773E+03 0.  0.
        -24    2    5    5    0    0  0.55609903742E+01  0.54094920597E+02  0.37889227213E+03  0.39095195999E+03  0.79541788338E+02 0.  0.
          5    1    3    3  502    0 -0.43133572247E+02 -0.32404175045E+02  0.12449717897E+02  0.55566366543E+02  0.47000000000E+01 0. -1.
        -11    1    4    4    0    0 -0.46456223071E+02 -0.67843916961E+02  0.11229084957E+03  0.13917691126E+03  0.00000000000E+00 0.  1.
         12    1    4    4    0    0  0.13005941146E+02 -0.16557633163E+03  0.26455326056E+03  0.31236693771E+03  0.00000000000E+00 0. -1.
         -5    1    5    5    0  501  0.71022863798E+02  0.21172950303E+03  0.14053575826E+04  0.14229988246E+04  0.47000000000E+01 0.  1.
         11    1    6    6    0    0  0.32714868467E+02  0.59174293924E+02  0.24020523643E+03  0.24954040813E+03  0.00000000000E+00 0. -1.
        -12    1    6    6    0    0 -0.27153878093E+02 -0.50793733274E+01  0.13868703570E+03  0.14141155186E+03  0.00000000000E+00 0.  1.
</event>
<event>
12    1  0.2685360E-002  0.2029661E+03  0.7818608E-02  0.1147260E+00
         -2   -1    0    0    0  501 -0.00000000000E+00  0.00000000000E+00  0.12748329869E+03  0.12748329869E+03  0.00000000000E+00 0.  1.
          2   -1    0    0  502    0  0.00000000000E+00 -0.00000000000E+00 -0.34120558347E+03  0.34120558347E+03  0.00000000000E+00 0. -1.
          6    2    1    2  502    0 -0.62717853559E+02 -0.85742441636E+02 -0.16098120997E+03  0.25937474562E+03  0.17342149017E+03 0.  0.
         24    2    3    3    0    0  0.79641033716E+01  0.14617079458E+02 -0.66047909591E+02  0.10412528820E+03  0.78756989069E+02 0.  0.
         -6    2    1    2    0  501  0.62717853559E+02  0.85742441636E+02 -0.52741074808E+02  0.20931413653E+03  0.17246881262E+03 0.  0.
        -24    2    5    5    0    0  0.57207068594E+02  0.11325506548E+02 -0.83892438549E+02  0.12831570172E+03  0.77627715844E+02 0.  0.
          5    1    3    3  502    0 -0.70681956930E+02 -0.10035952109E+03 -0.94933300378E+02  0.15524945742E+03  0.47000000000E+01 0. -1.
        -11    1    4    4    0    0  0.41756584712E+02  0.19561252104E+02 -0.41832916876E+02  0.62259520437E+02  0.00000000000E+00 0.  1.
         12    1    4    4    0    0 -0.33792481340E+02 -0.49441726462E+01 -0.24214992715E+02  0.41865767764E+02  0.00000000000E+00 0. -1.
         -5    1    5    5    0  501  0.55107849647E+01  0.74416935087E+02  0.31151363741E+02  0.80998434810E+02  0.47000000000E+01 0.  1.
         11    1    6    6    0    0  0.26187876061E+02 -0.17120063169E+02 -0.80176199495E+02  0.86064652331E+02  0.00000000000E+00 0. -1.
        -12    1    6    6    0    0  0.31019192533E+02  0.28445569717E+02 -0.37162390539E+01  0.42251049391E+02  0.00000000000E+00 0.  1.
</event>
<event>
12    1  0.2685360E-002  0.2173403E+03  0.7818608E-02  0.1135882E+00
          2   -1    0    0  502    0  0.00000000000E+00  0.00000000000E+00  0.81292919433E+03  0.81292919433E+03  0.00000000000E+00 0.  1.
         -2   -1    0    0    0  501 -0.00000000000E+00 -0.00000000000E+00 -0.58488760705E+02  0.58488760705E+02  0.00000000000E+00 0. -1.
          6    2    1    2  502    0  0.74868829486E+02 -0.10752385754E+03  0.34309009659E+03  0.40646541003E+03  0.17417403254E+03 0.  0.
         24    2    3    3    0    0  0.11688956429E+03 -0.69474391124E+02  0.27728649991E+03  0.31948433518E+03  0.81808166645E+02 0.  0.
         -6    2    1    2    0  501 -0.74868829486E+02  0.10752385754E+03  0.41135033703E+03  0.46495254500E+03  0.17264138482E+03 0.  0.
        -24    2    5    5    0    0 -0.19821261302E+02  0.13194129966E+03  0.27860754008E+03  0.31911295371E+03  0.80059520867E+02 0.  0.
          5    1    3    3  502    0 -0.42020734801E+02 -0.38049466414E+02  0.65803596674E+02  0.86981074854E+02  0.47000000000E+01 0. -1.
        -13    1    4    4    0    0  0.40418283146E+02  0.16365600337E+02  0.70767010090E+02  0.83123042557E+02  0.00000000000E+00 0.  1.
         14    1    4    4    0    0  0.76471281141E+02 -0.85839991461E+02  0.20651948982E+03  0.23636129262E+03  0.00000000000E+00 0. -1.
         -5    1    5    5    0  501 -0.55047568184E+02 -0.24417442125E+02  0.13274279695E+03  0.14583959128E+03  0.47000000000E+01 0.  1.
         11    1    6    6    0    0 -0.14541969946E+02  0.74707522284E+02  0.72400154439E+02  0.10504506242E+03  0.00000000000E+00 0. -1.
        -12    1    6    6    0    0 -0.52792913564E+01  0.57233777379E+02  0.20620738564E+03  0.21406789129E+03  0.00000000000E+00 0.  1.
</event>
<event>
12    1  0.2685360E-002  0.1680319E+03  0.7818608E-02  0.1179916E+00
         -1   -1    0    0    0  501 -0.00000000000E+00  0.00000000000E+00  0.52602887581E+03  0.52602887581E+03  0.00000000000E+00 0.  1.
          1   -1    0    0  502    0  0.00000000000E+00 -0.00000000000E+00 -0.98960650827E+02  0.98960650827E+02  0.00000000000E+00 0. -1.
          6    2    1    2  502    0  0.15874194852E+00 -0.24928029192E+01  0.37892154265E+01  0.17042994294E+03  0.17036950440E+03 0.  0.
         24    2    3    3    0    0 -0.43087269723E+02  0.39026568750E+02  0.33434087348E+02  0.10338529975E+03  0.78683518771E+02 0.  0.
         -6    2    1    2    0  501 -0.15874194852E+00  0.24928029192E+01  0.42327900956E+03  0.45455958370E+03  0.16568963739E+03 0.  0.
        -24    2    5    5    0    0  0.60949073830E+02  0.13528579556E+02  0.30401748939E+03  0.32001831231E+03  0.78020986234E+02 0.  0.
          5    1    3    3  502    0  0.43246011672E+02 -0.41519371669E+02 -0.29644871921E+02  0.67044643191E+02  0.47000000000E+01 0. -1.
        -13    1    4    4    0    0 -0.13015363652E+02  0.72477097454E+00  0.50214342384E+02  0.51878754467E+02  0.00000000000E+00 0.  1.
         14    1    4    4    0    0 -0.30071906071E+02  0.38301797775E+02 -0.16780255036E+02  0.51506545280E+02  0.00000000000E+00 0. -1.
         -5    1    5    5    0  501 -0.61107815779E+02 -0.11035776637E+02  0.11926152017E+03  0.13454127139E+03  0.47000000000E+01 0.  1.
         13    1    6    6    0    0 -0.11604782858E+02  0.16804629661E+02  0.28322933394E+02  0.34917833828E+02  0.00000000000E+00 0. -1.
        -14    1    6    6    0    0  0.72553856688E+02 -0.32760501045E+01  0.27569455600E+03  0.28510047848E+03  0.00000000000E+00 0.  1.
</event>
<event>
12    1  0.2685360E-002  0.2196838E+03  0.7818608E-02  0.1134119E+00
         -2   -1    0    0    0  501 -0.00000000000E+00  0.00000000000E+00  0.95023988323E+02  0.95023988323E+02  0.00000000000E+00 0. -1.
          2   -1    0    0  502    0  0.00000000000E+00 -0.00000000000E+00 -0.66831453138E+03  0.66831453138E+03  0.00000000000E+00 0.  1.
          6    2    1    2  502    0  0.93029664734E+02 -0.98827348456E+02 -0.47351958023E+03  0.52194441821E+03  0.17257989313E+03 0.  0.
         24    2    3    3    0    0  0.85041990326E+02 -0.21092758711E+02 -0.38963342009E+03  0.40720363536E+03  0.79520777227E+02 0.  0.
         -6    2    1    2    0  501 -0.93029664734E+02  0.98827348456E+02 -0.99770962822E+02  0.24139410149E+03  0.17290316333E+03 0.  0.
        -24    2    5    5    0    0 -0.12634504564E+03  0.91427573936E+02 -0.10815780814E+03  0.20593848921E+03  0.79940465626E+02 0.  0.
          5    1    3    3  502    0  0.79876744078E+01 -0.77734589745E+02 -0.83886160142E+02  0.11474078285E+03  0.47000000000E+01 0. -1.
        -13    1    4    4    0    0  0.24764482027E+02 -0.35818891942E+02 -0.25835788381E+03  0.26200203952E+03  0.00000000000E+00 0.  1.
         14    1    4    4    0    0  0.60277508299E+02  0.14726133231E+02 -0.13127553628E+03  0.14520159583E+03  0.00000000000E+00 0. -1.
         -5    1    5    5    0  501  0.33315380906E+02  0.73997745196E+01  0.83868453152E+01  0.35455612280E+02  0.47000000000E+01 0.  1.
         13    1    6    6    0    0 -0.88545052279E+02  0.17427670912E+02 -0.41109175952E+02  0.99166094729E+02  0.00000000000E+00 0. -1.
        -14    1    6    6    0    0 -0.37799993361E+02  0.73999903025E+02 -0.67048632185E+02  0.10677239448E+03  0.00000000000E+00 0.  1.
</event>
<event>
12    1  0.2685360E-002  0.1865822E+03  0.7818608E-02  0.1161581E+00
         -2   -1    0    0    0  501 -0.00000000000E+00  0.00000000000E+00  0.29517844164E+02  0.29517844164E+02  0.00000000000E+00 0.  1.
          2   -1    0    0  502    0  0.00000000000E+00 -0.00000000000E+00 -0.11943531801E+04  0.11943531801E+04  0.00000000000E+00 0. -1.
          6    2    1    2  502    0 -0.32795942905E+02  0.64377476402E+02 -0.65067017982E+03  0.67687101012E+03  0.17193791932E+03 0.  0.
         24    2    3    3    0    0 -0.70303874836E+02  0.42493139126E+02 -0.59173858079E+03  0.60351712447E+03  0.85615827086E+02 0.  0.
         -6    2    1    2    0  501  0.32795942905E+02 -0.64377476402E+02 -0.51416515616E+03  0.54700001419E+03  0.17211384131E+03 0.  0.
        -24    2    5    5    0    0 -0.46438449730E+02 -0.15636602588E+02 -0.26364721134E+03  0.27972657287E+03  0.79599438235E+02 0.  0.
          5    1    3    3  502    0  0.37507931931E+02  0.21884337277E+02 -0.58931599033E+02  0.73353885652E+02  0.47000000000E+01 0. -1.
        -11    1    4    4    0    0 -0.53222042240E+02 -0.70608241168E+01 -0.16365307562E+03  0.17223463698E+03  0.00000000000E+00 0.  1.
         12    1    4    4    0    0 -0.17081832596E+02  0.49553963242E+02 -0.42808550517E+03  0.43128248749E+03  0.00000000000E+00 0. -1.
         -5    1    5    5    0  501  0.79234392635E+02 -0.48740873815E+02 -0.25051794482E+03  0.26727344132E+03  0.47000000000E+01 0.  1.
         13    1    6    6    0    0 -0.17089024804E+02  0.21188444108E+02 -0.26644093111E+02  0.38090584535E+02  0.00000000000E+00 0. -1.
        -14    1    6    6    0    0 -0.29349424927E+02 -0.36825046696E+02 -0.23700311823E+03  0.24163598834E+03  0.00000000000E+00 0.  1.
</event>
<event>
12    1  0.2685360E-002  0.2015514E+03  0.7818608E-02  0.1148437E+00
          3   -1    0    0  502    0  0.00000000000E+00  0.00000000000E+00  0.94650857423E+02  0.94650857423E+02  0.00000000000E+00 0. -1.
         -3   -1    0    0    0  501 -0.00000000000E+00 -0.00000000000E+00 -0.42928266020E+03  0.42928266020E+03  0.00000000000E+00 0.  1.
          6    2    1    2  502    0  0.99509673295E+02  0.32836525771E+02 -0.16348284651E+03  0.25958122584E+03  0.17226537435E+03 0.  0.
         24    2    3    3    0    0  0.84047546040E+02 -0.42755592897E+02 -0.10763171779E+03  0.16421517127E+03  0.80560567786E+02 0.  0.
         -6    2    1    2    0  501 -0.99509673295E+02 -0.32836525771E+02 -0.17114895627E+03  0.26435229179E+03  0.17207485708E+03 0.  0.
        -24    2    5    5    0    0 -0.13418582881E+03 -0.66198707827E+01 -0.14741005167E+03  0.21459915770E+03  0.79204897648E+02 0.  0.
          5    1    3    3  502    0  0.15462127255E+02  0.75592118668E+02 -0.55851128724E+02  0.95366054567E+02  0.47000000000E+01 0. -1.
        -11    1    4    4    0    0 -0.97496292160E+01  0.19851134587E+01  0.48556557276E+01  0.11071284381E+02  0.00000000000E+00 0.  1.
         12    1    4    4    0    0  0.93797175256E+02 -0.44740706356E+02 -0.11248737351E+03  0.15314388689E+03  0.00000000000E+00 0. -1.
         -5    1    5    5    0  501  0.34676155513E+02 -0.26216654988E+02 -0.23738904602E+02  0.49753134089E+02  0.47000000000E+01 0.  1.
         11    1    6    6    0    0 -0.11211534454E+03 -0.18514243965E+02 -0.15130770946E+03  0.18922645337E+03  0.00000000000E+00 0. -1.
        -12    1    6    6    0    0 -0.22070484265E+02  0.11894373182E+02  0.38976577907E+01  0.25372704336E+02  0.00000000000E+00 0.  1.
</event>
<event>
12    1  0.2685360E-002  0.1912164E+03  0.7818608E-02  0.1157369E+00
          2   -1    0    0  502    0  0.00000000000E+00  0.00000000000E+00  0.32259794393E+03  0.32259794393E+03  0.00000000000E+00 0. -1.
         -2   -1    0    0    0  501 -0.00000000000E+00 -0.00000000000E+00 -0.11994247793E+03  0.11994247793E+03  0.00000000000E+00 0.  1.
          6    2    1    2  502    0 -0.79198566705E+02  0.25048779835E+02  0.15297507000E+03  0.24447602033E+03  0.17166041516E+03 0.  0.
         24    2    3    3    0    0 -0.37122386915E+02 -0.46649376223E+02  0.48905212095E+02  0.11119565488E+03  0.80115653794E+02 0.  0.
         -6    2    1    2    0  501  0.79198566705E+02 -0.25048779835E+02  0.49680396008E+02  0.19806440153E+03  0.17280483520E+03 0.  0.
        -24    2    5    5    0    0 -0.19476918769E+02 -0.29753764108E+02  0.47848910396E+02  0.99148110407E+02  0.79222425662E+02 0.  0.
          5    1    3    3  502    0 -0.42076179790E+02  0.71698156058E+02  0.10406985790E+03  0.13328036544E+03  0.47000000000E+01 0. -1.
        -11    1    4    4    0    0 -0.38821548055E+02  0.80753059595E+00 -0.52339615649E+01  0.39181105813E+02  0.00000000000E+00 0.  1.
         12    1    4    4    0    0  0.16991611404E+01 -0.47456906819E+02  0.54139173660E+02  0.72014549072E+02  0.00000000000E+00 0. -1.
         -5    1    5    5    0  501  0.98675485474E+02  0.47049842732E+01  0.18314856113E+01  0.98916291126E+02  0.47000000000E+01 0.  1.
         13    1    6    6    0    0 -0.83564417555E+01 -0.16381526904E+02 -0.21129190969E+02  0.28011198716E+02  0.00000000000E+00 0. -1.
        -14    1    6    6    0    0 -0.11120477014E+02 -0.13372237204E+02  0.68978101365E+02  0.71136911690E+02  0.00000000000E+00 0.  1.
</event>
<event>
12    1  0.2685360E-002  0.2075701E+03  0.7818608E-02  0.1143505E+00
          2   -1    0    0  502    0  0.00000000000E+00  0.00000000000E+00  0.55301290458E+03  0.55301290458E+03  0.00000000000E+00 0. -1.
         -2   -1    0    0    0  501 -0.00000000000E+00 -0.00000000000E+00 -0.78661703680E+02  0.78661703680E+02  0.00000000000E+00 0.  1.
          6    2    1    2  502    0 -0.20032233636E+02 -0.11333713840E+03  0.20659743882E+03  0.29304367615E+03  0.17304767285E+03 0.  0.
         24    2    3    3    0    0 -0.95349088105E+01 -0.32969329629E+02  0.18690451829E+02  0.88348038006E+02  0.79234788116E+02 0.  0.
         -6    2    1    2    0  501  0.20032233636E+02  0.11333713840E+03  0.26775376208E+03  0.33863093211E+03  0.17243037362E+03 0.  0.
        -24    2    5    5    0    0  0.62314171488E+02  0.31493033325E+02  0.18232872869E+03  0.21291002639E+03  0.84923771215E+02 0.  0.
          5    1    3    3  502    0 -0.10497324826E+02 -0.80367808772E+02  0.18790698699E+03  0.20469563814E+03  0.47000000000E+01 0. -1.
        -13    1    4    4    0    0 -0.21752377900E+02 -0.44012979899E+02 -0.14588861239E+02  0.51216630269E+02  0.00000000000E+00 0.  1.
         14    1    4    4    0    0  0.12217469090E+02  0.11043650269E+02  0.33279313068E+02  0.37131407737E+02  0.00000000000E+00 0. -1.
         -5    1    5    5    0  501 -0.42281937852E+02  0.81844105077E+02  0.85425033399E+02  0.12572090572E+03  0.47000000000E+01 0.  1.
         13    1    6    6    0    0 -0.18006705779E+02  0.22896240765E+02  0.46072598055E+02  0.54508380876E+02  0.00000000000E+00 0. -1.
        -14    1    6    6    0    0  0.80320877267E+02  0.85967925595E+01  0.13625613063E+03  0.15840164552E+03  0.00000000000E+00 0.  1.
</event>
<event>
12    1  0.2685360E-002  0.1917927E+03  0.7818608E-02  0.1156854E+00
         -1   -1    0    0    0  501 -0.00000000000E+00  0.00000000000E+00  0.20903303277E+03  0.20903303277E+03  0.00000000000E+00 0.  1.
          1   -1    0    0  502    0  0.00000000000E+00 -0.00000000000E+00 -0.26628802391E+03  0.26628802391E+03  0.00000000000E+00 0. -1.
          6    2    1    2  502    0 -0.83751472221E+01 -0.81045238887E+02 -0.16681224814E+03  0.25265469382E+03  0.17137559437E+03 0.  0.
         24    2    3    3    0    0  0.15911050417E+02  0.21547232737E+02 -0.84465375037E+02  0.11879606639E+03  0.79124339144E+02 0.  0.
         -6    2    1    2    0  501  0.83751472221E+01  0.81045238887E+02  0.10955725699E+03  0.22266636285E+03  0.17589497648E+03 0.  0.
        -24    2    5    5    0    0  0.66477424024E+02  0.28660522236E+02  0.30645696007E+02  0.11144964844E+03  0.79001215267E+02 0.  0.
          5    1    3    3  502    0 -0.24286197639E+02 -0.10259247162E+03 -0.82346873100E+02  0.13385862744E+03  0.47000000000E+01 0. -1.
        -11    1    4    4    0    0 -0.26358425357E+02  0.20288517308E+02 -0.12912113749E+02  0.35680711923E+02  0.00000000000E+00 0.  1.
         12    1    4    4    0    0  0.42269475773E+02  0.12587154286E+01 -0.71553261289E+02  0.83115354464E+02  0.00000000000E+00 0. -1.
         -5    1    5    5    0  501 -0.58102276802E+02  0.52384716651E+02  0.78911560984E+02  0.11121671441E+03  0.47000000000E+01 0.  1.
         13    1    6    6    0    0  0.33598482969E+02  0.43978272710E+02  0.46093914751E+02  0.72024964460E+02  0.00000000000E+00 0. -1.
        -14    1    6    6    0    0  0.32878941055E+02 -0.15317750474E+02 -0.15448218744E+02  0.39424683979E+02  0.00000000000E+00 0.  1.
</event>
<event>
12    1  0.2685360E-002  0.4262074E+03  0.7818608E-02  0.1035065E+00
          2   -1    0    0  502    0  0.00000000000E+00  0.00000000000E+00  0.10192943445E+04  0.10192943445E+04  0.00000000000E+00 0. -1.
         -2   -1    0    0    0  501 -0.00000000000E+00 -0.00000000000E+00 -0.19213519126E+03  0.19213519126E+03  0.00000000000E+00 0.  1.
          6    2    1    2  502    0  0.26546356464E+03 -0.28590119393E+03  0.25034783621E+03  0.49411207042E+03  0.17106227579E+03 0.  0.
         24    2    3    3    0    0  0.65055849970E+02 -0.11998466046E+03  0.52218714679E+02  0.16705123973E+03  0.80936642933E+02 0.  0.
         -6    2    1    2    0  501 -0.26546356464E+03  0.28590119393E+03  0.57681131702E+03  0.71731746533E+03  0.17211232897E+03 0.  0.
        -24    2    5    5    0    0 -0.18347531516E+03  0.24637912215E+03  0.52095599060E+03  0.61042511434E+03  0.82811913204E+02 0.  0.
          5    1    3    3  502    0  0.20040771467E+03 -0.16591653346E+03  0.19812912153E+03  0.32706083069E+03  0.47000000000E+01 0. -1.
        -13    1    4    4    0    0 -0.15887108103E+02 -0.45499061271E+02  0.99450498557E+01  0.49208422014E+02  0.00000000000E+00 0.  1.
         14    1    4    4    0    0  0.80942958073E+02 -0.74485599193E+02  0.42273664824E+02  0.11784281771E+03  0.00000000000E+00 0. -1.
         -5    1    5    5    0  501 -0.81988249483E+02  0.39522071779E+02  0.55855326417E+02  0.10689235099E+03  0.47000000000E+01 0.  1.
         11    1    6    6    0    0 -0.78811203108E+02  0.13852489871E+03  0.33773374194E+03  0.37344937240E+03  0.00000000000E+00 0. -1.
        -12    1    6    6    0    0 -0.10466411205E+03  0.10785422343E+03  0.18322224866E+03  0.23697574194E+03  0.00000000000E+00 0.  1.
</event>
<event>
12    1  0.2685360E-002  0.1903608E+03  0.7818608E-02  0.1158136E+00
          1   -1    0    0  502    0  0.00000000000E+00  0.00000000000E+00  0.14957469638E+04  0.14957469638E+04  0.00000000000E+00 0.  1.
         -1   -1    0    0    0  501 -0.00000000000E+00 -0.00000000000E+00 -0.28605016466E+02  0.28605016466E+02  0.00000000000E+00 0. -1.
          6    2    1    2  502    0  0.72038222455E+02  0.26946968614E+02  0.44036289541E+03  0.48034826246E+03  0.17578204967E+03 0.  0.
         24    2    3    3    0    0 -0.40911003092E+01 -0.27351836075E+02  0.30390840533E+03  0.31486124836E+03  0.77539840383E+02 0.  0.
         -6    2    1    2    0  501 -0.72038222455E+02 -0.26946968614E+02  0.10267790520E+04  0.10440037178E+04  0.17249028003E+03 0.  0.
        -24    2    5    5    0    0 -0.52908608767E+02  0.41752486840E+02  0.76132554298E+03  0.76909789264E+03  0.85746107948E+02 0.  0.
          5    1    3    3  502    0  0.76129322764E+02  0.54298804689E+02  0.13645449007E+03  0.16548701410E+03  0.47000000000E+01 0. -1.
        -11    1    4    4    0    0 -0.41494596823E+01 -0.78124124705E+01  0.29167279504E+03  0.29180690734E+03  0.00000000000E+00 0.  1.
         12    1    4    4    0    0  0.58359373077E-01 -0.19539423604E+02  0.12235610296E+02  0.23054341021E+02  0.00000000000E+00 0. -1.
         -5    1    5    5    0  501 -0.19129613689E+02 -0.68699455455E+02  0.26545350899E+03  0.27490582521E+03  0.47000000000E+01 0.  1.
         13    1    6    6    0    0 -0.58396953257E+02  0.60259316770E+02  0.49399345641E+03  0.50106977996E+03  0.00000000000E+00 0. -1.
        -14    1    6    6    0    0  0.54883444903E+01 -0.18506829930E+02  0.26733208657E+03  0.26802811268E+03  0.00000000000E+00 0.  1.
</event>
<event>
12    1  0.2685360E-002  0.2060215E+03  0.7818608E-02  0.1144756E+00
         -2   -1    0    0    0  501 -0.00000000000E+00  0.00000000000E+00  0.39794963592E+02  0.39794963592E+02  0.00000000000E+00 0. -1.
          2   -1    0    0  502    0  0.00000000000E+00 -0.00000000000E+00 -0.12146620457E+04  0.12146620457E+04  0.00000000000E+00 0.  1.
          6    2    1    2  502    0  0.78887781370E+01  0.11577409218E+03 -0.80495579050E+03  0.83075743195E+03  0.16952348756E+03 0.  0.
         24    2    3    3    0    0  0.11301040134E+02  0.21453231689E+02 -0.59155497909E+03  0.59736920481E+03  0.79528101400E+02 0.  0.
         -6    2    1    2    0  501 -0.78887781370E+01 -0.11577409218E+03 -0.36991129157E+03  0.42369957731E+03  0.17094178817E+03 0.  0.
        -24    2    5    5    0    0  0.34180606090E+02 -0.10924891263E+03 -0.17179943505E+03  0.22101063150E+03  0.78911435240E+02 0.  0.
          5    1    3    3  502    0 -0.34122619972E+01  0.94320860486E+02 -0.21340081141E+03  0.23338822714E+03  0.47000000000E+01 0. -1.
        -13    1    4    4    0    0  0.23316055921E+02  0.41999046021E+02 -0.22643737378E+03  0.23147665665E+03  0.00000000000E+00 0.  1.
         14    1    4    4    0    0 -0.12015015787E+02 -0.20545814332E+02 -0.36511760531E+03  0.36589254816E+03  0.00000000000E+00 0. -1.
         -5    1    5    5    0  501 -0.42069384227E+02 -0.65251795491E+01 -0.19811185652E+03  0.20268894581E+03  0.47000000000E+01 0.  1.
         13    1    6    6    0    0 -0.20671624673E+02 -0.33157607753E+02 -0.23683049406E+02  0.45690588174E+02  0.00000000000E+00 0. -1.
        -14    1    6    6    0    0  0.54852230763E+02 -0.76091304873E+02 -0.14811638564E+03  0.17532004333E+03  0.00000000000E+00 0.  1.
</event>
<event>
12    1  0.2685360E-002  0.3024895E+03  0.7818608E-02  0.1084003E+00
          2   -1    0    0  502    0  0.00000000000E+00  0.00000000000E+00  0.39208793115E+03  0.39208793115E+03  0.00000000000E+00 0.  1.
         -2   -1    0    0    0  501 -0.00000000000E+00 -0.00000000000E+00 -0.47233948170E+03  0.47233948170E+03  0.00000000000E+00 0. -1.
          6    2    1    2  502    0 -0.37558205779E+02 -0.24760392105E+03  0.26724023761E+03  0.40433996358E+03  0.17133342058E+03 0.  0.
         24    2    3    3    0    0  0.20240968163E+02 -0.21681133741E+03  0.23727600090E+03  0.33216743974E+03  0.81353884955E+02 0.  0.
         -6    2    1    2    0  501  0.37558205779E+02  0.24760392105E+03 -0.34749178816E+03  0.46008744927E+03  0.16796308405E+03 0.  0.
        -24    2    5    5    0    0  0.60748783693E+02  0.16286254095E+03 -0.31024266190E+03  0.36454430817E+03  0.80171200521E+02 0.  0.
          5    1    3    3  502    0 -0.57799173942E+02 -0.30792583638E+02  0.29964236713E+02  0.72172523839E+02  0.47000000000E+01 0. -1.
        -13    1    4    4    0    0  0.41409120906E+01 -0.76379377337E+02  0.31963273242E+02  0.82901189809E+02  0.00000000000E+00 0.  1.
         14    1    4    4    0    0  0.16100056072E+02 -0.14043196007E+03  0.20531272766E+03  0.24926624993E+03  0.00000000000E+00 0. -1.
         -5    1    5    5    0  501 -0.23190577914E+02  0.84741380101E+02 -0.37249126258E+02  0.95543141106E+02  0.47000000000E+01 0.  1.
         13    1    6    6    0    0  0.64131216520E+02  0.12938007284E+03 -0.18402395887E+03  0.23391629618E+03  0.00000000000E+00 0. -1.
        -14    1    6    6    0    0 -0.33824328273E+01  0.33482468111E+02 -0.12621870303E+03  0.13062801199E+03  0.00000000000E+00 0.  1.
</event>
<event>
12    1  0.2685360E-002  0.2189333E+03  0.7818608E-02  0.1134681E+00
          1   -1    0    0  502    0  0.00000000000E+00  0.00000000000E+00  0.20369490058E+04  0.20369490058E+04  0.00000000000E+00 0. -1.
         -1   -1    0    0    0  501 -0.00000000000E+00 -0.00000000000E+00 -0.35358592895E+02  0.35358592895E+02  0.00000000000E+00 0.  1.
          6    2    1    2  502    0 -0.49661545085E+01  0.11981182246E+03  0.16245078730E+04  0.16403617803E+04  0.19334271450E+03 0.  0.
         24    2    3    3    0    0  0.40464470652E+02  0.86257732781E+02  0.52498292632E+03  0.53937721316E+03  0.79012247813E+02 0.  0.
         -6    2    1    2    0  501  0.49661545085E+01 -0.11981182246E+03  0.37708253991E+03  0.43194581842E+03  0.17322359152E+03 0.  0.
        -24    2    5    5    0    0  0.27502433821E+02 -0.13790036848E+02  0.86497509705E+02  0.12176804249E+03  0.79994299818E+02 0.  0.
          5    1    3    3  502    0 -0.45430625160E+02  0.33554089676E+02  0.10995249467E+04  0.11009845671E+04  0.47000000000E+01 0. -1.
        -13    1    4    4    0    0  0.13084811634E+02 -0.14322685905E+02  0.73545966665E+02  0.76061559541E+02  0.00000000000E+00 0.  1.
         14    1    4    4    0    0  0.27379659017E+02  0.10058041869E+03  0.45143695965E+03  0.46331565362E+03  0.00000000000E+00 0. -1.
         -5    1    5    5    0  501 -0.22536279313E+02 -0.10602178561E+03  0.29058503020E+03  0.31017777594E+03  0.47000000000E+01 0.  1.
         11    1    6    6    0    0  0.81744844703E+01 -0.45266532224E+02  0.62943996407E+02  0.77960424702E+02  0.00000000000E+00 0. -1.
        -12    1    6    6    0    0  0.19327949351E+02  0.31476495376E+02  0.23553513298E+02  0.43807617784E+02  0.00000000000E+00 0.  1.
</event>
<event>
12    1  0.2685360E-002  0.1803565E+03  0.7818608E-02  0.1167458E+00
          2   -1    0    0  502    0  0.00000000000E+00  0.00000000000E+00  0.23502400138E+03  0.23502400138E+03  0.00000000000E+00 0. -1.
         -2   -1    0    0    0  501 -0.00000000000E+00 -0.00000000000E+00 -0.14340387176E+03  0.14340387176E+03  0.00000000000E+00 0.  1.
          6    2    1    2  502    0  0.32660608751E+02 -0.44085420076E+02  0.10501719963E+02  0.18074068513E+03  0.17189144689E+03 0.  0.
         24    2    3    3    0    0  0.39628626263E+02 -0.67837249894E+02  0.58424255777E+02  0.12659863007E+03  0.80258949525E+02 0.  0.
         -6    2    1    2    0  501 -0.32660608751E+02  0.44085420076E+02  0.81118409661E+02  0.19768718800E+03  0.17172591036E+03 0.  0.
        -24    2    5    5    0    0 -0.12555212850E+02  0.29683304870E+02  0.12272690039E+03  0.14905587744E+03  0.78211447758E+02 0.  0.
          5    1    3    3  502    0 -0.69680175116E+01  0.23751829818E+02 -0.47922535815E+02  0.54142055065E+02  0.47000000000E+01 0. -1.
        -11    1    4    4    0    0  0.45140679851E+02 -0.10839589450E+02  0.23978959921E+01  0.46485778278E+02  0.00000000000E+00 0.  1.
         12    1    4    4    0    0 -0.55120535888E+01 -0.56997660444E+02  0.56026359785E+02  0.80112851788E+02  0.00000000000E+00 0. -1.
         -5    1    5    5    0  501 -0.20105395901E+02  0.14402115205E+02 -0.41608490731E+02  0.48631310569E+02  0.47000000000E+01 0.  1.
         13    1    6    6    0    0 -0.45340924604E+02  0.24008919631E+02  0.75736296106E+02  0.91477943865E+02  0.00000000000E+00 0. -1.
        -14    1    6    6    0    0  0.32785711754E+02  0.56743852387E+01  0.46990604286E+02  0.57577933571E+02  0.00000000000E+00 0.  1.
</event>
<event>
12    1  0.2685360E-002  0.1874838E+03  0.7818608E-02  0.1160751E+00
         -1   -1    0    0    0  501 -0.00000000000E+00  0.00000000000E+00  0.27795786778E+03  0.27795786778E+03  0.00000000000E+00 0. -1.
          1   -1    0    0  502    0  0.00000000000E+00 -0.00000000000E+00 -0.12688370331E+03  0.12688370331E+03  0.00000000000E+00 0.  1.
          6    2    1    2  502    0  0.35158572951E+02 -0.27150549145E+02  0.68307724221E+02  0.18997811454E+03  0.17161719391E+03 0.  0.
         24    2    3    3    0    0  0.18632450596E+02 -0.21578386145E+02 -0.29947268868E+02  0.90076686185E+02  0.80026092730E+02 0.  0.
         -6    2    1    2    0  501 -0.35158572951E+02  0.27150549145E+02  0.82766440245E+02  0.21486345655E+03  0.19324270687E+03 0.  0.
        -24    2    5    5    0    0 -0.53281257730E+02  0.72304409140E+02 -0.13282822825E+00  0.11862582623E+03  0.77493541665E+02 0.  0.
          5    1    3    3  502    0  0.16526122355E+02 -0.55721630006E+01  0.98254993089E+02  0.99901428356E+02  0.47000000000E+01 0. -1.
        -13    1    4    4    0    0  0.49735411905E+02 -0.14183762254E+02 -0.10872943299E+02  0.52848947057E+02  0.00000000000E+00 0.  1.
         14    1    4    4    0    0 -0.31102961309E+02 -0.73946238908E+01 -0.19074325569E+02  0.37227739128E+02  0.00000000000E+00 0. -1.
         -5    1    5    5    0  501  0.18122684779E+02 -0.45153859995E+02  0.82899268473E+02  0.96237630319E+02  0.47000000000E+01 0.  1.
         11    1    6    6    0    0 -0.43880565005E+02  0.75623537131E+02  0.25539123916E+02  0.91086059327E+02  0.00000000000E+00 0. -1.
        -12    1    6    6    0    0 -0.94006927246E+01 -0.33191279906E+01 -0.25671952144E+02  0.27539766906E+02  0.00000000000E+00 0.  1.
</event>
<event>
12    1  0.2685360E-002  0.1912179E+03  0.7818608E-02  0.1157367E+00
         -1   -1    0    0    0  501 -0.00000000000E+00  0.00000000000E+00  0.52359718104E+02  0.52359718104E+02  0.00000000000E+00 0.  1.
          1   -1    0    0  502    0  0.00000000000E+00 -0.00000000000E+00 -0.81561427585E+03  0.81561427585E+03  0.00000000000E+00 0. -1.
          6    2    1    2  502    0  0.54169614863E+02 -0.73981180793E+02 -0.21176480883E+03  0.28321393928E+03  0.16418964296E+03 0.  0.
         24    2    3    3    0    0  0.36001528110E+02  0.11446242131E+02 -0.15072789443E+03  0.17655786170E+03  0.83825138748E+02 0.  0.
         -6    2    1    2    0  501 -0.54169614863E+02  0.73981180793E+02 -0.55148974891E+03  0.58476005467E+03  0.17145208106E+03 0.  0.
        -24    2    5    5    0    0  0.90728138488E+01  0.86744382982E+02 -0.24449727216E+03  0.27102613093E+03  0.77905992245E+02 0.  0.
          5    1    3    3  502    0  0.18168086753E+02 -0.85427422924E+02 -0.61036914407E+02  0.10665607758E+03  0.47000000000E+01 0. -1.
        -13    1    4    4    0    0 -0.24669141458E+01  0.34264867831E+01  0.10127439731E+02  0.10972306621E+02  0.00000000000E+00 0.  1.
         14    1    4    4    0    0  0.38468442255E+02  0.80197553481E+01 -0.16085533416E+03  0.16558555508E+03  0.00000000000E+00 0. -1.
         -5    1    5    5    0  501 -0.63242428712E+02 -0.12763202188E+02 -0.30699247676E+03  0.31373392374E+03  0.47000000000E+01 0.  1.
         11    1    6    6    0    0 -0.20807509543E+02  0.74648106434E+02 -0.20985222622E+03  0.22370348477E+03  0.00000000000E+00 0. -1.
        -12    1    6    6    0    0  0.29880323392E+02  0.12096276547E+02 -0.34645045935E+02  0.47322646166E+02  0.00000000000E+00 0.  1.
</event>
<event>
12    1  0.2685360E-002  0.2176333E+03  0.7818608E-02  0.1135660E+00
          2   -1    0    0  502    0  0.00000000000E+00  0.00000000000E+00  0.63453617849E+03  0.63453617849E+03  0.00000000000E+00 0. -1.
         -2   -1    0    0    0  501 -0.00000000000E+00 -0.00000000000E+00 -0.10777741650E+03  0.10777741650E+03  0.00000000000E+00 0.  1.
          6    2    1    2  502    0  0.12163691147E+03 -0.45313484334E+02  0.56856375827E+02  0.22408920511E+03  0.17359284053E+03 0.  0.
         24    2    3    3    0    0  0.12594833021E+03 -0.70848618808E+01 -0.67798717589E+01  0.14957962242E+03  0.80093193411E+02 0.  0.
         -6    2    1    2    0  501 -0.12163691147E+03  0.45313484334E+02  0.46990238616E+03  0.51822438988E+03  0.17578229618E+03 0.  0.
        -24    2    5    5    0    0 -0.71774214383E+02 -0.14170453532E+02  0.39883694370E+03  0.41288202168E+03  0.77770923646E+02 0.  0.
          5    1    3    3  502    0 -0.43114187452E+01 -0.38228622453E+02  0.63636247586E+02  0.74509582693E+02  0.47000000000E+01 0. -1.
        -11    1    4    4    0    0  0.61874014795E+02 -0.40233136243E+02  0.12620032612E+02  0.74875658140E+02  0.00000000000E+00 0.  1.
         12    1    4    4    0    0  0.64074315419E+02  0.33148274362E+02 -0.19399904371E+02  0.74703964280E+02  0.00000000000E+00 0. -1.
         -5    1    5    5    0  501 -0.49862697086E+02  0.59483937866E+02  0.71065442461E+02  0.10534236819E+03  0.47000000000E+01 0.  1.
         13    1    6    6    0    0 -0.73264698623E+02  0.12561321752E+02  0.22411790678E+03  0.23612356724E+03  0.00000000000E+00 0. -1.
        -14    1    6    6    0    0  0.14904842404E+01 -0.26731775284E+02  0.17471903692E+03  0.17675845444E+03  0.00000000000E+00 0.  1.
</event>
<event>
12    1  0.2685360E-002  0.1892667E+03  0.7818608E-02  0.1159124E+00
         -1   -1    0    0    0  501 -0.00000000000E+00  0.00000000000E+00  0.42458315262E+02  0.42458315262E+02  0.00000000000E+00 0. -1.
          1   -1    0    0  502    0  0.00000000000E+00 -0.00000000000E+00 -0.11360407869E+04  0.11360407869E+04  0.00000000000E+00 0.  1.
          6    2    1    2  502    0  0.65522180910E+02 -0.37215019822E+02 -0.84362292120E+03  0.86438302982E+03  0.17256962414E+03 0.  0.
         24    2    3    3    0    0  0.13592733208E+01  0.21999249858E+02 -0.22896673254E+03  0.24353882336E+03  0.79997370284E+02 0.  0.
         -6    2    1    2    0  501 -0.65522180910E+02  0.37215019822E+02 -0.24995955041E+03  0.31411607231E+03  0.17467402827E+03 0.  0.
        -24    2    5    5    0    0 -0.21530620564E+02  0.76495858329E+02 -0.89328363549E+02  0.14293572926E+03  0.78331872196E+02 0.  0.
          5    1    3    3  502    0  0.64162907590E+02 -0.59214269680E+02 -0.61465618866E+03  0.62084420646E+03  0.47000000000E+01 0. -1.
        -13    1    4    4    0    0 -0.16432124921E+02  0.19193181063E+02 -0.22320188976E+03  0.22462741712E+03  0.00000000000E+00 0.  1.
         14    1    4    4    0    0  0.17791398242E+02  0.28060687957E+01 -0.57648427781E+01  0.18911406234E+02  0.00000000000E+00 0. -1.
         -5    1    5    5    0  501 -0.43991560346E+02 -0.39280838507E+02 -0.16063118686E+03  0.17118034305E+03  0.47000000000E+01 0.  1.
         11    1    6    6    0    0  0.16346210667E+01  0.57624387620E+02 -0.96316590959E+02  0.11225029055E+03  0.00000000000E+00 0. -1.
        -12    1    6    6    0    0 -0.23165241631E+02  0.18871470709E+02  0.69882274106E+01  0.30685438711E+02  0.00000000000E+00 0.  1.
</event>
<event>
12    1  0.2685360E-002  0.1924876E+03  0.7818608E-02  0.1156237E+00
          2   -1    0    0  502    0  0.00000000000E+00  0.00000000000E+00  0.35646960656E+03  0.35646960656E+03  0.00000000000E+00 0. -1.
         -2   -1    0    0    0  501 -0.00000000000E+00 -0.00000000000E+00 -0.12086779169E+03  0.12086779169E+03  0.00000000000E+00 0.  1.
          6    2    1    2  502    0  0.52680444727E+02 -0.73132880573E+02  0.27689920353E+02  0.19294626030E+03  0.16833858796E+03 0.  0.
         24    2    3    3    0    0  0.90057741040E+02 -0.25308302723E+02 -0.59663569381E+01  0.12338271002E+03  0.80229600579E+02 0.  0.
         -6    2    1    2    0  501 -0.52680444727E+02  0.73132880573E+02  0.20791189451E+03  0.28439113795E+03  0.17183514189E+03 0.  0.
        -24    2    5    5    0    0 -0.88891098015E+01  0.97568481984E+02  0.86684947226E+02  0.15311721678E+03  0.79573720848E+02 0.  0.
          5    1    3    3  502    0 -0.37377296313E+02 -0.47824577851E+02  0.33656277291E+02  0.69563550279E+02  0.47000000000E+01 0. -1.
        -13    1    4    4    0    0  0.61601766456E+02 -0.52751040191E+02 -0.15843768189E+02  0.82634586355E+02  0.00000000000E+00 0.  1.
         14    1    4    4    0    0  0.28455974584E+02  0.27442737468E+02  0.98774112507E+01  0.40748123666E+02  0.00000000000E+00 0. -1.
         -5    1    5    5    0  501 -0.43791334925E+02 -0.24435601411E+02  0.12122694729E+03  0.13127392117E+03  0.47000000000E+01 0.  1.
         13    1    6    6    0    0  0.17263506546E+02  0.67445721108E+02  0.89192293670E+02  0.11314689215E+03  0.00000000000E+00 0. -1.
        -14    1    6    6    0    0 -0.26152616348E+02  0.30122760876E+02 -0.25073464438E+01  0.39970324627E+02  0.00000000000E+00 0.  1.
</event>
<event>
12    1  0.2685360E-002  0.1852417E+03  0.7818608E-02  0.1162824E+00
         -2   -1    0    0    0  501 -0.00000000000E+00  0.00000000000E+00  0.96844909114E+02  0.96844909114E+02  0.00000000000E+00 0.  1.
          2   -1    0    0  502    0  0.00000000000E+00 -0.00000000000E+00 -0.75346922724E+03  0.75346922724E+03  0.00000000000E+00 0. -1.
          6    2    1    2  502    0 -0.34334676129E+02  0.58850953205E+02 -0.63611321691E+03  0.66199848905E+03  0.17017540981E+03 0.  0.
         24    2    3    3    0    0 -0.78304765520E+01 -0.18858328727E+02 -0.17399841651E+03  0.19262296366E+03  0.80069995972E+02 0.  0.
         -6    2    1    2    0  501  0.34334676129E+02 -0.58850953205E+02 -0.20511101219E+02  0.18831564730E+03  0.17435530697E+03 0.  0.
        -24    2    5    5    0    0  0.38340685402E+02  0.64650807655E+01 -0.63782305026E+02  0.10972353903E+03  0.80369566106E+02 0.  0.
          5    1    3    3  502    0 -0.26504199577E+02  0.77709281932E+02 -0.46211480039E+03  0.46937552539E+03  0.47000000000E+01 0. -1.
        -13    1    4    4    0    0  0.31352043133E+02  0.25714551231E+01 -0.37191715629E+02  0.48711258467E+02  0.00000000000E+00 0.  1.
         14    1    4    4    0    0 -0.39182519685E+02 -0.21429783850E+02 -0.13680670088E+03  0.14391170519E+03  0.00000000000E+00 0. -1.
         -5    1    5    5    0  501 -0.40060092734E+01 -0.65316033970E+02  0.43271203807E+02  0.78592108273E+02  0.47000000000E+01 0.  1.
         11    1    6    6    0    0  0.35201580824E+02  0.36727467791E+02 -0.16469203834E+02  0.53472356015E+02  0.00000000000E+00 0. -1.
        -12    1    6    6    0    0  0.31391045787E+01 -0.30262387026E+02 -0.47313101192E+02  0.56251183014E+02  0.00000000000E+00 0.  1.
</event>
<event>
12    1  0.2685360E-002  0.1873519E+03  0.7818608E-02  0.1160872E+00
         -2   -1    0    0    0  501 -0.00000000000E+00  0.00000000000E+00  0.48767168168E+03  0.48767168168E+03  0.00000000000E+00 0. -1.
          2   -1    0    0  502    0  0.00000000000E+00 -0.00000000000E+00 -0.77753931965E+02  0.77753931965E+02  0.00000000000E+00 0.  1.
          6    2    1    2  502    0  0.34326896976E+02  0.66252593244E+02  0.28305701846E+03  0.34001738143E+03  0.17298208580E+03 0.  0.
         24    2    3    3    0    0  0.52982118883E+01  0.94127981263E+02  0.12141684588E+03  0.17337603840E+03  0.80181371417E+02 0.  0.
         -6    2    1    2    0  501 -0.34326896976E+02 -0.66252593244E+02  0.12686073126E+03  0.22540823222E+03  0.17072634257E+03 0.  0.
        -24    2    5    5    0    0  0.25409719437E+02  0.15270314628E+02  0.43073039977E+02  0.94042654311E+02  0.78165834648E+02 0.  0.
          5    1    3    3  502    0  0.29028685088E+02 -0.27875388019E+02  0.16164017258E+03  0.16664134303E+03  0.47000000000E+01 0. -1.
        -13    1    4    4    0    0 -0.29645592644E+02  0.25737946398E+02  0.72127100787E+02  0.82119557451E+02  0.00000000000E+00 0.  1.
         14    1    4    4    0    0  0.34943804532E+02  0.68390034865E+02  0.49289745091E+02  0.91256480949E+02  0.00000000000E+00 0. -1.
         -5    1    5    5    0  501 -0.59736616413E+02 -0.81522907872E+02  0.83787691281E+02  0.13136557791E+03  0.47000000000E+01 0.  1.
         13    1    6    6    0    0 -0.15363603525E+02 -0.10003430348E+02  0.42259242845E+02  0.46064656059E+02  0.00000000000E+00 0. -1.
        -14    1    6    6    0    0  0.40773322962E+02  0.25273744975E+02  0.81379713248E+00  0.47977998252E+02  0.00000000000E+00 0.  1.
</event>
<event>
12    1  0.2685360E-002  0.3613789E+03  0.7818608E-02  0.1058039E+00
          1   -1    0    0  502    0  0.00000000000E+00  0.00000000000E+00  0.23538895303E+04  0.23538895303E+04  0.00000000000E+00 0. -1.
         -1   -1    0    0    0  501 -0.00000000000E+00 -0.00000000000E+00 -0.13627614847E+03  0.13627614847E+03  0.00000000000E+00 0.  1.
          6    2    1    2  502    0 -0.15489026014E+03 -0.27748718323E+03  0.14990089292E+03  0.39108279676E+03  0.17171297760E+03 0.  0.
         24    2    3    3    0    0 -0.24796424867E+02 -0.90338984835E+02  0.11981890897E+02  0.12463843998E+03  0.81333757712E+02 0.  0.
         -6    2    1    2    0  501  0.15489026014E+03  0.27748718323E+03  0.20677124889E+04  0.20990828820E+04  0.17240614617E+03 0.  0.
        -24    2    5    5    0    0  0.11155528554E+03  0.14118268770E+03  0.81350081061E+03  0.83673354071E+03  0.77216036160E+02 0.  0.
          5    1    3    3  502    0 -0.13009383527E+03 -0.18714819840E+03  0.13791900203E+03  0.26644435678E+03  0.47000000000E+01 0. -1.
        -13    1    4    4    0    0 -0.49660913502E+02 -0.83457673508E+02  0.16320184359E+02  0.98477093858E+02  0.00000000000E+00 0.  1.
         14    1    4    4    0    0  0.24864488635E+02 -0.68813113273E+01 -0.43382934620E+01  0.26161346121E+02  0.00000000000E+00 0. -1.
         -5    1    5    5    0  501  0.43334974602E+02  0.13630449553E+03  0.12542116782E+04  0.12623493413E+04  0.47000000000E+01 0.  1.
         13    1    6    6    0    0  0.11149821987E+03  0.13212116942E+03  0.80765320478E+03  0.82594888197E+03  0.00000000000E+00 0. -1.
        -14    1    6    6    0    0  0.57065668427E-01  0.90615182817E+01  0.58476058358E+01  0.10784658737E+02  0.00000000000E+00 0.  1.
</event>
<event>
12    1  0.2685360E-002  0.1981138E+03  0.7818608E-02  0.1151340E+00
         -2   -1    0    0    0  501 -0.00000000000E+00  0.00000000000E+00  0.32445889670E+02  0.32445889670E+02  0.00000000000E+00 0.  1.
          2   -1    0    0  502    0  0.00000000000E+00 -0.00000000000E+00 -0.13110397712E+04  0.13110397712E+04  0.00000000000E+00 0. -1.
          6    2    1    2  502    0  0.70889048115E+02 -0.71841833156E+02 -0.45658271992E+03  0.49825118287E+03  0.17204637447E+03 0.  0.
         24    2    3    3    0    0  0.11459231047E+03 -0.57847359172E+02 -0.33638613459E+03  0.36950674778E+03  0.83077617486E+02 0.  0.
         -6    2    1    2    0  501 -0.70889048115E+02  0.71841833156E+02 -0.82201116166E+03  0.84523447805E+03  0.16891556132E+03 0.  0.
        -24    2    5    5    0    0 -0.10823279630E+03  0.76378635954E+02 -0.71562026244E+03  0.73229090123E+03  0.81176165131E+02 0.  0.
          5    1    3    3  502    0 -0.43703262354E+02 -0.13994473984E+02 -0.12019658533E+03  0.12874443510E+03  0.47000000000E+01 0. -1.
        -11    1    4    4    0    0  0.69900015573E+02 -0.94145445259E+01 -0.89362803477E+02  0.11384356139E+03  0.00000000000E+00 0.  1.
         12    1    4    4    0    0  0.44692294896E+02 -0.48432814646E+02 -0.24702333111E+03  0.25566318638E+03  0.00000000000E+00 0. -1.
         -5    1    5    5    0  501  0.37343748181E+02 -0.45368027977E+01 -0.10639089922E+03  0.11294357682E+03  0.47000000000E+01 0.  1.
         11    1    6    6    0    0 -0.73993153122E+02  0.36994685789E+01 -0.30337970767E+03  0.31229460419E+03  0.00000000000E+00 0. -1.
        -12    1    6    6    0    0 -0.34239643174E+02  0.72679167375E+02 -0.41224055477E+03  0.41999629705E+03  0.00000000000E+00 0.  1.
</event>
<event>
12    1  0.2685360E-002  0.1771232E+03  0.7818608E-02  0.1170617E+00
          2   -1    0    0  502    0  0.00000000000E+00  0.00000000000E+00  0.11213513222E+04  0.11213513222E+04  0.00000000000E+00 0. -1.
         -2   -1    0    0    0  501 -0.00000000000E+00 -0.00000000000E+00 -0.32818764445E+02  0.32818764445E+02  0.00000000000E+00 0.  1.
          6    2    1    2  502    0 -0.51239722993E+02  0.32547800428E+02  0.31908186620E+03  0.36428699920E+03  0.16494517853E+03 0.  0.
         24    2    3    3    0    0 -0.30426043321E+02  0.12851877867E+02  0.53214841743E+02  0.96838867178E+02  0.73858188020E+02 0.  0.
         -6    2    1    2    0  501  0.51239722993E+02 -0.32547800428E+02  0.76945069150E+03  0.78988308740E+03  0.16785725059E+03 0.  0.
        -24    2    5    5    0    0  0.33755762895E+02 -0.45058027253E+02  0.75971767295E+03  0.76582033016E+03  0.78359161145E+02 0.  0.
          5    1    3    3  502    0 -0.20813679672E+02  0.19695922560E+02  0.26586702446E+03  0.26744813202E+03  0.47000000000E+01 0. -1.
        -13    1    4    4    0    0  0.24063305983E+01  0.37498916995E+02  0.36891213275E+02  0.52658530360E+02  0.00000000000E+00 0.  1.
         14    1    4    4    0    0 -0.32832373920E+02 -0.24647039128E+02  0.16323628467E+02  0.44180336817E+02  0.00000000000E+00 0. -1.
         -5    1    5    5    0  501  0.17483960098E+02  0.12510226825E+02  0.97330185523E+01  0.24062757242E+02  0.47000000000E+01 0.  1.
         13    1    6    6    0    0  0.49640723957E+02 -0.41112695826E+01  0.49309422806E+03  0.49560369426E+03  0.00000000000E+00 0. -1.
        -14    1    6    6    0    0 -0.15884961061E+02 -0.40946757670E+02  0.26662344489E+03  0.27021663590E+03  0.00000000000E+00 0.  1.
</event>
<event>
12    1  0.2685360E-002  0.1749053E+03  0.7818608E-02  0.1172827E+00
         -2   -1    0    0    0  501 -0.00000000000E+00  0.00000000000E+00  0.16512878171E+03  0.16512878171E+03  0.00000000000E+00 0.  1.
          2   -1    0    0  502    0  0.00000000000E+00 -0.00000000000E+00 -0.18581595383E+03  0.18581595383E+03  0.00000000000E+00 0. -1.
          6    2    1    2  502    0 -0.22645150801E+02  0.20471369074E+02 -0.19952423802E+02  0.17651245391E+03  0.17270398768E+03 0.  0.
         24    2    3    3    0    0  0.49472363691E+00 -0.50730521584E+01 -0.76016595914E+02  0.11053327052E+03  0.80081835821E+02 0.  0.
         -6    2    1    2    0  501  0.22645150801E+02 -0.20471369074E+02 -0.73474831814E+00  0.17443228163E+03  0.17173875862E+03 0.  0.
        -24    2    5    5    0    0 -0.24450403516E+02  0.42726191854E+02  0.11700022154E+02  0.94503335306E+02  0.79816290086E+02 0.  0.
          5    1    3    3  502    0 -0.23139874438E+02  0.25544421233E+02  0.56064172112E+02  0.65979183382E+02  0.47000000000E+01 0. -1.
        -11    1    4    4    0    0  0.15345538101E+01 -0.27172513582E+02  0.40056538085E+01  0.27509009655E+02  0.00000000000E+00 0.  1.
         12    1    4    4    0    0 -0.10398301732E+01  0.22099461424E+02 -0.80022249723E+02  0.83024260868E+02  0.00000000000E+00 0. -1.
         -5    1    5    5    0  501  0.47095554317E+02 -0.63197560928E+02 -0.12434770472E+02  0.79928946324E+02  0.47000000000E+01 0.  1.
         13    1    6    6    0    0 -0.16282704929E+02 -0.20947672194E+02 -0.73678982895E+01  0.27535747227E+02  0.00000000000E+00 0. -1.
        -14    1    6    6    0    0 -0.81676985869E+01  0.63673864048E+02  0.19067920443E+02  0.66967588078E+02  0.00000000000E+00 0.  1.
</event>
<event>
12    1  0.2685360E-002  0.2058874E+03  0.7818608E-02  0.1144865E+00
         -2   -1    0    0    0  501 -0.00000000000E+00  0.00000000000E+00  0.88193570798E+03  0.88193570798E+03  0.00000000000E+00 0.  1.
          2   -1    0    0  502    0  0.00000000000E+00 -0.00000000000E+00 -0.48240115598E+02  0.48240115598E+02  0.00000000000E+00 0. -1.
          6    2    1    2  502    0  0.92536973446E+02 -0.65086794868E+02  0.44447300058E+03  0.48974915360E+03  0.17175157317E+03 0.  0.
         24    2    3    3    0    0  0.92783986778E+02 -0.10404695659E+03  0.39626594127E+03  0.42758834775E+03  0.79815171111E+02 0.  0.
         -6    2    1    2    0  501 -0.92536973446E+02  0.65086794868E+02  0.38922259180E+03  0.44042666998E+03  0.17228477396E+03 0.  0.
        -24    2    5    5    0    0 -0.12622953649E+03  0.78153762800E+02  0.29230840774E+03  0.33688738503E+03  0.77504828465E+02 0.  0.
          5    1    3    3  502    0 -0.24701333129E+00  0.38960161723E+02  0.48207059308E+02  0.62160805852E+02  0.47000000000E+01 0. -1.
        -13    1    4    4    0    0  0.26251063815E+02  0.76185676735E+01  0.40874060808E+02  0.49171635846E+02  0.00000000000E+00 0.  1.
         14    1    4    4    0    0  0.66532922963E+02 -0.11166552426E+03  0.35539188046E+03  0.37841671190E+03  0.00000000000E+00 0. -1.
         -5    1    5    5    0  501  0.33692563040E+02 -0.13066967932E+02  0.96914184068E+02  0.10353928495E+03  0.47000000000E+01 0.  1.
         13    1    6    6    0    0 -0.83674729315E+02  0.69388009916E+02  0.13305379678E+03  0.17181230772E+03  0.00000000000E+00 0. -1.
        -14    1    6    6    0    0 -0.42554807171E+02  0.87657528835E+01  0.15925461096E+03  0.16507507731E+03  0.00000000000E+00 0.  1.
</event>
<event>
12    1  0.2685360E-002  0.2083940E+03  0.7818608E-02  0.1142844E+00
         -2   -1    0    0    0  501 -0.00000000000E+00  0.00000000000E+00  0.13367624782E+02  0.13367624782E+02  0.00000000000E+00 0. -1.
          2   -1    0    0  502    0  0.00000000000E+00 -0.00000000000E+00 -0.32771724327E+04  0.32771724327E+04  0.00000000000E+00 0.  1.
          6    2    1    2  502    0 -0.76687564238E+02  0.88472445621E+02 -0.14801194616E+04  0.14947436440E+04  0.17261687258E+03 0.  0.
         24    2    3    3    0    0 -0.84906040837E+01  0.62434200819E+02 -0.12249831648E+04  0.12293280538E+04  0.81814364332E+02 0.  0.
         -6    2    1    2    0  501  0.76687564238E+02 -0.88472445621E+02 -0.17836853464E+04  0.17957964135E+04  0.17217139036E+03 0.  0.
        -24    2    5    5    0    0  0.51444049796E+02 -0.12413520610E+03 -0.11361062764E+04  0.11467279970E+04  0.78686644321E+02 0.  0.
          5    1    3    3  502    0 -0.68196960154E+02  0.26038244802E+02 -0.25513629679E+03  0.26541559017E+03  0.47000000000E+01 0. -1.
        -11    1    4    4    0    0 -0.42895531435E+02  0.27833029394E+02 -0.78085453321E+03  0.78252700029E+03  0.00000000000E+00 0.  1.
         12    1    4    4    0    0  0.34404927351E+02  0.34601171425E+02 -0.44412863156E+03  0.44680105355E+03  0.00000000000E+00 0. -1.
         -5    1    5    5    0  501  0.25243514442E+02  0.35662760483E+02 -0.64757906996E+03  0.64906841654E+03  0.47000000000E+01 0.  1.
         13    1    6    6    0    0  0.41589938497E+02 -0.10361875799E+03 -0.61030444222E+03  0.62043378549E+03  0.00000000000E+00 0. -1.
        -14    1    6    6    0    0  0.98541112988E+01 -0.20516448115E+02 -0.52580183422E+03  0.52629421146E+03  0.00000000000E+00 0.  1.
</event>
<event>
12    1  0.2685360E-002  0.1790347E+03  0.7818608E-02  0.1168741E+00
          2   -1    0    0  502    0  0.00000000000E+00  0.00000000000E+00  0.24718257765E+03  0.24718257765E+03  0.00000000000E+00 0. -1.
         -2   -1    0    0    0  501 -0.00000000000E+00 -0.00000000000E+00 -0.13120327751E+03  0.13120327751E+03  0.00000000000E+00 0.  1.
          6    2    1    2  502    0  0.42996827930E+02 -0.21799319846E+02  0.78650442947E+02  0.19629748054E+03  0.17327109145E+03 0.  0.
         24    2    3    3    0    0  0.38263989378E+02 -0.32731382087E+02 -0.19964001480E+02  0.96854992663E+02  0.80292290989E+02 0.  0.
         -6    2    1    2    0  501 -0.42996827930E+02  0.21799319846E+02  0.37328857198E+02  0.18208837462E+03  0.17157737332E+03 0.  0.
        -24    2    5    5    0    0 -0.33479550384E+02 -0.15473953784E+02  0.84218105045E+02  0.12125608827E+03  0.79057107122E+02 0.  0.
          5    1    3    3  502    0  0.47328385519E+01  0.10932062241E+02  0.98614444427E+02  0.99442487877E+02  0.47000000000E+01 0. -1.
        -13    1    4    4    0    0  0.16921782837E+02  0.25969946913E+02  0.87744603543E+00  0.31008946913E+02  0.00000000000E+00 0.  1.
         14    1    4    4    0    0  0.21342206541E+02 -0.58701329000E+02 -0.20841447515E+02  0.65846045750E+02  0.00000000000E+00 0. -1.
         -5    1    5    5    0  501 -0.95172775457E+01  0.37273273630E+02 -0.46889247847E+02  0.60832286350E+02  0.47000000000E+01 0.  1.
         11    1    6    6    0    0 -0.26549158236E+02  0.30315638554E+02  0.46475305372E+02  0.61513004750E+02  0.00000000000E+00 0. -1.
        -12    1    6    6    0    0 -0.69303921485E+01 -0.45789592338E+02  0.37742799673E+02  0.59743083524E+02  0.00000000000E+00 0.  1.
</event>
<event>
12    1  0.2685360E-002  0.1770040E+03  0.7818608E-02  0.1170734E+00
         -2   -1    0    0    0  501 -0.00000000000E+00  0.00000000000E+00  0.23604425636E+02  0.23604425636E+02  0.00000000000E+00 0.  1.
          2   -1    0    0  502    0  0.00000000000E+00 -0.00000000000E+00 -0.15756183821E+04  0.15756183821E+04  0.00000000000E+00 0. -1.
          6    2    1    2  502    0  0.37365663442E+02 -0.16396162284E+02 -0.46207177454E+03  0.49515135823E+03  0.17320368296E+03 0.  0.
         24    2    3    3    0    0  0.51078157364E+01 -0.48104093686E+02 -0.12763733096E+03  0.15763921222E+03  0.78858984040E+02 0.  0.
         -6    2    1    2    0  501 -0.37365663442E+02  0.16396162284E+02 -0.10899421819E+04  0.11040714495E+04  0.17127398732E+03 0.  0.
        -24    2    5    5    0    0 -0.72112351628E+02 -0.20837400851E+02 -0.50261069053E+03  0.51451734567E+03  0.80474867073E+02 0.  0.
          5    1    3    3  502    0  0.32257847705E+02  0.31707931402E+02 -0.33443444358E+03  0.33751214601E+03  0.47000000000E+01 0. -1.
        -13    1    4    4    0    0 -0.33533335902E+02 -0.25875927401E+02 -0.35427810849E+02  0.55219362701E+02  0.00000000000E+00 0.  1.
         14    1    4    4    0    0  0.38641151638E+02 -0.22228166285E+02 -0.92209520109E+02  0.10241984952E+03  0.00000000000E+00 0. -1.
         -5    1    5    5    0  501  0.34746688186E+02  0.37233563135E+02 -0.58733149138E+03  0.58955410382E+03  0.47000000000E+01 0.  1.
         11    1    6    6    0    0 -0.18727523994E+02  0.30231121128E+02 -0.13896476796E+03  0.14344283730E+03  0.00000000000E+00 0. -1.
        -12    1    6    6    0    0 -0.53384827634E+02 -0.51068521979E+02 -0.36364592257E+03  0.37107450837E+03  0.00000000000E+00 0.  1.
</event>
<event>
12    1  0.2685360E-002  0.2089412E+03  0.7818608E-02  0.1142407E+00
          1   -1    0    0  502    0  0.00000000000E+00  0.00000000000E+00  0.17128880175E+03  0.17128880175E+03  0.00000000000E+00 0.  1.
         -1   -1    0    0    0  501 -0.00000000000E+00 -0.00000000000E+00 -0.68734499161E+03  0.68734499161E+03  0.00000000000E+00 0. -1.
          6    2    1    2  502    0  0.10386426909E+03 -0.58655997530E+02  0.82340060462E+02  0.22493323199E+03  0.17200802556E+03 0.  0.
         24    2    3    3    0    0  0.10377921680E+03 -0.26892632654E+02  0.11852013432E+03  0.17655962011E+03  0.75052899245E+02 0.  0.
         -6    2    1    2    0  501 -0.10386426909E+03  0.58655997530E+02 -0.59839625032E+03  0.63370056136E+03  0.17108482291E+03 0.  0.
        -24    2    5    5    0    0 -0.97999916159E+02 -0.15187020195E+02 -0.29393023484E+03  0.32031768614E+03  0.79836131847E+02 0.  0.
          5    1    3    3  502    0  0.85052291252E-01 -0.31763364876E+02 -0.36180073855E+02  0.48373611880E+02  0.47000000000E+01 0. -1.
        -11    1    4    4    0    0  0.90761249877E+02 -0.45575348889E+02  0.11515279103E+03  0.15354114168E+03  0.00000000000E+00 0.  1.
         12    1    4    4    0    0  0.13017966925E+02  0.18682716235E+02  0.33673432897E+01  0.23018478438E+02  0.00000000000E+00 0. -1.
         -5    1    5    5    0  501 -0.58643529340E+01  0.73843017724E+02 -0.30446601548E+03  0.31338287522E+03  0.47000000000E+01 0.  1.
         13    1    6    6    0    0 -0.11092499449E+03 -0.16309309374E+02 -0.27810270563E+03  0.29985240178E+03  0.00000000000E+00 0. -1.
        -14    1    6    6    0    0  0.12925078329E+02  0.11222891797E+01 -0.15827529207E+02  0.20465284352E+02  0.00000000000E+00 0.  1.
</event>
<event>
12    1  0.2685360E-002  0.2535455E+03  0.7818608E-02  0.1111084E+00
         -4   -1    0    0    0  501 -0.00000000000E+00  0.00000000000E+00  0.55738612457E+03  0.55738612457E+03  0.00000000000E+00 0.  1.
          4   -1    0    0  502    0  0.00000000000E+00 -0.00000000000E+00 -0.11861874831E+03  0.11861874831E+03  0.00000000000E+00 0. -1.
          6    2    1    2  502    0  0.16947171204E+03  0.77339977665E+02  0.27590043404E+03  0.37492459122E+03  0.17246816016E+03 0.  0.
         24    2    3    3    0    0  0.71741687994E+02  0.10603871036E+03  0.18483210868E+03  0.23821210187E+03  0.78683029868E+02 0.  0.
         -6    2    1    2    0  501 -0.16947171204E+03 -0.77339977665E+02  0.16286694222E+03  0.30108028166E+03  0.17152714598E+03 0.  0.
        -24    2    5    5    0    0 -0.46693185668E+02  0.15904900241E+02  0.89806636483E+02  0.13040787010E+03  0.80670695969E+02 0.  0.
          5    1    3    3  502    0  0.97730024046E+02 -0.28698732696E+02  0.91068325362E+02  0.13671248934E+03  0.47000000000E+01 0. -1.
        -13    1    4    4    0    0  0.70000057508E+02  0.37380110531E+02  0.78458677405E+02  0.11159321115E+03  0.00000000000E+00 0.  1.
         14    1    4    4    0    0  0.17416304855E+01  0.68658599829E+02  0.10637343127E+03  0.12661889072E+03  0.00000000000E+00 0. -1.
         -5    1    5    5    0  501 -0.12277852637E+03 -0.93244877905E+02  0.73060305738E+02  0.17067241156E+03  0.47000000000E+01 0.  1.
         13    1    6    6    0    0 -0.64835540284E+02  0.23543680015E+02  0.86190383990E+02  0.11039354349E+03  0.00000000000E+00 0. -1.
        -14    1    6    6    0    0  0.18142354616E+02 -0.76387797737E+01  0.36162524936E+01  0.20014326607E+02  0.00000000000E+00 0.  1.
</event>
<event>
12    1  0.2685360E-002  0.2201293E+03  0.7818608E-02  0.1133787E+00
          1   -1    0    0  502    0  0.00000000000E+00  0.00000000000E+00  0.27789660099E+04  0.27789660099E+04  0.00000000000E+00 0. -1.
         -1   -1    0    0    0  501 -0.00000000000E+00 -0.00000000000E+00 -0.21594083822E+02  0.21594083822E+02  0.00000000000E+00 0.  1.
          6    2    1    2  502    0  0.90769174687E+00  0.13932251399E+03  0.77504895180E+03  0.80628162777E+03  0.17314040190E+03 0.  0.
         24    2    3    3    0    0  0.61723572849E+02  0.83325641549E+02  0.58383968005E+03  0.59791345188E+03  0.76673084922E+02 0.  0.
         -6    2    1    2    0  501 -0.90769174687E+00 -0.13932251399E+03  0.19823229742E+04  0.19942784659E+04  0.16772190861E+03 0.  0.
        -24    2    5    5    0    0  0.49432473307E+02 -0.70359656076E+02  0.14846764855E+04  0.14893387410E+04  0.80446058946E+02 0.  0.
          5    1    3    3  502    0 -0.60815881102E+02  0.55996872446E+02  0.19120927175E+03  0.20836817589E+03  0.47000000000E+01 0. -1.
        -13    1    4    4    0    0  0.51313072057E+02  0.67315812651E+02  0.25831632432E+03  0.27183041295E+03  0.00000000000E+00 0.  1.
         14    1    4    4    0    0  0.10410500792E+02  0.16009828898E+02  0.32552335573E+03  0.32608303893E+03  0.00000000000E+00 0. -1.
         -5    1    5    5    0  501 -0.50340165054E+02 -0.68962857918E+02  0.49764648878E+03  0.50493972490E+03  0.47000000000E+01 0.  1.
         11    1    6    6    0    0 -0.16876143039E+02 -0.42391439821E+02  0.61428999082E+03  0.61598216792E+03  0.00000000000E+00 0. -1.
        -12    1    6    6    0    0  0.66308616346E+02 -0.27968216255E+02  0.87038649465E+03  0.87335657310E+03  0.00000000000E+00 0.  1.
</event>
<event>
12    1  0.2685360E-002  0.2710520E+03  0.7818608E-02  0.1100679E+00
         -2   -1    0    0    0  501 -0.00000000000E+00  0.00000000000E+00  0.53857831895E+03  0.53857831895E+03  0.00000000000E+00 0. -1.
          2   -1    0    0  502    0  0.00000000000E+00 -0.00000000000E+00 -0.18834610832E+03  0.18834610832E+03  0.00000000000E+00 0.  1.
          6    2    1    2  502    0 -0.19190134690E+03  0.84457937405E+02 -0.15807129256E+02  0.27136564363E+03  0.17155225756E+03 0.  0.
         24    2    3    3    0    0 -0.10271953970E+03  0.65325609301E+01 -0.61881201917E+02  0.14420169746E+03  0.79817718648E+02 0.  0.
         -6    2    1    2    0  501  0.19190134690E+03 -0.84457937405E+02  0.36603933988E+03  0.45555878364E+03  0.17201667616E+03 0.  0.
        -24    2    5    5    0    0  0.16148270887E+03 -0.91100574705E+02  0.37210201866E+03  0.42349222406E+03  0.80683155441E+02 0.  0.
          5    1    3    3  502    0 -0.89181807195E+02  0.77925376475E+02  0.46074072661E+02  0.12716394617E+03  0.47000000000E+01 0. -1.
        -11    1    4    4    0    0 -0.58115152817E+02  0.82086205686E+01  0.10050509287E+02  0.59546327977E+02  0.00000000000E+00 0.  1.
         12    1    4    4    0    0 -0.44604386888E+02 -0.16760596385E+01 -0.71931711204E+02  0.84655369483E+02  0.00000000000E+00 0. -1.
         -5    1    5    5    0  501  0.30418638027E+02  0.66426372998E+01 -0.60626787723E+01  0.32066559585E+02  0.47000000000E+01 0.  1.
         11    1    6    6    0    0  0.47472110031E+02 -0.14408976066E+02  0.18386424870E+03  0.19043970639E+03  0.00000000000E+00 0. -1.
        -12    1    6    6    0    0  0.11401059884E+03 -0.76691598639E+02  0.18823776996E+03  0.23305251766E+03  0.00000000000E+00 0.  1.
</event>
<event>
12    1  0.2685360E-002  0.1943996E+03  0.7818608E-02  0.1154552E+00
          2   -1    0    0  502    0  0.00000000000E+00  0.00000000000E+00  0.68350602646E+03  0.68350602646E+03  0.00000000000E+00 0. -1.
         -2   -1    0    0    0  501 -0.00000000000E+00 -0.00000000000E+00 -0.85554116500E+02  0.85554116500E+02  0.00000000000E+00 0.  1.
          6    2    1    2  502    0 -0.17825732198E+02 -0.90243693707E+02  0.52863255784E+03  0.56357888148E+03  0.17235745839E+03 0.  0.
         24    2    3    3    0    0  0.37390373804E+02 -0.16329433039E+02  0.16976226141E+03  0.19300889356E+03  0.82270998273E+02 0.  0.
         -6    2    1    2    0  501  0.17825732198E+02  0.90243693707E+02  0.69319352124E+02  0.20548126148E+03  0.17016373074E+03 0.  0.
        -24    2    5    5    0    0 -0.58751068525E+01  0.12274766994E+03  0.75413089933E+02  0.16452443198E+03  0.79244225204E+02 0.  0.
          5    1    3    3  502    0 -0.55216106001E+02 -0.73914260668E+02  0.35887029642E+03  0.37056998792E+03  0.47000000000E+01 0. -1.
        -13    1    4    4    0    0  0.57295943210E+02 -0.38205432856E+01  0.15488562961E+03  0.16518771116E+03  0.00000000000E+00 0.  1.
         14    1    4    4    0    0 -0.19905569407E+02 -0.12508889753E+02  0.14876631804E+02  0.27821182399E+02  0.00000000000E+00 0. -1.
         -5    1    5    5    0  501  0.23700839050E+02 -0.32503976230E+02 -0.60937378091E+01  0.40956829503E+02  0.47000000000E+01 0.  1.
         13    1    6    6    0    0  0.10936652377E+02  0.25708993437E+02  0.58184587731E+02  0.64544627648E+02  0.00000000000E+00 0. -1.
        -14    1    6    6    0    0 -0.16811759230E+02  0.97038676500E+02  0.17228502201E+02  0.99979804328E+02  0.00000000000E+00 0.  1.
</event>
<event>
12    1  0.2685360E-002  0.4235442E+03  0.7818608E-02  0.1035919E+00
          4   -1    0    0  502    0  0.00000000000E+00  0.00000000000E+00  0.39491245284E+03  0.39491245284E+03  0.00000000000E+00 0.  1.
         -4   -1    0    0    0  501 -0.00000000000E+00 -0.00000000000E+00 -0.62621359122E+03  0.62621359122E+03  0.00000000000E+00 0. -1.
          6    2    1    2  502    0  0.37691191089E+03 -0.87158966675E+02 -0.38319321321E+03  0.57113684954E+03  0.17233974645E+03 0.  0.
         24    2    3    3    0    0  0.16810249614E+03 -0.23153340593E+02 -0.26106425963E+03  0.32086567029E+03  0.77496479436E+02 0.  0.
         -6    2    1    2    0  501 -0.37691191089E+03  0.87158966675E+02  0.15189207482E+03  0.44998919453E+03  0.17251028593E+03 0.  0.
        -24    2    5    5    0    0 -0.37852271282E+03  0.54708605049E+02  0.14219495131E+03  0.41575843560E+03  0.79769649629E+02 0.  0.
          5    1    3    3  502    0  0.20880941475E+03 -0.64005626082E+02 -0.12212895357E+03  0.25027117924E+03  0.47000000000E+01 0. -1.
        -13    1    4    4    0    0  0.56047836912E+02  0.16769396432E+02 -0.13709801638E+03  0.14905850789E+03  0.00000000000E+00 0.  1.
         14    1    4    4    0    0  0.11205465923E+03 -0.39922737025E+02 -0.12396624326E+03  0.17180716241E+03  0.00000000000E+00 0. -1.
         -5    1    5    5    0  501  0.16108019312E+01  0.32450361626E+02  0.96971235076E+01  0.34230758928E+02  0.47000000000E+01 0.  1.
         11    1    6    6    0    0 -0.37261537715E+02  0.36771875823E+01 -0.98087674143E+01  0.38706017873E+02  0.00000000000E+00 0. -1.
        -12    1    6    6    0    0 -0.34126117511E+03  0.51031417467E+02  0.15200371873E+03  0.37705241772E+03  0.00000000000E+00 0.  1.
</event>
<event>
12    1  0.2685360E-002  0.2033280E+03  0.7818608E-02  0.1146961E+00
         -2   -1    0    0    0  501 -0.00000000000E+00  0.00000000000E+00  0.24174663287E+02  0.24174663287E+02  0.00000000000E+00 0.  1.
          2   -1    0    0  502    0  0.00000000000E+00 -0.00000000000E+00 -0.18123951631E+04  0.18123951631E+04  0.00000000000E+00 0. -1.
          6    2    1    2  502    0 -0.77880217246E+02 -0.73652132690E+02 -0.11125248633E+04  0.11309658985E+04  0.17286505465E+03 0.  0.
         24    2    3    3    0    0 -0.40495636811E+02 -0.80338319356E+02 -0.41372774843E+03  0.43112176602E+03  0.81247677877E+02 0.  0.
         -6    2    1    2    0  501  0.77880217246E+02  0.73652132690E+02 -0.67569563650E+03  0.70560392792E+03  0.17269147351E+03 0.  0.
        -24    2    5    5    0    0  0.96516281247E+02  0.93878016919E+02 -0.64671724291E+03  0.66537674098E+03  0.79715372108E+02 0.  0.
          5    1    3    3  502    0 -0.37384580435E+02  0.66861866661E+01 -0.69879711492E+03  0.69984413248E+03  0.47000000000E+01 0. -1.
        -11    1    4    4    0    0 -0.58714129131E+02 -0.76749936616E+02 -0.38479480068E+03  0.39674291470E+03  0.00000000000E+00 0.  1.
         12    1    4    4    0    0  0.18218492320E+02 -0.35883827396E+01 -0.28932947743E+02  0.34378851322E+02  0.00000000000E+00 0. -1.
         -5    1    5    5    0  501 -0.18636064000E+02 -0.20225884230E+02 -0.28978393591E+02  0.40227186944E+02  0.47000000000E+01 0.  1.
         11    1    6    6    0    0  0.71224741730E+02  0.73159458079E+02 -0.59832983971E+03  0.60697929719E+03  0.00000000000E+00 0. -1.
        -12    1    6    6    0    0  0.25291539517E+02  0.20718558840E+02 -0.48387403208E+02  0.58397443786E+02  0.00000000000E+00 0.  1.
</event>
<event>
12    1  0.2685360E-002  0.1782223E+03  0.7818608E-02  0.1169535E+00
          2   -1    0    0  502    0  0.00000000000E+00  0.00000000000E+00  0.10935954030E+04  0.10935954030E+04  0.00000000000E+00 0. -1.
         -2   -1    0    0    0  501 -0.00000000000E+00 -0.00000000000E+00 -0.31084021240E+02  0.31084021240E+02  0.00000000000E+00 0.  1.
          6    2    1    2  502    0  0.36745119386E+01 -0.51691557029E+02  0.68586750370E+03  0.70967112556E+03  0.17473796017E+03 0.  0.
         24    2    3    3    0    0  0.18690756179E+02  0.32957349121E+02  0.45113505181E+03  0.45964644903E+03  0.79476360714E+02 0.  0.
         -6    2    1    2    0  501 -0.36745119386E+01  0.51691557029E+02  0.37664387810E+03  0.41500829872E+03  0.16639037829E+03 0.  0.
        -24    2    5    5    0    0  0.18955318406E+01 -0.52906860204E+01  0.33484913672E+03  0.34396681916E+03  0.78470656429E+02 0.  0.
          5    1    3    3  502    0 -0.15016244241E+02 -0.84648906150E+02  0.23473245189E+03  0.25002467653E+03  0.47000000000E+01 0. -1.
        -11    1    4    4    0    0 -0.19363956639E+01 -0.17182735984E+02  0.27014925229E+02  0.32074947064E+02  0.00000000000E+00 0.  1.
         12    1    4    4    0    0  0.20627151843E+02  0.50140085104E+02  0.42412012658E+03  0.42757150197E+03  0.00000000000E+00 0. -1.
         -5    1    5    5    0  501 -0.55700437791E+01  0.56982243050E+02  0.41794741384E+02  0.71041479560E+02  0.47000000000E+01 0.  1.
         11    1    6    6    0    0 -0.27648208107E+02 -0.90475367497E+01  0.52248269755E+02  0.59801028630E+02  0.00000000000E+00 0. -1.
        -12    1    6    6    0    0  0.29543739948E+02  0.37568507293E+01  0.28260086697E+03  0.28416579053E+03  0.00000000000E+00 0.  1.
</event>
<event>
12    1  0.2685360E-002  0.2958392E+03  0.7818608E-02  0.1087339E+00
          2   -1    0    0  502    0  0.00000000000E+00  0.00000000000E+00  0.18922640765E+04  0.18922640765E+04  0.00000000000E+00 0. -1.
         -2   -1    0    0    0  501 -0.00000000000E+00 -0.00000000000E+00 -0.91633232562E+02  0.91633232562E+02  0.00000000000E+00 0.  1.
          6    2    1    2  502    0  0.20357816825E+03  0.13046851516E+03  0.16028077588E+04  0.16304147455E+04  0.17548055872E+03 0.  0.
         24    2    3    3    0    0  0.11225390938E+03 -0.36531014211E+01  0.76246065753E+03  0.77453270399E+03  0.77073795445E+02 0.  0.
         -6    2    1    2    0  501 -0.20357816825E+03 -0.13046851516E+03  0.19782308515E+03  0.35348256362E+03  0.16537788767E+03 0.  0.
        -24    2    5    5    0    0 -0.17703293073E+03 -0.15283450779E+03  0.13431289025E+03  0.28095310673E+03  0.78712453619E+02 0.  0.
          5    1    3    3  502    0  0.91324258870E+02  0.13412161658E+03  0.84034710129E+03  0.85588204148E+03  0.47000000000E+01 0. -1.
        -13    1    4    4    0    0  0.11581846136E+03  0.14961776516E+02  0.63141738690E+03  0.64212591228E+03  0.00000000000E+00 0.  1.
         14    1    4    4    0    0 -0.35645519826E+01 -0.18614877937E+02  0.13104327064E+03  0.13240679171E+03  0.00000000000E+00 0. -1.
         -5    1    5    5    0  501 -0.26545237518E+02  0.22365992634E+02  0.63510194898E+02  0.72529456894E+02  0.47000000000E+01 0.  1.
         11    1    6    6    0    0 -0.26576694600E+02 -0.69256227159E+02  0.48564791674E+02  0.88663886033E+02  0.00000000000E+00 0. -1.
        -12    1    6    6    0    0 -0.15045623613E+03 -0.83578280635E+02  0.85748098578E+02  0.19228922069E+03  0.00000000000E+00 0.  1.
</event>
<event>
12    1  0.2685360E-002  0.2623663E+03  0.7818608E-02  0.1105730E+00
         -2   -1    0    0    0  501 -0.00000000000E+00  0.00000000000E+00  0.50385821167E+02  0.50385821167E+02  0.00000000000E+00 0. -1.
          2   -1    0    0  502    0  0.00000000000E+00 -0.00000000000E+00 -0.13677150697E+04  0.13677150697E+04  0.00000000000E+00 0.  1.
          6    2    1    2  502    0  0.49484826716E+02  0.19282073081E+03 -0.68139294839E+03  0.73001511108E+03  0.17028543679E+03 0.  0.
         24    2    3    3    0    0  0.23551031754E+02  0.56134207068E+02 -0.14890222269E+03  0.17962958216E+03  0.79932562596E+02 0.  0.
         -6    2    1    2    0  501 -0.49484826716E+02 -0.19282073081E+03 -0.63593630020E+03  0.68808577984E+03  0.17151816290E+03 0.  0.
        -24    2    5    5    0    0 -0.13367007340E+01 -0.10793449075E+03 -0.19417676558E+03  0.23565071023E+03  0.78581167455E+02 0.  0.
          5    1    3    3  502    0  0.25933794962E+02  0.13668652374E+03 -0.53249072569E+03  0.55038552892E+03  0.47000000000E+01 0. -1.
        -11    1    4    4    0    0  0.36093278417E+02  0.65171157172E+02 -0.14598893378E+03  0.16389866766E+03  0.00000000000E+00 0.  1.
         12    1    4    4    0    0 -0.12542246664E+02 -0.90369501044E+01 -0.29132889088E+01  0.15730914495E+02  0.00000000000E+00 0. -1.
         -5    1    5    5    0  501 -0.48148125982E+02 -0.84886240061E+02 -0.44175953462E+03  0.45243506961E+03  0.47000000000E+01 0.  1.
         13    1    6    6    0    0  0.22342893444E+02 -0.10582725494E+03 -0.17174319136E+03  0.20296387992E+03  0.00000000000E+00 0. -1.
        -14    1    6    6    0    0 -0.23679594178E+02 -0.21072358106E+01 -0.22433574221E+02  0.32686830307E+02  0.00000000000E+00 0.  1.
</event>
<event>
12    1  0.2685360E-002  0.2134872E+03  0.7818608E-02  0.1138834E+00
         -2   -1    0    0    0  501 -0.00000000000E+00  0.00000000000E+00  0.81673713067E+02  0.81673713067E+02  0.00000000000E+00 0. -1.
          2   -1    0    0  502    0  0.00000000000E+00 -0.00000000000E+00 -0.58816029188E+03  0.58816029188E+03  0.00000000000E+00 0.  1.
          6    2    1    2  502    0 -0.94154367658E+02 -0.84804601594E+02 -0.17787115473E+03  0.27816516697E+03  0.17228130203E+03 0.  0.
         24    2    3    3    0    0 -0.21705638106E+02 -0.87218911384E+02 -0.46737715373E+02  0.12825614048E+03  0.78657169434E+02 0.  0.
         -6    2    1    2    0  501  0.94154367658E+02  0.84804601594E+02 -0.32861542408E+03  0.39166883798E+03  0.17134618846E+03 0.  0.
        -24    2    5    5    0    0 -0.19313990917E+01  0.55702972368E+02 -0.23637291041E+03  0.25524981172E+03  0.78573291755E+02 0.  0.
          5    1    3    3  502    0 -0.72448729552E+02  0.24143097906E+01 -0.13113343935E+03  0.14990902649E+03  0.47000000000E+01 0. -1.
        -11    1    4    4    0    0 -0.26614991226E+02 -0.60719808260E+02 -0.67214861561E+02  0.94409165274E+02  0.00000000000E+00 0.  1.
         12    1    4    4    0    0  0.49093531203E+01 -0.26499103124E+02  0.20477146188E+02  0.33846975204E+02  0.00000000000E+00 0. -1.
         -5    1    5    5    0  501  0.96085766749E+02  0.29101629226E+02 -0.92242513675E+02  0.13641902626E+03  0.47000000000E+01 0.  1.
         13    1    6    6    0    0 -0.98587777095E+01  0.33335136743E+02 -0.25666053456E+02  0.43210798878E+02  0.00000000000E+00 0. -1.
        -14    1    6    6    0    0  0.79273786177E+01  0.22367835624E+02 -0.21070685695E+03  0.21203901285E+03  0.00000000000E+00 0.  1.
</event>
<event>
12    1  0.2685360E-002  0.1771692E+03  0.7818608E-02  0.1170571E+00
          2   -1    0    0  502    0  0.00000000000E+00  0.00000000000E+00  0.45874260054E+03  0.45874260054E+03  0.00000000000E+00 0. -1.
         -2   -1    0    0    0  501 -0.00000000000E+00 -0.00000000000E+00 -0.73320364981E+02  0.73320364981E+02  0.00000000000E+00 0.  1.
          6    2    1    2  502    0  0.54092413115E+02 -0.12773272092E+02  0.12910761552E+03  0.22309512050E+03  0.17324407860E+03 0.  0.
         24    2    3    3    0    0  0.80334161451E+02  0.34749108682E+02  0.47786943571E+02  0.12520667523E+03  0.75710246975E+02 0.  0.
         -6    2    1    2    0  501 -0.54092413115E+02  0.12773272092E+02  0.25631462003E+03  0.30896784502E+03  0.16332421491E+03 0.  0.
        -24    2    5    5    0    0 -0.94729285151E+02 -0.11232858336E+02  0.17248557623E+03  0.21265041019E+03  0.79806693794E+02 0.  0.
          5    1    3    3  502    0 -0.26241748336E+02 -0.47522380775E+02  0.81320671952E+02  0.97888445268E+02  0.47000000000E+01 0. -1.
        -13    1    4    4    0    0 -0.12640780176E+02 -0.71422350400E+00 -0.36681594297E+01  0.13181609623E+02  0.00000000000E+00 0.  1.
         14    1    4    4    0    0  0.92974941627E+02  0.35463332186E+02  0.51455103001E+02  0.11202506561E+03  0.00000000000E+00 0. -1.
         -5    1    5    5    0  501  0.40636872036E+02  0.24006130428E+02  0.83829043805E+02  0.96317434830E+02  0.47000000000E+01 0.  1.
         11    1    6    6    0    0 -0.74319362715E+02  0.28314854254E+02  0.11800133603E+03  0.14230043553E+03  0.00000000000E+00 0. -1.
        -12    1    6    6    0    0 -0.20409922436E+02 -0.39547712590E+02  0.54484240195E+02  0.70349974659E+02  0.00000000000E+00 0.  1.
</event>
<event>
12    1  0.2685360E-002  0.2411453E+03  0.7818608E-02  0.1119032E+00
         -1   -1    0    0    0  501 -0.00000000000E+00  0.00000000000E+00  0.70707494642E+02  0.70707494642E+02  0.00000000000E+00 0. -1.
          1   -1    0    0  502    0  0.00000000000E+00 -0.00000000000E+00 -0.13844623705E+04  0.13844623705E+04  0.00000000000E+00 0.  1.
          6    2    1    2  502    0 -0.28042065013E+02  0.16673532323E+03 -0.19293319935E+03  0.30865350873E+03  0.17162966998E+03 0.  0.
         24    2    3    3    0    0 -0.74578736214E+02  0.65128090942E+02 -0.12601199455E+03  0.17830693581E+03  0.78170867102E+02 0.  0.
         -6    2    1    2    0  501  0.28042065013E+02 -0.16673532323E+03 -0.11208216765E+04  0.11465163564E+04  0.17225417140E+03 0.  0.
        -24    2    5    5    0    0  0.60761861673E+01 -0.16494608872E+03 -0.65251359071E+03  0.67766642902E+03  0.78826840183E+02 0.  0.
          5    1    3    3  502    0  0.46536671202E+02  0.10160723229E+03 -0.66921204808E+02  0.13034657292E+03  0.47000000000E+01 0. -1.
        -13    1    4    4    0    0 -0.59633048920E+02  0.89783119870E+01 -0.33290605617E+02  0.68883779164E+02  0.00000000000E+00 0.  1.
         14    1    4    4    0    0 -0.14945687295E+02  0.56149778955E+02 -0.92721388929E+02  0.10942315665E+03  0.00000000000E+00 0. -1.
         -5    1    5    5    0  501  0.21965878845E+02 -0.17892345093E+01 -0.46830808578E+03  0.46884992738E+03  0.47000000000E+01 0.  1.
         11    1    6    6    0    0  0.23650951142E+02 -0.68170883070E+02 -0.16132675756E+03  0.17672849089E+03  0.00000000000E+00 0. -1.
        -12    1    6    6    0    0 -0.17574764975E+02 -0.96775205653E+02 -0.49118683315E+03  0.50093793813E+03  0.00000000000E+00 0.  1.
</event>
<event>
12    1  0.2685360E-002  0.1800996E+03  0.7818608E-02  0.1167707E+00
         -2   -1    0    0    0  501 -0.00000000000E+00  0.00000000000E+00  0.28418339810E+02  0.28418339810E+02  0.00000000000E+00 0. -1.
          2   -1    0    0  502    0  0.00000000000E+00 -0.00000000000E+00 -0.18672290000E+04  0.18672290000E+04  0.00000000000E+00 0.  1.
          6    2    1    2  502    0  0.72837918226E+02 -0.29719335630E+02 -0.15325698364E+04  0.15440237269E+04  0.17044167482E+03 0.  0.
         24    2    3    3    0    0  0.11262237812E+03 -0.61033512233E+01 -0.12562673031E+04  0.12638350442E+04  0.79689593417E+02 0.  0.
         -6    2    1    2    0  501 -0.72837918226E+02  0.29719335630E+02 -0.30624082382E+03  0.35162361295E+03  0.15384122259E+03 0.  0.
        -24    2    5    5    0    0 -0.78883491269E+02 -0.63748211941E+01 -0.18626555152E+03  0.22610272594E+03  0.10081836865E+03 0.  0.
          5    1    3    3  502    0 -0.39784459896E+02 -0.23615984406E+02 -0.27630253330E+03  0.28018868263E+03  0.47000000000E+01 0. -1.
        -13    1    4    4    0    0  0.28851998186E+02 -0.37773845922E+02 -0.51105954665E+03  0.51326519603E+03  0.00000000000E+00 0.  1.
         14    1    4    4    0    0  0.83770379936E+02  0.31670494699E+02 -0.74520775642E+03  0.75056984819E+03  0.00000000000E+00 0. -1.
         -5    1    5    5    0  501  0.60455730425E+01  0.36094156824E+02 -0.11997527231E+03  0.12552088701E+03  0.47000000000E+01 0.  1.
         13    1    6    6    0    0 -0.12501716771E+02  0.40237734735E+02 -0.36338353318E+02  0.55640310394E+02  0.00000000000E+00 0. -1.
        -14    1    6    6    0    0 -0.66381774498E+02 -0.46612555929E+02 -0.14992719820E+03  0.17046241555E+03  0.00000000000E+00 0.  1.
</event>
<event>
12    1  0.2685360E-002  0.3545220E+03  0.7818608E-02  0.1060774E+00
          2   -1    0    0  502    0  0.00000000000E+00  0.00000000000E+00  0.46884132500E+03  0.46884132500E+03  0.00000000000E+00 0.  1.
         -2   -1    0    0    0  501 -0.00000000000E+00 -0.00000000000E+00 -0.32329114745E+03  0.32329114745E+03  0.00000000000E+00 0. -1.
          6    2    1    2  502    0 -0.27009196699E+03  0.15191791373E+03 -0.90942969177E+02  0.36577860746E+03  0.17174004450E+03 0.  0.
         24    2    3    3    0    0 -0.25779808974E+03  0.14196126276E+03 -0.35036297055E+02  0.30748692448E+03  0.81901229657E+02 0.  0.
         -6    2    1    2    0  501  0.27009196699E+03 -0.15191791373E+03  0.23649314673E+03  0.42635386500E+03  0.17268435540E+03 0.  0.
        -24    2    5    5    0    0  0.25580205838E+03 -0.16691120174E+03  0.24914394321E+03  0.40163276419E+03  0.77085215809E+02 0.  0.
          5    1    3    3  502    0 -0.12293877257E+02  0.99566509718E+01 -0.55906672122E+02  0.58291682977E+02  0.47000000000E+01 0. -1.
        -13    1    4    4    0    0 -0.34157980121E+02  0.27091467322E+02  0.23241112317E+02  0.49405106106E+02  0.00000000000E+00 0.  1.
         14    1    4    4    0    0 -0.22364010962E+03  0.11486979544E+03 -0.58277409372E+02  0.25808181838E+03  0.00000000000E+00 0. -1.
         -5    1    5    5    0  501  0.14289908617E+02  0.14993288003E+02 -0.12650796483E+02  0.24721100806E+02  0.47000000000E+01 0.  1.
         13    1    6    6    0    0  0.82160443473E+01 -0.32044893144E+02  0.26406786889E+02  0.42328441444E+02  0.00000000000E+00 0. -1.
        -14    1    6    6    0    0  0.24758601403E+03 -0.13486630859E+03  0.22273715632E+03  0.35930432274E+03  0.00000000000E+00 0.  1.
</event>
<event>
12    1  0.2685360E-002  0.3146497E+03  0.7818608E-02  0.1078138E+00
          1   -1    0    0  502    0  0.00000000000E+00  0.00000000000E+00  0.13651279734E+04  0.13651279734E+04  0.00000000000E+00 0. -1.
         -1   -1    0    0    0  501 -0.00000000000E+00 -0.00000000000E+00 -0.84378566804E+02  0.84378566804E+02  0.00000000000E+00 0.  1.
          6    2    1    2  502    0  0.19498960281E+03 -0.17755153169E+03  0.36813979764E+03  0.48406890275E+03  0.17102719198E+03 0.  0.
         24    2    3    3    0    0  0.59661814977E+02 -0.46169521088E+02  0.73694750483E+02  0.13436214179E+03  0.83253300553E+02 0.  0.
         -6    2    1    2    0  501 -0.19498960281E+03  0.17755153169E+03  0.91260960894E+03  0.96543763744E+03  0.17224413442E+03 0.  0.
        -24    2    5    5    0    0 -0.88609558153E+02  0.53401246690E+02  0.24005493102E+03  0.27328021895E+03  0.79701701493E+02 0.  0.
          5    1    3    3  502    0  0.13532778783E+03 -0.13138201060E+03  0.29444504716E+03  0.34970676096E+03  0.47000000000E+01 0. -1.
        -13    1    4    4    0    0  0.62003282197E+02 -0.11096740004E+02  0.76505462410E+02  0.99099093943E+02  0.00000000000E+00 0.  1.
         14    1    4    4    0    0 -0.23414672195E+01 -0.35072781084E+02 -0.28107119272E+01  0.35263047843E+02  0.00000000000E+00 0. -1.
         -5    1    5    5    0  501 -0.10638004465E+03  0.12415028500E+03  0.67255467793E+03  0.69215741849E+03  0.47000000000E+01 0.  1.
         11    1    6    6    0    0 -0.21500621186E+02 -0.13173027472E+02  0.15395932264E+02  0.29543867290E+02  0.00000000000E+00 0. -1.
        -12    1    6    6    0    0 -0.67108936967E+02  0.66574274162E+02  0.22465899875E+03  0.24373635166E+03  0.00000000000E+00 0.  1.
</event>
<event>
12    1  0.2685360E-002  0.2115200E+03  0.7818608E-02  0.1140368E+00
          2   -1    0    0  502    0  0.00000000000E+00  0.00000000000E+00  0.41509146401E+03  0.41509146401E+03  0.00000000000E+00 0. -1.
         -2   -1    0    0    0  501 -0.00000000000E+00 -0.00000000000E+00 -0.12639471367E+03  0.12639471367E+03  0.00000000000E+00 0.  1.
          6    2    1    2  502    0  0.11009089842E+03  0.56477596128E+02  0.40202776032E+02  0.21486763163E+03  0.17100324892E+03 0.  0.
         24    2    3    3    0    0  0.10881513566E+03  0.47632572134E+02  0.86622491164E+02  0.16736245324E+03  0.79982117404E+02 0.  0.
         -6    2    1    2    0  501 -0.11009089842E+03 -0.56477596128E+02  0.24849397431E+03  0.32661854605E+03  0.17210663722E+03 0.  0.
        -24    2    5    5    0    0 -0.50781908910E+02 -0.21446646132E+02  0.23793822828E+03  0.25677416569E+03  0.79243995266E+02 0.  0.
          5    1    3    3  502    0  0.12757627583E+01  0.88450239945E+01 -0.46419715132E+02  0.47505178381E+02  0.47000000000E+01 0. -1.
        -11    1    4    4    0    0  0.10144295218E+03  0.68321840774E+01  0.63851157228E+02  0.12005965836E+03  0.00000000000E+00 0.  1.
         12    1    4    4    0    0  0.73721834792E+01  0.40800388057E+02  0.22771333935E+02  0.47302794886E+02  0.00000000000E+00 0. -1.
         -5    1    5    5    0  501 -0.59308989505E+02 -0.35030949996E+02  0.10555746031E+02  0.69844380361E+02  0.47000000000E+01 0.  1.
         13    1    6    6    0    0 -0.11865236562E+02 -0.41241409994E+02  0.17492739317E+03  0.18011449308E+03  0.00000000000E+00 0. -1.
        -14    1    6    6    0    0 -0.38916672348E+02  0.19794763862E+02  0.63010835108E+02  0.76659672606E+02  0.00000000000E+00 0.  1.
</event>
<event>
12    1  0.2685360E-002  0.5050695E+03  0.7818608E-02  0.1012464E+00
         -2   -1    0    0    0  501 -0.00000000000E+00  0.00000000000E+00  0.36753161384E+03  0.36753161384E+03  0.00000000000E+00 0. -1.
          2   -1    0    0  502    0  0.00000000000E+00 -0.00000000000E+00 -0.84629208870E+03  0.84629208870E+03  0.00000000000E+00 0.  1.
          6    2    1    2  502    0  0.31031060111E+03  0.35979358328E+03 -0.49658833440E+03  0.70796916514E+03  0.16993020092E+03 0.  0.
         24    2    3    3    0    0  0.30574832255E+03  0.28597466732E+03 -0.45023675047E+03  0.62055860472E+03  0.84358184672E+02 0.  0.
         -6    2    1    2    0  501 -0.31031060111E+03 -0.35979358328E+03  0.17827859540E+02  0.50585453740E+03  0.17270462848E+03 0.  0.
        -24    2    5    5    0    0 -0.27974701942E+03 -0.23407466640E+03  0.36123167294E+02  0.37510214976E+03  0.79670541677E+02 0.  0.
          5    1    3    3  502    0  0.45622785535E+01  0.73818915963E+02 -0.46351583934E+02  0.87410560419E+02  0.47000000000E+01 0. -1.
        -13    1    4    4    0    0  0.12024729758E+03  0.10286292499E+03 -0.11354530691E+03  0.19476326818E+03  0.00000000000E+00 0.  1.
         14    1    4    4    0    0  0.18550102498E+03  0.18311174233E+03 -0.33669144356E+03  0.42579533653E+03  0.00000000000E+00 0. -1.
         -5    1    5    5    0  501 -0.30563581684E+02 -0.12571891688E+03 -0.18295307754E+02  0.13075238764E+03  0.47000000000E+01 0.  1.
         11    1    6    6    0    0 -0.98383842808E+02 -0.51616181798E+02  0.39221303126E+02  0.11782156580E+03  0.00000000000E+00 0. -1.
        -12    1    6    6    0    0 -0.18136317662E+03 -0.18245848460E+03 -0.30981358317E+01  0.25728058396E+03  0.00000000000E+00 0.  1.
</event>
<event>
12    1  0.2685360E-002  0.2210793E+03  0.7818608E-02  0.1133081E+00
          2   -1    0    0  502    0  0.00000000000E+00  0.00000000000E+00  0.31590869044E+03  0.31590869044E+03  0.00000000000E+00 0.  1.
         -2   -1    0    0    0  501 -0.00000000000E+00 -0.00000000000E+00 -0.32170558962E+03  0.32170558962E+03  0.00000000000E+00 0. -1.
          6    2    1    2  502    0 -0.12385668947E+02  0.13675152187E+03 -0.23258720505E+03  0.32069432762E+03  0.17289783191E+03 0.  0.
         24    2    3    3    0    0  0.29764371131E+02  0.10248859626E+03 -0.71991425596E+02  0.15109577712E+03  0.79103339708E+02 0.  0.
         -6    2    1    2    0  501  0.12385668947E+02 -0.13675152187E+03  0.22679030588E+03  0.31691995245E+03  0.17363763961E+03 0.  0.
        -24    2    5    5    0    0  0.51094878155E+02 -0.12771599729E+03  0.10352673324E+03  0.18732040801E+03  0.73817939694E+02 0.  0.
          5    1    3    3  502    0 -0.42150040078E+02  0.34262925619E+02 -0.16059577946E+03  0.16959855050E+03  0.47000000000E+01 0. -1.
        -11    1    4    4    0    0 -0.76321433742E+00  0.80224979410E+01  0.16335112617E+02  0.18214798203E+02  0.00000000000E+00 0.  1.
         12    1    4    4    0    0  0.30527585468E+02  0.94466098314E+02 -0.88326538213E+02  0.13288097892E+03  0.00000000000E+00 0. -1.
         -5    1    5    5    0  501 -0.38709209208E+02 -0.90355245812E+01  0.12326357263E+03  0.12959954444E+03  0.47000000000E+01 0.  1.
         11    1    6    6    0    0 -0.36393366621E+01  0.29493203829E+01 -0.64536613252E+01  0.79745223407E+01  0.00000000000E+00 0. -1.
        -12    1    6    6    0    0  0.54734214817E+02 -0.13066531768E+03  0.10998039457E+03  0.17934588566E+03  0.00000000000E+00 0.  1.
</event>
<event>
12    1  0.2685360E-002  0.2704258E+03  0.7818608E-02  0.1101036E+00
          2   -1    0    0  502    0  0.00000000000E+00  0.00000000000E+00  0.18322981267E+04  0.18322981267E+04  0.00000000000E+00 0.  1.
         -2   -1    0    0    0  501 -0.00000000000E+00 -0.00000000000E+00 -0.58317679239E+02  0.58317679239E+02  0.00000000000E+00 0. -1.
          6    2    1    2  502    0  0.20636354307E+03 -0.28268845610E+02  0.14176850963E+04  0.14432153558E+04  0.17220479474E+03 0.  0.
         24    2    3    3    0    0  0.20989119696E+03  0.16316715543E+02  0.12242905776E+04  0.12446609641E+04  0.77284845183E+02 0.  0.
         -6    2    1    2    0  501 -0.20636354307E+03  0.28268845610E+02  0.35629535118E+03  0.44740045019E+03  0.17273026953E+03 0.  0.
        -24    2    5    5    0    0 -0.20856222482E+03  0.61630534240E+02  0.33636085596E+03  0.40819189794E+03  0.78647795580E+02 0.  0.
          5    1    3    3  502    0 -0.35276538831E+01 -0.44585561153E+02  0.19339451870E+03  0.19855439171E+03  0.47000000000E+01 0. -1.
        -11    1    4    4    0    0  0.12302494608E+03  0.37226289997E+01  0.91206001789E+03  0.92032737195E+03  0.00000000000E+00 0.  1.
         12    1    4    4    0    0  0.86866250873E+02  0.12594086543E+02  0.31223055973E+03  0.32433359214E+03  0.00000000000E+00 0. -1.
         -5    1    5    5    0  501  0.21986817453E+01 -0.33361688630E+02  0.19934495228E+02  0.39208552251E+02  0.47000000000E+01 0.  1.
         11    1    6    6    0    0 -0.11413332735E+03  0.48127287693E+02  0.12339954388E+03  0.17484307153E+03  0.00000000000E+00 0. -1.
        -12    1    6    6    0    0 -0.94428897473E+02  0.13503246546E+02  0.21296131207E+03  0.23334882641E+03  0.00000000000E+00 0.  1.
</event>
<event>
12    1  0.2685360E-002  0.1916817E+03  0.7818608E-02  0.1156953E+00
          2   -1    0    0  502    0  0.00000000000E+00  0.00000000000E+00  0.68900150125E+03  0.68900150125E+03  0.00000000000E+00 0.  1.
         -2   -1    0    0    0  501 -0.00000000000E+00 -0.00000000000E+00 -0.54109698988E+02  0.54109698988E+02  0.00000000000E+00 0. -1.
          6    2    1    2  502    0 -0.77411623015E+02 -0.42163332711E+02  0.27228961226E+03  0.33283284747E+03  0.16989928020E+03 0.  0.
         24    2    3    3    0    0 -0.50195334778E+02 -0.70556541372E+02  0.26781143229E+03  0.29297002345E+03  0.81306052730E+02 0.  0.
         -6    2    1    2    0  501  0.77411623015E+02  0.42163332711E+02  0.36260219001E+03  0.41027835277E+03  0.17052176561E+03 0.  0.
        -24    2    5    5    0    0  0.67247881458E+02 -0.30079771109E+02  0.15738639963E+03  0.19242983128E+03  0.82654043990E+02 0.  0.
          5    1    3    3  502    0 -0.27216288237E+02  0.28393208661E+02  0.44781799652E+01  0.39862824025E+02  0.47000000000E+01 0. -1.
        -11    1    4    4    0    0 -0.12629476586E+02 -0.28583884207E+02  0.20978596952E+03  0.21210067214E+03  0.00000000000E+00 0.  1.
         12    1    4    4    0    0 -0.37565858193E+02 -0.41972657164E+02  0.58025462767E+02  0.80869351305E+02  0.00000000000E+00 0. -1.
         -5    1    5    5    0  501  0.10163741557E+02  0.72243103820E+02  0.20521579038E+03  0.21784852149E+03  0.47000000000E+01 0.  1.
         13    1    6    6    0    0  0.69731081454E+02 -0.42856143172E+02  0.81747928126E+02  0.11567971508E+03  0.00000000000E+00 0. -1.
        -14    1    6    6    0    0 -0.24831999954E+01  0.12776372063E+02  0.75638471506E+02  0.76750116202E+02  0.00000000000E+00 0.  1.
</event>
<event>
12    1  0.2685360E-002  0.2064761E+03  0.7818608E-02  0.1144387E+00
          4   -1    0    0  502    0  0.00000000000E+00  0.00000000000E+00  0.14960127013E+03  0.14960127013E+03  0.00000000000E+00 0.  1.
         -4   -1    0    0    0  501 -0.00000000000E+00 -0.00000000000E+00 -0.28834937964E+03  0.28834937964E+03  0.00000000000E+00 0. -1.
          6    2    1    2  502    0  0.80167382473E+02  0.79251074155E+02 -0.93304840348E+02  0.22726801443E+03  0.17388908874E+03 0.  0.
         24    2    3    3    0    0  0.11694631026E+03  0.93664536936E+02 -0.84940673308E+02  0.18661722442E+03  0.71844175155E+02 0.  0.
         -6    2    1    2    0  501 -0.80167382473E+02 -0.79251074155E+02 -0.45443269164E+02  0.21068263534E+03  0.17208875662E+03 0.  0.
        -24    2    5    5    0    0 -0.63241832585E+02 -0.11979289533E+02 -0.82973246657E+02  0.13167278497E+03  0.79436325911E+02 0.  0.
          5    1    3    3  502    0 -0.36778927789E+02 -0.14413462781E+02 -0.83641670399E+01  0.40650790016E+02  0.47000000000E+01 0. -1.
        -11    1    4    4    0    0  0.24310429897E+02  0.47998323720E+01  0.10239838757E+02  0.26812118349E+02  0.00000000000E+00 0.  1.
         12    1    4    4    0    0  0.92635880364E+02  0.88864704564E+02 -0.95180512065E+02  0.15980510607E+03  0.00000000000E+00 0. -1.
         -5    1    5    5    0  501 -0.16925549888E+02 -0.67271784622E+02  0.37529977492E+02  0.79009850372E+02  0.47000000000E+01 0.  1.
         11    1    6    6    0    0  0.57505933638E+01  0.18695385548E+02 -0.40660951894E+02  0.45120946065E+02  0.00000000000E+00 0. -1.
        -12    1    6    6    0    0 -0.68992425948E+02 -0.30674675081E+02 -0.42312294763E+02  0.86551838904E+02  0.00000000000E+00 0.  1.
</event>
<event>
12    1  0.2685360E-002  0.1779095E+03  0.7818608E-02  0.1169842E+00
         -2   -1    0    0    0  501 -0.00000000000E+00  0.00000000000E+00  0.11789955881E+03  0.11789955881E+03  0.00000000000E+00 0. -1.
          2   -1    0    0  502    0  0.00000000000E+00 -0.00000000000E+00 -0.35182990297E+03  0.35182990297E+03  0.00000000000E+00 0.  1.
          6    2    1    2  502    0 -0.62173087554E+00 -0.44086165227E+02 -0.23124238682E+03  0.29170226413E+03  0.17225908663E+03 0.  0.
         24    2    3    3    0    0 -0.14323606643E+01  0.25449228802E+02 -0.19624719264E+03  0.21371135595E+03  0.80683753887E+02 0.  0.
         -6    2    1    2    0  501  0.62173087554E+00  0.44086165227E+02 -0.26879573454E+01  0.17802719764E+03  0.17246008661E+03 0.  0.
        -24    2    5    5    0    0 -0.66111214810E+02  0.41578357399E+02 -0.26766086914E+01  0.11108195682E+03  0.78946718547E+02 0.  0.
          5    1    3    3  502    0  0.81062978874E+00 -0.69535394028E+02 -0.34995194177E+02  0.77990908181E+02  0.47000000000E+01 0. -1.
        -11    1    4    4    0    0 -0.87481756460E+01  0.49833041131E+02 -0.79601873955E+02  0.94320310128E+02  0.00000000000E+00 0.  1.
         12    1    4    4    0    0  0.73158149817E+01 -0.24383812329E+02 -0.11664531868E+03  0.11939104582E+03  0.00000000000E+00 0. -1.
         -5    1    5    5    0  501  0.66732945686E+02  0.25078078275E+01 -0.11348653977E-01  0.66945240822E+02  0.47000000000E+01 0.  1.
         11    1    6    6    0    0 -0.42995653453E+02  0.50360058743E+02 -0.31312106110E+02  0.73247591916E+02  0.00000000000E+00 0. -1.
        -12    1    6    6    0    0 -0.23115561357E+02 -0.87817013437E+01  0.28635497419E+02  0.37834364905E+02  0.00000000000E+00 0.  1.
</event>
<event>
12    1  0.2685360E-002  0.2360049E+03  0.7818608E-02  0.1122483E+00
          1   -1    0    0  502    0  0.00000000000E+00  0.00000000000E+00  0.60024967593E+03  0.60024967593E+03  0.00000000000E+00 0. -1.
         -1   -1    0    0    0  501 -0.00000000000E+00 -0.00000000000E+00 -0.10980998601E+03  0.10980998601E+03  0.00000000000E+00 0.  1.
          6    2    1    2  502    0  0.38712372671E+02  0.15700551728E+03  0.10515825675E+03  0.25806385546E+03  0.17143311898E+03 0.  0.
         24    2    3    3    0    0  0.74283408621E+02  0.95672203029E+02  0.11641560270E+03  0.18612018394E+03  0.80105774371E+02 0.  0.
         -6    2    1    2    0  501 -0.38712372671E+02 -0.15700551728E+03  0.38528143317E+03  0.45199580647E+03  0.17236312270E+03 0.  0.
        -24    2    5    5    0    0 -0.61685558238E+02 -0.30379169089E+02  0.18970897849E+03  0.21783202972E+03  0.82056655082E+02 0.  0.
          5    1    3    3  502    0 -0.35571035949E+02  0.61333314248E+02 -0.11257345953E+02  0.71943671529E+02  0.47000000000E+01 0. -1.
        -11    1    4    4    0    0  0.20895949683E+02 -0.87362232268E+01  0.27640034838E+01  0.22816704948E+02  0.00000000000E+00 0.  1.
         12    1    4    4    0    0  0.53387458937E+02  0.10440842626E+03  0.11365159922E+03  0.16330347899E+03  0.00000000000E+00 0. -1.
         -5    1    5    5    0  501  0.22973185567E+02 -0.12662634819E+03  0.19557245468E+03  0.23416377675E+03  0.47000000000E+01 0.  1.
         11    1    6    6    0    0 -0.49716426189E+02 -0.97386451979E+00  0.17662906196E+03  0.18349522330E+03  0.00000000000E+00 0. -1.
        -12    1    6    6    0    0 -0.11969132048E+02 -0.29405304569E+02  0.13079916531E+02  0.34336806422E+02  0.00000000000E+00 0.  1.
</event>
<event>
12    1  0.2685360E-002  0.2104955E+03  0.7818608E-02  0.1141174E+00
          2   -1    0    0  502    0  0.00000000000E+00  0.00000000000E+00  0.63378583333E+03  0.63378583333E+03  0.00000000000E+00 0. -1.
         -2   -1    0    0    0  501 -0.00000000000E+00 -0.00000000000E+00 -0.85679058323E+02  0.85679058323E+02  0.00000000000E+00 0.  1.
          6    2    1    2  502    0 -0.11577863666E+03  0.39470923372E+02  0.42866573579E+03  0.47767862413E+03  0.17163888955E+03 0.  0.
         24    2    3    3    0    0 -0.11461226586E+03  0.60480622482E+02  0.21882349505E+03  0.26673165478E+03  0.80424974310E+02 0.  0.
         -6    2    1    2    0  501  0.11577863666E+03 -0.39470923372E+02  0.11944103921E+03  0.24178626753E+03  0.17097307044E+03 0.  0.
        -24    2    5    5    0    0  0.12591725460E+03  0.18004262299E+02  0.96016281132E+02  0.17872282461E+03  0.80891367432E+02 0.  0.
          5    1    3    3  502    0 -0.11663708008E+01 -0.21009699110E+02  0.20984224074E+03  0.21094696935E+03  0.47000000000E+01 0. -1.
        -13    1    4    4    0    0 -0.97917173795E+02  0.48436854579E+02  0.22050009092E+03  0.24607761358E+03  0.00000000000E+00 0.  1.
         14    1    4    4    0    0 -0.16695092066E+02  0.12043767903E+02 -0.16765958699E+01  0.20654041205E+02  0.00000000000E+00 0. -1.
         -5    1    5    5    0  501 -0.10138617943E+02 -0.57475185671E+02  0.23424758083E+02  0.63063442920E+02  0.47000000000E+01 0.  1.
         11    1    6    6    0    0  0.12979258387E+03  0.11966791715E+02  0.62693972581E+02  0.14463697013E+03  0.00000000000E+00 0. -1.
        -12    1    6    6    0    0 -0.38753292658E+01  0.60374705838E+01  0.33322308551E+02  0.34085854473E+02  0.00000000000E+00 0.  1.
</event>
<event>
12    1  0.2685360E-002  0.1784224E+03  0.7818608E-02  0.1169339E+00
         -2   -1    0    0    0  501 -0.00000000000E+00  0.00000000000E+00  0.13227517549E+03  0.13227517549E+03  0.00000000000E+00 0. -1.
          2   -1    0    0  502    0  0.00000000000E+00 -0.00000000000E+00 -0.24169709832E+03  0.24169709832E+03  0.00000000000E+00 0.  1.
          6    2    1    2  502    0  0.34948886258E+02 -0.27307165709E+02 -0.67088174146E+02  0.19123978759E+03  0.17350713904E+03 0.  0.
         24    2    3    3    0    0  0.74898745188E+02 -0.38694184271E+01 -0.87497305518E+02  0.14040729927E+03  0.80209954401E+02 0.  0.
         -6    2    1    2    0  501 -0.34948886258E+02  0.27307165709E+02 -0.42333748687E+02  0.18273248621E+03  0.17213921485E+03 0.  0.
        -24    2    5    5    0    0  0.14600275468E+02 -0.60413584568E+01  0.31478664416E+02  0.87666162944E+02  0.80279410538E+02 0.  0.
          5    1    3    3  502    0 -0.39949858930E+02 -0.23437747282E+02  0.20409131371E+02  0.50832488327E+02  0.47000000000E+01 0. -1.
        -13    1    4    4    0    0 -0.12543847043E+02 -0.14954166814E+02 -0.27736216749E+02  0.33915673712E+02  0.00000000000E+00 0.  1.
         14    1    4    4    0    0  0.87442592231E+02  0.11084748387E+02 -0.59761088768E+02  0.10649162556E+03  0.00000000000E+00 0. -1.
         -5    1    5    5    0  501 -0.49549161726E+02  0.33348524166E+02 -0.73812413103E+02  0.95066323269E+02  0.47000000000E+01 0.  1.
         11    1    6    6    0    0  0.30893399814E+02 -0.18087888519E+02 -0.13558497616E+02  0.38280631143E+02  0.00000000000E+00 0. -1.
        -12    1    6    6    0    0 -0.16293124346E+02  0.12046530062E+02  0.45037162031E+02  0.49385531802E+02  0.00000000000E+00 0.  1.
</event>
<event>
12    1  0.2685360E-002  0.2762263E+03  0.7818608E-02  0.1097768E+00
          2   -1    0    0  502    0  0.00000000000E+00  0.00000000000E+00  0.83928944845E+03  0.83928944845E+03  0.00000000000E+00 0. -1.
         -2   -1    0    0    0  501 -0.00000000000E+00 -0.00000000000E+00 -0.10646682737E+03  0.10646682737E+03  0.00000000000E+00 0.  1.
          6    2    1    2  502    0 -0.14399680396E+03 -0.16029608333E+03  0.18511127262E+03  0.33211362333E+03  0.17205627471E+03 0.  0.
         24    2    3    3    0    0 -0.13945522238E+03 -0.17508790751E+03  0.12404284794E+03  0.26894031790E+03  0.82696626658E+02 0.  0.
         -6    2    1    2    0  501  0.14399680396E+03  0.16029608333E+03  0.54771134847E+03  0.61364265249E+03  0.17360780464E+03 0.  0.
        -24    2    5    5    0    0  0.10088521748E+03  0.13727623035E+03  0.52838487821E+03  0.56087784440E+03  0.79817205512E+02 0.  0.
          5    1    3    3  502    0 -0.45415815803E+01  0.14791824184E+02  0.61068424681E+02  0.63173305430E+02  0.47000000000E+01 0. -1.
        -11    1    4    4    0    0 -0.41302699248E+02 -0.10777356842E+03  0.36011893169E+02  0.12090455519E+03  0.00000000000E+00 0.  1.
         12    1    4    4    0    0 -0.98152523128E+02 -0.67314339094E+02  0.88030954766E+02  0.14803576271E+03  0.00000000000E+00 0. -1.
         -5    1    5    5    0  501  0.43111586477E+02  0.23019852985E+02  0.19326470260E+02  0.52764808090E+02  0.47000000000E+01 0.  1.
         13    1    6    6    0    0 -0.76134899916E+01  0.13880538989E+02  0.11418255786E+03  0.11527485030E+03  0.00000000000E+00 0. -1.
        -14    1    6    6    0    0  0.10849870747E+03  0.12339569136E+03  0.41420232035E+03  0.44560299410E+03  0.00000000000E+00 0.  1.
</event>
<event>
12    1  0.2685360E-002  0.2187351E+03  0.7818608E-02  0.1134830E+00
          1   -1    0    0  502    0  0.00000000000E+00  0.00000000000E+00  0.17207865464E+04  0.17207865464E+04  0.00000000000E+00 0.  1.
         -1   -1    0    0    0  501 -0.00000000000E+00 -0.00000000000E+00 -0.27935404815E+02  0.27935404815E+02  0.00000000000E+00 0. -1.
          6    2    1    2  502    0  0.10334278588E+03  0.93973453922E+02  0.91649356717E+03  0.94292430471E+03  0.17214832066E+03 0.  0.
         24    2    3    3    0    0  0.10707243130E+03  0.30475024253E+02  0.40951226207E+03  0.43194671758E+03  0.80526029297E+02 0.  0.
         -6    2    1    2    0  501 -0.10334278588E+03 -0.93973453922E+02  0.77635757442E+03  0.80579764651E+03  0.16452362241E+03 0.  0.
        -24    2    5    5    0    0 -0.10985477130E+03 -0.38563361907E+02  0.39272070896E+03  0.41809670662E+03  0.83786020219E+02 0.  0.
          5    1    3    3  502    0 -0.37296454220E+01  0.63498429669E+02  0.50698130510E+03  0.51097758713E+03  0.47000000000E+01 0. -1.
        -13    1    4    4    0    0  0.68955349658E+01  0.35419333863E+02  0.13290667751E+03  0.13771805452E+03  0.00000000000E+00 0.  1.
         14    1    4    4    0    0  0.10017689633E+03 -0.49443096099E+01  0.27660558456E+03  0.29422866306E+03  0.00000000000E+00 0. -1.
         -5    1    5    5    0  501  0.65119854264E+01 -0.55410092015E+02  0.38363686546E+03  0.38770093989E+03  0.47000000000E+01 0.  1.
         11    1    6    6    0    0 -0.44518117721E+02  0.72843432793E+01  0.55307258080E+02  0.71370983311E+02  0.00000000000E+00 0. -1.
        -12    1    6    6    0    0 -0.65336653581E+02 -0.45847705186E+02  0.33741345088E+03  0.34672572331E+03  0.00000000000E+00 0.  1.
</event>
<event>
12    1  0.2685360E-002  0.1777073E+03  0.7818608E-02  0.1170041E+00
          1   -1    0    0  502    0  0.00000000000E+00  0.00000000000E+00  0.16711764076E+04  0.16711764076E+04  0.00000000000E+00 0.  1.
         -1   -1    0    0    0  501 -0.00000000000E+00 -0.00000000000E+00 -0.19396479027E+02  0.19396479027E+02  0.00000000000E+00 0. -1.
          6    2    1    2  502    0  0.24665498230E+02 -0.40586487469E+02  0.95999798297E+03  0.97624505905E+03  0.17088779437E+03 0.  0.
         24    2    3    3    0    0 -0.40452637030E+01 -0.40477906151E+02  0.92982565174E+03  0.93433110896E+03  0.82122186394E+02 0.  0.
         -6    2    1    2    0  501 -0.24665498230E+02  0.40586487469E+02  0.69178194563E+03  0.71432782759E+03  0.17159934501E+03 0.  0.
        -24    2    5    5    0    0  0.51561405149E+02  0.27064558044E+02  0.31422125906E+03  0.32888322014E+03  0.77705238174E+02 0.  0.
          5    1    3    3  502    0  0.28710761933E+02 -0.10858131788E+00  0.30172331225E+02  0.41913950091E+02  0.47000000000E+01 0. -1.
        -13    1    4    4    0    0 -0.25205417342E+02 -0.48898214832E+02  0.37249552866E+03  0.37653587790E+03  0.00000000000E+00 0.  1.
         14    1    4    4    0    0  0.21160153639E+02  0.84203086810E+01  0.55733012308E+03  0.55779523106E+03  0.00000000000E+00 0. -1.
         -5    1    5    5    0  501 -0.76226903379E+02  0.13521929425E+02  0.37756068657E+03  0.38544460746E+03  0.47000000000E+01 0.  1.
         11    1    6    6    0    0 -0.15665966438E+02  0.22203334424E+02  0.59791551663E+02  0.65676785962E+02  0.00000000000E+00 0. -1.
        -12    1    6    6    0    0  0.67227371586E+02  0.48612236198E+01  0.25442970740E+03  0.26320643417E+03  0.00000000000E+00 0.  1.
</event>
<event>
12    1  0.2685360E-002  0.1738241E+03  0.7818608E-02  0.1173918E+00
         -2   -1    0    0    0  501 -0.00000000000E+00  0.00000000000E+00  0.11964735679E+03  0.11964735679E+03  0.00000000000E+00 0.  1.
          2   -1    0    0  502    0  0.00000000000E+00 -0.00000000000E+00 -0.30274980252E+03  0.30274980252E+03  0.00000000000E+00 0. -1.
          6    2    1    2  502    0  0.24232000676E+02  0.11203604930E+02 -0.50327633676E+01  0.17273031908E+03  0.17058054931E+03 0.  0.
         24    2    3    3    0    0 -0.14078130474E+02  0.15942455865E+01  0.59551005313E+02  0.96880736930E+02  0.75092074001E+02 0.  0.
         -6    2    1    2    0  501 -0.24232000676E+02 -0.11203604930E+02 -0.17806968237E+03  0.24966684022E+03  0.17295088525E+03 0.  0.
        -24    2    5    5    0    0  0.17558588611E+02  0.34071614260E+02 -0.37114796257E+02  0.95762101038E+02  0.79521650899E+02 0.  0.
          5    1    3    3  502    0  0.38310131151E+02  0.96093593436E+01 -0.64583768681E+02  0.75849582153E+02  0.47000000000E+01 0.  1.
        -13    1    4    4    0    0 -0.38233429577E+02  0.13167802467E+02  0.57121350909E+02  0.69985962083E+02  0.00000000000E+00 0.  1.
         14    1    4    4    0    0  0.24155299102E+02 -0.11573556881E+02  0.24296544044E+01  0.26894774848E+02  0.00000000000E+00 0. -1.
         -5    1    5    5    0  501 -0.41790589287E+02 -0.45275219191E+02 -0.14095488611E+03  0.15390473919E+03  0.47000000000E+01 0.  1.
         13    1    6    6    0    0 -0.20673307885E+02  0.37337048172E+02 -0.38341080870E+02  0.57371415420E+02  0.00000000000E+00 0. -1.
        -14    1    6    6    0    0  0.38231896496E+02 -0.32654339111E+01  0.12262846124E+01  0.38390685618E+02  0.00000000000E+00 0.  1.
</event>
<event>
12    1  0.2685360E-002  0.2240970E+03  0.7818608E-02  0.1130865E+00
          2   -1    0    0  502    0  0.00000000000E+00  0.00000000000E+00  0.15544038086E+04  0.15544038086E+04  0.00000000000E+00 0.  1.
         -2   -1    0    0    0  501 -0.00000000000E+00 -0.00000000000E+00 -0.32334468357E+02  0.32334468357E+02  0.00000000000E+00 0. -1.
          6    2    1    2  502    0  0.22800767880E+02 -0.14164069610E+03  0.73578848786E+03  0.76893101673E+03  0.17113809575E+03 0.  0.
         24    2    3    3    0    0  0.67802085277E+02 -0.14214111487E+03  0.62261747276E+03  0.64704936247E+03  0.78861529174E+02 0.  0.
         -6    2    1    2    0  501 -0.22800767880E+02  0.14164069610E+03  0.78628085240E+03  0.81780726024E+03  0.17317382669E+03 0.  0.
        -24    2    5    5    0    0 -0.51148196915E+02  0.17335747307E+02  0.32318673603E+03  0.33745994044E+03  0.80702409342E+02 0.  0.
          5    1    3    3  502    0 -0.45001317396E+02  0.50041876996E+00  0.11317101510E+03  0.12188165426E+03  0.47000000000E+01 0. -1.
        -13    1    4    4    0    0  0.30275586344E+02 -0.61814462564E+02  0.42388306515E+03  0.42943508454E+03  0.00000000000E+00 0.  1.
         14    1    4    4    0    0  0.37526498933E+02 -0.80326652303E+02  0.19873440761E+03  0.21761427794E+03  0.00000000000E+00 0. -1.
         -5    1    5    5    0  501  0.28347429035E+02  0.12430494879E+03  0.46309411637E+03  0.48034731980E+03  0.47000000000E+01 0.  1.
         11    1    6    6    0    0  0.21949104318E+02  0.47364835534E+01  0.90074313043E+02  0.92830917947E+02  0.00000000000E+00 0. -1.
        -12    1    6    6    0    0 -0.73097301233E+02  0.12599263754E+02  0.23311242298E+03  0.24462902249E+03  0.00000000000E+00 0.  1.
</event>
<event>
12    1  0.2685360E-002  0.2008794E+03  0.7818608E-02  0.1148999E+00
         -1   -1    0    0    0  501 -0.00000000000E+00  0.00000000000E+00  0.18435767031E+04  0.18435767031E+04  0.00000000000E+00 0.  1.
          1   -1    0    0  502    0  0.00000000000E+00 -0.00000000000E+00 -0.22231120631E+02  0.22231120631E+02  0.00000000000E+00 0. -1.
          6    2    1    2  502    0  0.51484804316E+02 -0.84907165004E+02  0.10361121322E+04  0.10558385364E+04  0.17721950473E+03 0.  0.
         24    2    3    3    0    0  0.49855131443E+02  0.16043526026E+02  0.62836880239E+03  0.63575472238E+03  0.81202132701E+02 0.  0.
         -6    2    1    2    0  501 -0.51484804316E+02  0.84907165004E+02  0.78523345029E+03  0.80996928728E+03  0.17204291076E+03 0.  0.
        -24    2    5    5    0    0 -0.17352414623E+02  0.11449262586E+03  0.44496086378E+03  0.46667955156E+03  0.79937262163E+02 0.  0.
          5    1    3    3  502    0  0.16296728731E+01 -0.10095069103E+03  0.40774332976E+03  0.42008381404E+03  0.47000000000E+01 0. -1.
        -11    1    4    4    0    0  0.70847246752E+02  0.23006473298E+02  0.48997798449E+03  0.49560776374E+03  0.00000000000E+00 0.  1.
         12    1    4    4    0    0 -0.20992115310E+02 -0.69629472723E+01  0.13839081790E+03  0.14014695865E+03  0.00000000000E+00 0. -1.
         -5    1    5    5    0  501 -0.34132389692E+02 -0.29585460853E+02  0.34027258651E+03  0.34328973572E+03  0.47000000000E+01 0.  1.
         11    1    6    6    0    0 -0.42622413258E+02  0.38527383484E+02  0.13872759181E+03  0.15015450083E+03  0.00000000000E+00 0. -1.
        -12    1    6    6    0    0  0.25269998635E+02  0.75965242373E+02  0.30623327197E+03  0.31652505074E+03  0.00000000000E+00 0.  1.
</event>
<event>
12    1  0.2685360E-002  0.2120581E+03  0.7818608E-02  0.1139947E+00
         -2   -1    0    0    0  501 -0.00000000000E+00  0.00000000000E+00  0.21828595192E+02  0.21828595192E+02  0.00000000000E+00 0. -1.
          2   -1    0    0  502    0  0.00000000000E+00 -0.00000000000E+00 -0.29275530040E+04  0.29275530040E+04  0.00000000000E+00 0.  1.
          6    2    1    2  502    0  0.87902709458E+02 -0.86570246222E+02 -0.22568501277E+04  0.22668151387E+04  0.17279201428E+03 0.  0.
         24    2    3    3    0    0  0.10561620320E+03 -0.11645521806E+03 -0.19429557155E+04  0.19509691771E+04  0.80543265542E+02 0.  0.
         -6    2    1    2    0  501 -0.87902709458E+02  0.86570246222E+02 -0.64887428117E+03  0.68256646057E+03  0.17215645928E+03 0.  0.
        -24    2    5    5    0    0 -0.12255595731E+03  0.88153271672E+02 -0.58699675931E+03  0.61147306237E+03  0.80889731029E+02 0.  0.
          5    1    3    3  502    0 -0.17713493741E+02  0.29884971841E+02 -0.31389441221E+03  0.31584596154E+03  0.47000000000E+01 0. -1.
        -13    1    4    4    0    0  0.11852578060E+02 -0.32243359779E+02 -0.86320327406E+03  0.86388657254E+03  0.00000000000E+00 0.  1.
         14    1    4    4    0    0  0.93763625139E+02 -0.84211858284E+02 -0.10797524414E+04  0.10870826046E+04  0.00000000000E+00 0. -1.
         -5    1    5    5    0  501  0.34653247852E+02 -0.15830254507E+01 -0.61877521854E+02  0.71093398196E+02  0.47000000000E+01 0.  1.
         13    1    6    6    0    0  0.85650121681E+01  0.19322093736E+02 -0.46908839093E+02  0.51450383136E+02  0.00000000000E+00 0. -1.
        -14    1    6    6    0    0 -0.13112096948E+03  0.68831177936E+02 -0.54008792022E+03  0.56002267924E+03  0.00000000000E+00 0.  1.
</event>
<event>
12    1  0.2685360E-002  0.1908545E+03  0.7818608E-02  0.1157693E+00
          2   -1    0    0  502    0  0.00000000000E+00  0.00000000000E+00  0.62712833573E+02  0.62712833573E+02  0.00000000000E+00 0. -1.
         -2   -1    0    0    0  501 -0.00000000000E+00 -0.00000000000E+00 -0.64406711265E+03  0.64406711265E+03  0.00000000000E+00 0.  1.
          6    2    1    2  502    0 -0.52907161050E+02 -0.43804260463E+02 -0.39329163085E+03  0.43478895105E+03  0.17217765283E+03 0.  0.
         24    2    3    3    0    0  0.33677284556E+02 -0.50028901857E+02 -0.20198298398E+03  0.22465399263E+03  0.77686807592E+02 0.  0.
         -6    2    1    2    0  501  0.52907161050E+02  0.43804260463E+02 -0.18806264823E+03  0.27199099517E+03  0.18410203929E+03 0.  0.
        -24    2    5    5    0    0  0.49565610281E+02  0.45066807708E+02 -0.22715710908E+02  0.10653870698E+03  0.79666339712E+02 0.  0.
          5    1    3    3  502    0 -0.86584445606E+02  0.62246413935E+01 -0.19130864687E+03  0.21013495842E+03  0.47000000000E+01 0. -1.
        -13    1    4    4    0    0 -0.18224867080E+02 -0.29075933564E+00 -0.12797970283E+02  0.22271469741E+02  0.00000000000E+00 0.  1.
         14    1    4    4    0    0  0.51902151636E+02 -0.49738142521E+02 -0.18918501369E+03  0.20238252289E+03  0.00000000000E+00 0. -1.
         -5    1    5    5    0  501  0.33415507692E+01 -0.12625472443E+01 -0.16534693732E+03  0.16545228819E+03  0.47000000000E+01 0.  1.
         11    1    6    6    0    0 -0.20454564782E+01  0.51554669318E+02 -0.62214222995E+01  0.51968970704E+02  0.00000000000E+00 0. -1.
        -12    1    6    6    0    0  0.51611066759E+02 -0.64878616099E+01 -0.16494288608E+02  0.54569736274E+02  0.00000000000E+00 0.  1.
</event>
<event>
12    1  0.2685360E-002  0.1764048E+03  0.7818608E-02  0.1171329E+00
          2   -1    0    0  502    0  0.00000000000E+00  0.00000000000E+00  0.10464562550E+04  0.10464562550E+04  0.00000000000E+00 0.  1.
         -2   -1    0    0    0  501 -0.00000000000E+00 -0.00000000000E+00 -0.44766487981E+02  0.44766487981E+02  0.00000000000E+00 0. -1.
          6    2    1    2  502    0 -0.81508753497E-01  0.33557729518E+02  0.18649205565E+03  0.25735461891E+03  0.17414357640E+03 0.  0.
         24    2    3    3    0    0  0.35387086655E+00 -0.45213922405E+02  0.13643480892E+03  0.16390420076E+03  0.78776303164E+02 0.  0.
         -6    2    1    2    0  501  0.81508753497E-01 -0.33557729518E+02  0.81519771138E+03  0.83386812408E+03  0.17222837123E+03 0.  0.
        -24    2    5    5    0    0 -0.48559894373E+02  0.66904575031E+01  0.65002181647E+03  0.65697530648E+03  0.81764086724E+02 0.  0.
          5    1    3    3  502    0 -0.43537962005E+00  0.78771651923E+02  0.50057246730E+02  0.93450418149E+02  0.47000000000E+01 0. -1.
        -11    1    4    4    0    0  0.13064529869E+02 -0.29245509395E+02  0.13962043089E+03  0.14324750079E+03  0.00000000000E+00 0.  1.
         12    1    4    4    0    0 -0.12710659002E+02 -0.15968413010E+02 -0.31856219767E+01  0.20656699972E+02  0.00000000000E+00 0. -1.
         -5    1    5    5    0  501  0.48641403126E+02 -0.40248187021E+02  0.16517589492E+03  0.17689281760E+03  0.47000000000E+01 0.  1.
         13    1    6    6    0    0  0.15520588371E+02  0.20064769048E+02  0.28529619127E+03  0.28642171770E+03  0.00000000000E+00 0. -1.
        -14    1    6    6    0    0 -0.64080482743E+02 -0.13374311545E+02  0.36472562520E+03  0.37055358877E+03  0.00000000000E+00 0.  1.
</event>
<event>
12    1  0.2685360E-002  0.2817558E+03  0.7818608E-02  0.1094734E+00
          4   -1    0    0  502    0  0.00000000000E+00  0.00000000000E+00  0.76076077283E+03  0.76076077283E+03  0.00000000000E+00 0.  1.
         -4   -1    0    0    0  501 -0.00000000000E+00 -0.00000000000E+00 -0.16484927838E+03  0.16484927838E+03  0.00000000000E+00 0. -1.
          6    2    1    2  502    0  0.18012727748E+03 -0.11965382380E+03  0.21281549267E+02  0.28793070541E+03  0.18891350703E+03 0.  0.
         24    2    3    3    0    0  0.19796172565E+03 -0.88110083322E+02  0.55567211788E+02  0.23782410146E+03  0.80748725111E+02 0.  0.
         -6    2    1    2    0  501 -0.18012727748E+03  0.11965382380E+03  0.57462994519E+03  0.63767934579E+03  0.17225707678E+03 0.  0.
        -24    2    5    5    0    0 -0.13313536206E+03  0.11935507482E+02  0.26729277815E+03  0.30860534192E+03  0.76969778729E+02 0.  0.
          5    1    3    3  502    0 -0.17834448168E+02 -0.31543740480E+02 -0.34285662521E+02  0.50106603950E+02  0.47000000000E+01 0. -1.
        -13    1    4    4    0    0  0.22069268861E+02 -0.13038654267E+01  0.33917423860E+02  0.40486347507E+02  0.00000000000E+00 0.  1.
         14    1    4    4    0    0  0.17589245679E+03 -0.86806217895E+02  0.21649787927E+02  0.19733775396E+03  0.00000000000E+00 0. -1.
         -5    1    5    5    0  501 -0.46991915424E+02  0.10771831632E+03  0.30733716703E+03  0.32907400387E+03  0.47000000000E+01 0.  1.
         13    1    6    6    0    0 -0.20766300245E+02  0.40480331466E+01  0.12668703760E+03  0.12844154816E+03  0.00000000000E+00 0. -1.
        -14    1    6    6    0    0 -0.11236906181E+03  0.78874743358E+01  0.14060574056E+03  0.18016379376E+03  0.00000000000E+00 0.  1.
</event>
<event>
12    1  0.2685360E-002  0.1765549E+03  0.7818608E-02  0.1171179E+00
         -2   -1    0    0    0  501 -0.00000000000E+00  0.00000000000E+00  0.14738784413E+03  0.14738784413E+03  0.00000000000E+00 0. -1.
          2   -1    0    0  502    0  0.00000000000E+00 -0.00000000000E+00 -0.21289247295E+03  0.21289247295E+03  0.00000000000E+00 0.  1.
          6    2    1    2  502    0  0.38319729295E+02 -0.13311366456E+02 -0.47079405039E+02  0.18156784937E+03  0.17060134646E+03 0.  0.
         24    2    3    3    0    0  0.10065001474E+02 -0.41956106403E+02 -0.85517373583E+02  0.12572505040E+03  0.81436772981E+02 0.  0.
         -6    2    1    2    0  501 -0.38319729295E+02  0.13311366456E+02 -0.18425223785E+02  0.17871246771E+03  0.17306953260E+03 0.  0.
        -24    2    5    5    0    0 -0.45602603226E+02  0.64592776531E+01  0.52485454070E+02  0.10694614130E+03  0.81002682426E+02 0.  0.
          5    1    3    3  502    0  0.28254727821E+02  0.28644739947E+02  0.38437968545E+02  0.55842798969E+02  0.47000000000E+01 0. -1.
        -13    1    4    4    0    0 -0.30139367260E+02  0.42141174554E+01 -0.22349417374E+02  0.37757604555E+02  0.00000000000E+00 0.  1.
         14    1    4    4    0    0  0.40204368734E+02 -0.46170223858E+02 -0.63167956209E+02  0.87967445843E+02  0.00000000000E+00 0. -1.
         -5    1    5    5    0  501  0.72828739318E+01  0.68520888031E+01 -0.70910677855E+02  0.71766326418E+02  0.47000000000E+01 0.  1.
         13    1    6    6    0    0 -0.61174909628E+02 -0.17225867186E+02  0.27839005214E+02  0.69383789746E+02  0.00000000000E+00 0. -1.
        -14    1    6    6    0    0  0.15572306401E+02  0.23685144839E+02  0.24646448855E+02  0.37562351549E+02  0.00000000000E+00 0.  1.
</event>
<event>
12    1  0.2685360E-002  0.1982478E+03  0.7818608E-02  0.1151226E+00
         -2   -1    0    0    0  501 -0.00000000000E+00  0.00000000000E+00  0.67797339767E+02  0.67797339767E+02  0.00000000000E+00 0.  1.
          2   -1    0    0  502    0  0.00000000000E+00 -0.00000000000E+00 -0.59198196183E+03  0.59198196183E+03  0.00000000000E+00 0. -1.
          6    2    1    2  502    0  0.26574600112E+02  0.94494442143E+02 -0.21497171931E+03  0.29263507251E+03  0.17258921342E+03 0.  0.
         24    2    3    3    0    0  0.22832898053E+02  0.11984133277E+03 -0.10236036591E+03  0.17705015950E+03  0.77368134250E+02 0.  0.
         -6    2    1    2    0  501 -0.26574600112E+02 -0.94494442143E+02 -0.30921290275E+03  0.36714422909E+03  0.17189199156E+03 0.  0.
        -24    2    5    5    0    0  0.49075388991E+02 -0.48214920941E+02 -0.13294777077E+03  0.16977097435E+03  0.80087462028E+02 0.  0.
          5    1    3    3  502    0  0.37417020592E+01 -0.25346890625E+02 -0.11261135341E+03  0.11558491301E+03  0.47000000000E+01 0. -1.
        -11    1    4    4    0    0  0.32155107917E+02  0.39115333059E+02 -0.59858851699E+01  0.50988146336E+02  0.00000000000E+00 0.  1.
         12    1    4    4    0    0 -0.93222098641E+01  0.80725999709E+02 -0.96374480737E+02  0.12606201316E+03  0.00000000000E+00 0. -1.
         -5    1    5    5    0  501 -0.75649989104E+02 -0.46279521202E+02 -0.17626513198E+03  0.19737325474E+03  0.47000000000E+01 0.  1.
         13    1    6    6    0    0 -0.84500287501E+01  0.11851561186E+02 -0.20688313060E+01  0.14701787354E+02  0.00000000000E+00 0. -1.
        -14    1    6    6    0    0  0.57525417741E+02 -0.60066482127E+02 -0.13087893946E+03  0.15506918700E+03  0.00000000000E+00 0.  1.
</event>
<event>
12    1  0.2685360E-002  0.1964407E+03  0.7818608E-02  0.1152777E+00
          1   -1    0    0  502    0  0.00000000000E+00  0.00000000000E+00  0.85305894972E+02  0.85305894972E+02  0.00000000000E+00 0. -1.
         -1   -1    0    0    0  501 -0.00000000000E+00 -0.00000000000E+00 -0.73086575314E+03  0.73086575314E+03  0.00000000000E+00 0.  1.
          6    2    1    2  502    0  0.87372607232E+02  0.12521962920E+02 -0.73674513992E+02  0.21235648967E+03  0.17854011494E+03 0.  0.
         24    2    3    3    0    0  0.11685852756E+03  0.19891635207E+02 -0.97904167464E+02  0.17320425251E+03  0.79767753292E+02 0.  0.
         -6    2    1    2    0  501 -0.87372607232E+02 -0.12521962920E+02 -0.57188534418E+03  0.60381515845E+03  0.17247935131E+03 0.  0.
        -24    2    5    5    0    0  0.98968698232E+01  0.11167542415E+02 -0.36540614632E+03  0.37429763628E+03  0.79714532703E+02 0.  0.
          5    1    3    3  502    0 -0.29485920330E+02 -0.73696722875E+01  0.24229653472E+02  0.39152237161E+02  0.47000000000E+01 0. -1.
        -13    1    4    4    0    0  0.84542216934E+02 -0.23305128667E+02 -0.49367699564E+02  0.10063640110E+03  0.00000000000E+00 0.  1.
         14    1    4    4    0    0  0.32316310629E+02  0.43196763874E+02 -0.48536467900E+02  0.72567851409E+02  0.00000000000E+00 0. -1.
         -5    1    5    5    0  501 -0.97269477055E+02 -0.23689505334E+02 -0.20647919786E+03  0.22951752216E+03  0.47000000000E+01 0.  1.
         11    1    6    6    0    0  0.69286437529E+01  0.39314398300E+02 -0.10457684521E+03  0.11193723497E+03  0.00000000000E+00 0. -1.
        -12    1    6    6    0    0  0.29682260703E+01 -0.28146855885E+02 -0.26082930111E+03  0.26236040132E+03  0.00000000000E+00 0.  1.
</event>
<event>
12    1  0.2685360E-002  0.1885961E+03  0.7818608E-02  0.1159734E+00
         -2   -1    0    0    0  501 -0.00000000000E+00  0.00000000000E+00  0.94524822999E+02  0.94524822999E+02  0.00000000000E+00 0.  1.
          2   -1    0    0  502    0  0.00000000000E+00 -0.00000000000E+00 -0.11221626068E+04  0.11221626068E+04  0.00000000000E+00 0. -1.
          6    2    1    2  502    0 -0.74732575713E+02 -0.21061046142E+02 -0.17751561154E+02  0.18932212292E+03  0.17175337774E+03 0.  0.
         24    2    3    3    0    0  0.24235220427E+02 -0.30678192945E+02 -0.17186856415E+02  0.89775535448E+02  0.78966836711E+02 0.  0.
         -6    2    1    2    0  501  0.74732575713E+02  0.21061046142E+02 -0.10098862227E+04  0.10273653069E+04  0.17199059729E+03 0.  0.
        -24    2    5    5    0    0  0.74169084608E+02 -0.48512939067E+02 -0.66574521190E+03  0.67623003064E+03  0.78840400877E+02 0.  0.
          5    1    3    3  502    0 -0.98967796140E+02  0.96171468028E+01 -0.56470473902E+00  0.99546587469E+02  0.47000000000E+01 0. -1.
        -11    1    4    4    0    0 -0.13460892800E+02  0.10373104053E+01  0.22685071097E+02  0.26398562433E+02  0.00000000000E+00 0.  1.
         12    1    4    4    0    0  0.37696113226E+02 -0.31715503350E+02 -0.39871927512E+02  0.63376973016E+02  0.00000000000E+00 0. -1.
         -5    1    5    5    0  501  0.56349110476E+00  0.69573985209E+02 -0.34414101079E+03  0.35113527628E+03  0.47000000000E+01 0.  1.
         11    1    6    6    0    0  0.34868079752E+02 -0.20836865029E+02 -0.54133355683E+03  0.54285539297E+03  0.00000000000E+00 0. -1.
        -12    1    6    6    0    0  0.39301004857E+02 -0.27676074038E+02 -0.12441165507E+03  0.13337463767E+03  0.00000000000E+00 0.  1.
</event>
<event>
12    1  0.2685360E-002  0.3341630E+03  0.7818608E-02  0.1069310E+00
          2   -1    0    0  502    0  0.00000000000E+00  0.00000000000E+00  0.61199397193E+03  0.61199397193E+03  0.00000000000E+00 0.  1.
         -2   -1    0    0    0  501 -0.00000000000E+00 -0.00000000000E+00 -0.18835269802E+03  0.18835269802E+03  0.00000000000E+00 0. -1.
          6    2    1    2  502    0  0.24275702851E+03 -0.15240768573E+03  0.14113340046E+03  0.36287806798E+03  0.17205457837E+03 0.  0.
         24    2    3    3    0    0  0.22174240029E+03 -0.14928845631E+03  0.69154460669E+02  0.28768231036E+03  0.80759129460E+02 0.  0.
         -6    2    1    2    0  501 -0.24275702851E+03  0.15240768573E+03  0.28250787345E+03  0.43746860196E+03  0.17149052912E+03 0.  0.
        -24    2    5    5    0    0 -0.58058645966E+02  0.99026874843E+02  0.10479806918E+03  0.17561775124E+03  0.81742467154E+02 0.  0.
          5    1    3    3  502    0  0.21014628227E+02 -0.31192294189E+01  0.71978939789E+02  0.75195757625E+02  0.47000000000E+01 0. -1.
        -13    1    4    4    0    0  0.95466305135E+02 -0.65813525986E+02  0.71621062688E+02  0.13628944288E+03  0.00000000000E+00 0.  1.
         14    1    4    4    0    0  0.12627609515E+03 -0.83474930321E+02 -0.24666020198E+01  0.15139286748E+03  0.00000000000E+00 0. -1.
         -5    1    5    5    0  501 -0.18469838255E+03  0.53380810884E+02  0.17770980428E+03  0.26185085072E+03  0.47000000000E+01 0.  1.
         13    1    6    6    0    0 -0.37832973110E+02  0.82766916679E+02  0.29019523156E+02  0.95518736775E+02  0.00000000000E+00 0. -1.
        -14    1    6    6    0    0 -0.20225672857E+02  0.16259958164E+02  0.75778546021E+02  0.80099014470E+02  0.00000000000E+00 0.  1.
</event>
<event>
12    1  0.2685360E-002  0.1733582E+03  0.7818608E-02  0.1174390E+00
         -2   -1    0    0    0  501 -0.00000000000E+00  0.00000000000E+00  0.20564753159E+02  0.20564753159E+02  0.00000000000E+00 0. -1.
          2   -1    0    0  502    0  0.00000000000E+00 -0.00000000000E+00 -0.14962101200E+04  0.14962101200E+04  0.00000000000E+00 0.  1.
          6    2    1    2  502    0 -0.40916094891E+01 -0.29395538967E+01 -0.62149115386E+03  0.64517551714E+03  0.17313235209E+03 0.  0.
         24    2    3    3    0    0 -0.35092464929E+02  0.86807774213E+01 -0.59776307360E+03  0.60417311561E+03  0.79985151600E+02 0.  0.
         -6    2    1    2    0  501  0.40916094891E+01  0.29395538967E+01 -0.85415421296E+03  0.87159935600E+03  0.17343769953E+03 0.  0.
        -24    2    5    5    0    0 -0.30929475839E+02 -0.31933199678E+02 -0.26250263808E+03  0.27786855722E+03  0.79542054140E+02 0.  0.
          5    1    3    3  502    0  0.31000855440E+02 -0.11620331318E+02 -0.23728080257E+02  0.41002401523E+02  0.47000000000E+01 0. -1.
        -13    1    4    4    0    0  0.11537934949E+02  0.18024400851E+02 -0.40732071136E+03  0.40788253808E+03  0.00000000000E+00 0.  1.
         14    1    4    4    0    0 -0.46630399878E+02 -0.93436234296E+01 -0.19044236225E+03  0.19629057754E+03  0.00000000000E+00 0. -1.
         -5    1    5    5    0  501  0.35021085329E+02  0.34872753575E+02 -0.59165157487E+03  0.59373079877E+03  0.47000000000E+01 0.  1.
         11    1    6    6    0    0  0.14130868988E+01  0.29454242760E+00  0.56628534968E+01  0.58439267236E+01  0.00000000000E+00 0. -1.
        -12    1    6    6    0    0 -0.32342562738E+02 -0.32227742106E+02 -0.26816549158E+03  0.27202463050E+03  0.00000000000E+00 0.  1.
</event>
<event>
12    1  0.2685360E-002  0.2256933E+03  0.7818608E-02  0.1129708E+00
         -2   -1    0    0    0  501 -0.00000000000E+00  0.00000000000E+00  0.29413750509E+02  0.29413750509E+02  0.00000000000E+00 0.  1.
          2   -1    0    0  502    0  0.00000000000E+00 -0.00000000000E+00 -0.17499997232E+04  0.17499997232E+04  0.00000000000E+00 0. -1.
          6    2    1    2  502    0 -0.13082812479E+03  0.63245533507E+02 -0.77320147696E+03  0.80574097050E+03  0.17395974194E+03 0.  0.
         24    2    3    3    0    0 -0.94191878054E+02  0.76044910434E+02 -0.74154042124E+03  0.75543638746E+03  0.78402811698E+02 0.  0.
         -6    2    1    2    0  501  0.13082812479E+03 -0.63245533507E+02 -0.94738449574E+03  0.97367250323E+03  0.17141985015E+03 0.  0.
        -24    2    5    5    0    0  0.15481955810E+03 -0.60003448052E+02 -0.91274933581E+03  0.93115445654E+03  0.79798261704E+02 0.  0.
          5    1    3    3  502    0 -0.36636246732E+02 -0.12799376927E+02 -0.31661055726E+02  0.50304583032E+02  0.47000000000E+01 0. -1.
        -11    1    4    4    0    0 -0.48362979859E+02  0.62599658953E+02 -0.26626948945E+03  0.27777173387E+03  0.00000000000E+00 0.  1.
         12    1    4    4    0    0 -0.45828898195E+02  0.13445251480E+02 -0.47527093178E+03  0.47766465360E+03  0.00000000000E+00 0. -1.
         -5    1    5    5    0  501 -0.23991433311E+02 -0.32420854548E+01 -0.34635159931E+02  0.42518046684E+02  0.47000000000E+01 0.  1.
         13    1    6    6    0    0  0.52826643503E+02  0.13123864438E+02 -0.19227294242E+03  0.19982936338E+03  0.00000000000E+00 0. -1.
        -14    1    6    6    0    0  0.10199291459E+03 -0.73127312490E+02 -0.72047639338E+03  0.73132509316E+03  0.00000000000E+00 0.  1.
</event>
<event>
12    1  0.2685360E-002  0.2362259E+03  0.7818608E-02  0.1122333E+00
         -1   -1    0    0    0  501 -0.00000000000E+00  0.00000000000E+00  0.10182092738E+03  0.10182092738E+03  0.00000000000E+00 0.  1.
          1   -1    0    0  502    0  0.00000000000E+00 -0.00000000000E+00 -0.58715497654E+03  0.58715497654E+03  0.00000000000E+00 0. -1.
          6    2    1    2  502    0  0.12958228489E+03 -0.98012043921E+02 -0.15387011301E+03  0.28201449569E+03  0.17163401409E+03 0.  0.
         24    2    3    3    0    0  0.39002393909E+02  0.31343983911E+01 -0.18381107549E+02  0.90142976069E+02  0.79100441439E+02 0.  0.
         -6    2    1    2    0  501 -0.12958228489E+03  0.98012043921E+02 -0.33146393615E+03  0.40696140823E+03  0.17132226215E+03 0.  0.
        -24    2    5    5    0    0 -0.11072775192E+03  0.12892062618E+03 -0.31504102280E+03  0.36692847237E+03  0.80650448765E+02 0.  0.
          5    1    3    3  502    0  0.90579890976E+02 -0.10114644231E+03 -0.13548900546E+03  0.19187151962E+03  0.47000000000E+01 0. -1.
        -11    1    4    4    0    0 -0.31312281509E+01 -0.28775209282E+02  0.94000753607E+01  0.30433183793E+02  0.00000000000E+00 0.  1.
         12    1    4    4    0    0  0.42133622060E+02  0.31909607673E+02 -0.27781182910E+02  0.59709792276E+02  0.00000000000E+00 0. -1.
         -5    1    5    5    0  501 -0.18854532961E+02 -0.30908582261E+02 -0.16422913347E+02  0.40032935858E+02  0.47000000000E+01 0.  1.
         13    1    6    6    0    0 -0.45210561758E+02  0.35836187262E+01 -0.96363859548E+02  0.10650272600E+03  0.00000000000E+00 0. -1.
        -14    1    6    6    0    0 -0.65517190166E+02  0.12533700746E+03 -0.21867716326E+03  0.26042574638E+03  0.00000000000E+00 0.  1.
</event>
<event>
12    1  0.2685360E-002  0.1835091E+03  0.7818608E-02  0.1164449E+00
          2   -1    0    0  502    0  0.00000000000E+00  0.00000000000E+00  0.61991239763E+03  0.61991239763E+03  0.00000000000E+00 0. -1.
         -2   -1    0    0    0  501 -0.00000000000E+00 -0.00000000000E+00 -0.62686218712E+02  0.62686218712E+02  0.00000000000E+00 0.  1.
          6    2    1    2  502    0  0.23421268839E+02  0.60353115230E+02  0.40262990714E+03  0.44227594214E+03  0.17119028162E+03 0.  0.
         24    2    3    3    0    0 -0.37975651950E+02  0.61098944608E+02  0.17695707609E+03  0.20835190571E+03  0.83195424534E+02 0.  0.
         -6    2    1    2    0  501 -0.23421268839E+02 -0.60353115230E+02  0.15459627177E+03  0.24032267420E+03  0.17223218670E+03 0.  0.
        -24    2    5    5    0    0  0.13184982899E+02 -0.27951137586E+02  0.13515295315E+02  0.90937809702E+02  0.84450649255E+02 0.  0.
          5    1    3    3  502    0  0.61396920789E+02 -0.74582937762E+00  0.22567283106E+03  0.23392403643E+03  0.47000000000E+01 0. -1.
        -11    1    4    4    0    0 -0.13848556931E+02 -0.13698193279E+02  0.63079838577E+01  0.20474708509E+02  0.00000000000E+00 0.  1.
         12    1    4    4    0    0 -0.24127095019E+02  0.74797137887E+02  0.17064909223E+03  0.18787719720E+03  0.00000000000E+00 0. -1.
         -5    1    5    5    0  501 -0.36606251738E+02 -0.32401977644E+02  0.14108097646E+03  0.14938486450E+03  0.47000000000E+01 0.  1.
         11    1    6    6    0    0 -0.33004626360E+02 -0.27178139891E+02  0.13181738996E+02  0.44740528518E+02  0.00000000000E+00 0. -1.
        -12    1    6    6    0    0  0.46189609260E+02 -0.77299769521E+00  0.33355631859E+00  0.46197281184E+02  0.00000000000E+00 0.  1.
</event>
<event>
12    1  0.2685360E-002  0.1822849E+03  0.7818608E-02  0.1165610E+00
          2   -1    0    0  502    0  0.00000000000E+00  0.00000000000E+00  0.37168193927E+03  0.37168193927E+03  0.00000000000E+00 0. -1.
         -2   -1    0    0    0  501 -0.00000000000E+00 -0.00000000000E+00 -0.90939119539E+02  0.90939119539E+02  0.00000000000E+00 0.  1.
          6    2    1    2  502    0  0.49541040994E+02 -0.34061533862E+02  0.17028469642E+03  0.24926250001E+03  0.17181505536E+03 0.  0.
         24    2    3    3    0    0  0.72672263225E+02 -0.75711595195E+02  0.14320969924E+03  0.19426316799E+03  0.78839438047E+02 0.  0.
         -6    2    1    2    0  501 -0.49541040994E+02  0.34061533862E+02  0.11045812331E+03  0.21335855879E+03  0.17235537350E+03 0.  0.
        -24    2    5    5    0    0 -0.23509670461E+02  0.98811994755E+01  0.14221852168E+03  0.16547188291E+03  0.80650439652E+02 0.  0.
          5    1    3    3  502    0 -0.23131222231E+02  0.41650061333E+02  0.27074997181E+02  0.54999332026E+02  0.47000000000E+01 0. -1.
        -13    1    4    4    0    0  0.17676935196E+02 -0.58369983906E+02  0.31720164784E+02  0.68743711807E+02  0.00000000000E+00 0.  1.
         14    1    4    4    0    0  0.54995328029E+02 -0.17341611289E+02  0.11148953445E+03  0.12551945618E+03  0.00000000000E+00 0. -1.
         -5    1    5    5    0  501 -0.26031370533E+02  0.24180334387E+02 -0.31760398368E+02  0.47886675886E+02  0.47000000000E+01 0.  1.
         13    1    6    6    0    0 -0.25587020261E+02  0.28186517944E+02  0.14203515398E+03  0.14704815663E+03  0.00000000000E+00 0. -1.
        -14    1    6    6    0    0  0.20773498003E+01 -0.18305318468E+02  0.18336769544E+00  0.18423726283E+02  0.00000000000E+00 0.  1.
</event>
<event>
12    1  0.2685360E-002  0.2311886E+03  0.7818608E-02  0.1125806E+00
          1   -1    0    0  502    0  0.00000000000E+00  0.00000000000E+00  0.87310407429E+03  0.87310407429E+03  0.00000000000E+00 0.  1.
         -1   -1    0    0    0  501 -0.00000000000E+00 -0.00000000000E+00 -0.61999547955E+02  0.61999547955E+02  0.00000000000E+00 0. -1.
          6    2    1    2  502    0 -0.15307519886E+03  0.90192395085E+01  0.45697224204E+03  0.51183432203E+03  0.17215510454E+03 0.  0.
         24    2    3    3    0    0 -0.25745505763E+02 -0.11669160655E+02  0.28367789884E+03  0.29574665456E+03  0.78701543929E+02 0.  0.
         -6    2    1    2    0  501  0.15307519886E+03 -0.90192395085E+01  0.35413228429E+03  0.42326930021E+03  0.17387887319E+03 0.  0.
        -24    2    5    5    0    0  0.12186375850E+03 -0.98348633850E+01  0.12559398689E+03  0.19256025699E+03  0.79737712866E+02 0.  0.
          5    1    3    3  502    0 -0.12732969309E+03  0.20688400164E+02  0.17329434321E+03  0.21608766747E+03  0.47000000000E+01 0. -1.
        -13    1    4    4    0    0 -0.11079818796E+02 -0.38611081810E+02  0.23354025793E+03  0.23696968181E+03  0.00000000000E+00 0.  1.
         14    1    4    4    0    0 -0.14665686968E+02  0.26941921155E+02  0.50137640906E+02  0.58776972747E+02  0.00000000000E+00 0. -1.
         -5    1    5    5    0  501  0.31211440360E+02  0.81562387649E+00  0.22853829739E+03  0.23070904323E+03  0.47000000000E+01 0.  1.
         13    1    6    6    0    0  0.60325551364E+02  0.16859264051E+02  0.10522561395E+03  0.12245748961E+03  0.00000000000E+00 0. -1.
        -14    1    6    6    0    0  0.61538207134E+02 -0.26694127436E+02  0.20368372949E+02  0.70102767374E+02  0.00000000000E+00 0.  1.
</event>
<event>
12    1  0.2685360E-002  0.1715775E+03  0.7818608E-02  0.1176213E+00
         -1   -1    0    0    0  501 -0.00000000000E+00  0.00000000000E+00  0.14676644816E+03  0.14676644816E+03  0.00000000000E+00 0. -1.
          1   -1    0    0  502    0  0.00000000000E+00 -0.00000000000E+00 -0.21256646753E+03  0.21256646753E+03  0.00000000000E+00 0.  1.
          6    2    1    2  502    0  0.64097691183E+01 -0.20610289602E+02 -0.75887868616E+02  0.18958297152E+03  0.17238580368E+03 0.  0.
         24    2    3    3    0    0 -0.11248381005E+02 -0.59492662143E+01 -0.12037698509E+03  0.13930248467E+03  0.68939421612E+02 0.  0.
         -6    2    1    2    0  501 -0.64097691183E+01  0.20610289602E+02  0.10087849256E+02  0.16974994417E+03  0.16806965718E+03 0.  0.
        -24    2    5    5    0    0 -0.38712432619E+01  0.20500165341E+02  0.71259556206E+02  0.10834535174E+03  0.78902139319E+02 0.  0.
          5    1    3    3  502    0  0.17658150124E+02 -0.14661023387E+02  0.44489116477E+02  0.50280486846E+02  0.47000000000E+01 0. -1.
        -13    1    4    4    0    0  0.25110450988E+02  0.48002170195E-01 -0.83402215619E+02  0.87100325047E+02  0.00000000000E+00 0.  1.
         14    1    4    4    0    0 -0.36358831993E+02 -0.59972683845E+01 -0.36974769474E+02  0.52202159626E+02  0.00000000000E+00 0. -1.
         -5    1    5    5    0  501 -0.25385258564E+01  0.11012426108E+00 -0.61171706949E+02  0.61404592434E+02  0.47000000000E+01 0.  1.
         11    1    6    6    0    0  0.22113020694E+02 -0.13953309621E+02  0.57310417382E+02  0.62993368493E+02  0.00000000000E+00 0. -1.
        -12    1    6    6    0    0 -0.25984263956E+02  0.34453474962E+02  0.13949138823E+02  0.45351983244E+02  0.00000000000E+00 0.  1.
</event>
<event>
12    1  0.2685360E-002  0.1878874E+03  0.7818608E-02  0.1160381E+00
          1   -1    0    0  502    0  0.00000000000E+00  0.00000000000E+00  0.98087372968E+03  0.98087372968E+03  0.00000000000E+00 0.  1.
         -1   -1    0    0    0  501 -0.00000000000E+00 -0.00000000000E+00 -0.38611306572E+02  0.38611306572E+02  0.00000000000E+00 0. -1.
          6    2    1    2  502    0 -0.62804674696E+02 -0.41668696247E+02  0.33805614806E+03  0.38670649875E+03  0.17198618992E+03 0.  0.
         24    2    3    3    0    0  0.57144207403E+01 -0.71323830289E+02  0.16816502526E+03  0.20107412813E+03  0.83854552128E+02 0.  0.
         -6    2    1    2    0  501  0.62804674696E+02  0.41668696247E+02  0.60420627504E+03  0.63277853750E+03  0.17222876446E+03 0.  0.
        -24    2    5    5    0    0  0.30163230722E+02  0.62782869154E+02  0.19651896020E+03  0.22321497851E+03  0.79710198648E+02 0.  0.
          5    1    3    3  502    0 -0.68519095436E+02  0.29655134042E+02  0.16989112281E+03  0.18563237062E+03  0.47000000000E+01 0. -1.
        -13    1    4    4    0    0  0.39068593322E+02 -0.35244098111E+02  0.12518711355E+03  0.13579512080E+03  0.00000000000E+00 0.  1.
         14    1    4    4    0    0 -0.33354172582E+02 -0.36079732178E+02  0.42977911709E+02  0.65279007327E+02  0.00000000000E+00 0. -1.
         -5    1    5    5    0  501  0.32641443974E+02 -0.21114172907E+02  0.40768731485E+03  0.40956355899E+03  0.47000000000E+01 0.  1.
         13    1    6    6    0    0 -0.16639657419E+02 -0.94563749117E+01  0.27007562500E+02  0.33101505369E+02  0.00000000000E+00 0. -1.
        -14    1    6    6    0    0  0.46802888141E+02  0.72239244066E+02  0.16951139770E+03  0.19011347314E+03  0.00000000000E+00 0.  1.
</event>
<event>
12    1  0.2685360E-002  0.1726918E+03  0.7818608E-02  0.1175069E+00
          1   -1    0    0  502    0  0.00000000000E+00  0.00000000000E+00  0.47432073316E+03  0.47432073316E+03  0.00000000000E+00 0. -1.
         -1   -1    0    0    0  501 -0.00000000000E+00 -0.00000000000E+00 -0.65665263707E+02  0.65665263707E+02  0.00000000000E+00 0.  1.
          6    2    1    2  502    0  0.12983625057E+02 -0.25477681256E+02  0.14801645719E+03  0.22700825962E+03  0.16972386861E+03 0.  0.
         24    2    3    3    0    0  0.22814864730E+02  0.31294476561E+02  0.80803937862E+01  0.75601776875E+02  0.64424169277E+02 0.  0.
         -6    2    1    2    0  501 -0.12983625057E+02  0.25477681256E+02  0.26063901226E+03  0.31297773725E+03  0.17089377559E+03 0.  0.
        -24    2    5    5    0    0 -0.59694666934E+02 -0.24050375381E+02  0.16927225909E+03  0.19893860618E+03  0.82350455480E+02 0.  0.
          5    1    3    3  502    0 -0.98312396729E+01 -0.56772157817E+02  0.13993606341E+03  0.15140648275E+03  0.47000000000E+01 0. -1.
        -11    1    4    4    0    0 -0.81876105579E+01  0.36479423131E+02  0.19489880663E+02  0.42162076881E+02  0.00000000000E+00 0.  1.
         12    1    4    4    0    0  0.31002475288E+02 -0.51849465705E+01 -0.11409486877E+02  0.33439699994E+02  0.00000000000E+00 0. -1.
         -5    1    5    5    0  501  0.46711041877E+02  0.49528056637E+02  0.91366753177E+02  0.11403913106E+03  0.47000000000E+01 0.  1.
         13    1    6    6    0    0 -0.56953377014E+02 -0.42466489440E+02  0.16527271634E+03  0.17989485998E+03  0.00000000000E+00 0. -1.
        -14    1    6    6    0    0 -0.27412899198E+01  0.18416114059E+02  0.39995427444E+01  0.19043746208E+02  0.00000000000E+00 0.  1.
</event>
<event>
12    1  0.2685360E-002  0.1969940E+03  0.7818608E-02  0.1152300E+00
         -1   -1    0    0    0  501 -0.00000000000E+00  0.00000000000E+00  0.21662598508E+02  0.21662598508E+02  0.00000000000E+00 0.  1.
          1   -1    0    0  502    0  0.00000000000E+00 -0.00000000000E+00 -0.20626683793E+04  0.20626683793E+04  0.00000000000E+00 0. -1.
          6    2    1    2  502    0  0.96589113636E+02  0.79451425001E+01 -0.14006049785E+04  0.14144583306E+04  0.17206243367E+03 0.  0.
         24    2    3    3    0    0  0.29513056954E+02  0.16824922734E+01 -0.30223645116E+03  0.31401572419E+03  0.79907141870E+02 0.  0.
         -6    2    1    2    0  501 -0.96589113636E+02 -0.79451425001E+01 -0.64040080231E+03  0.66987264721E+03  0.17094909687E+03 0.  0.
        -24    2    5    5    0    0 -0.52583662064E+02 -0.13488173258E+01 -0.60562018207E+03  0.61320014225E+03  0.80447179626E+02 0.  0.
          5    1    3    3  502    0  0.67076056681E+02  0.62626502266E+01 -0.10983685273E+04  0.11004426064E+04  0.47000000000E+01 0. -1.
        -13    1    4    4    0    0  0.44972704381E+02 -0.40942550101E+01 -0.85867023466E+02  0.97017796215E+02  0.00000000000E+00 0.  1.
         14    1    4    4    0    0 -0.15459647427E+02  0.57767472835E+01 -0.21636942769E+03  0.21699792798E+03  0.00000000000E+00 0. -1.
         -5    1    5    5    0  501 -0.44005451571E+02 -0.65963251742E+01 -0.34780620245E+02  0.56672504960E+02  0.47000000000E+01 0.  1.
         13    1    6    6    0    0 -0.23904486532E+02 -0.33881971753E+02 -0.44161893315E+03  0.44356137636E+03  0.00000000000E+00 0. -1.
        -14    1    6    6    0    0 -0.28679175532E+02  0.32533154427E+02 -0.16400124892E+03  0.16963876589E+03  0.00000000000E+00 0.  1.
</event>
<event>
12    1  0.2685360E-002  0.2259306E+03  0.7818608E-02  0.1129537E+00
         -2   -1    0    0    0  501 -0.00000000000E+00  0.00000000000E+00  0.31466282041E+02  0.31466282041E+02  0.00000000000E+00 0. -1.
          2   -1    0    0  502    0  0.00000000000E+00 -0.00000000000E+00 -0.16340198879E+04  0.16340198879E+04  0.00000000000E+00 0.  1.
          6    2    1    2  502    0  0.13486419867E+03  0.34467652763E+02 -0.74990797132E+03  0.78463640361E+03  0.18416283350E+03 0.  0.
         24    2    3    3    0    0  0.68157165965E+02  0.59861763846E+02 -0.66120837429E+03  0.67068730267E+03  0.66303195193E+02 0.  0.
         -6    2    1    2    0  501 -0.13486419867E+03 -0.34467652763E+02 -0.85264563453E+03  0.88084976633E+03  0.17180035385E+03 0.  0.
        -24    2    5    5    0    0 -0.42618340235E+02  0.11628727928E+02 -0.61576226312E+03  0.62245085696E+03  0.79563524355E+02 0.  0.
          5    1    3    3  502    0  0.66707032706E+02 -0.25394111083E+02 -0.88699597033E+02  0.11394910094E+03  0.47000000000E+01 0. -1.
        -11    1    4    4    0    0  0.25841439594E+02  0.47774002237E+02 -0.51876277419E+03  0.52159845779E+03  0.00000000000E+00 0.  1.
         12    1    4    4    0    0  0.42315726370E+02  0.12087761609E+02 -0.14244560010E+03  0.14908884488E+03  0.00000000000E+00 0. -1.
         -5    1    5    5    0  501 -0.92245858436E+02 -0.46096380691E+02 -0.23688337141E+03  0.25839890937E+03  0.47000000000E+01 0.  1.
         11    1    6    6    0    0 -0.13743764079E+02  0.33705714433E+02 -0.12103110341E+03  0.12638628972E+03  0.00000000000E+00 0. -1.
        -12    1    6    6    0    0 -0.28874576156E+02 -0.22076986505E+02 -0.49473115971E+03  0.49606456724E+03  0.00000000000E+00 0.  1.
</event>
<event>
12    1  0.2685360E-002  0.1714052E+03  0.7818608E-02  0.1176390E+00
         -1   -1    0    0    0  501 -0.00000000000E+00  0.00000000000E+00  0.33412212559E+02  0.33412212559E+02  0.00000000000E+00 0. -1.
          1   -1    0    0  502    0  0.00000000000E+00 -0.00000000000E+00 -0.10260651239E+04  0.10260651239E+04  0.00000000000E+00 0.  1.
          6    2    1    2  502    0 -0.62730660954E+01  0.32888913786E+02 -0.68891176329E+03  0.70919393582E+03  0.16503208476E+03 0.  0.
         24    2    3    3    0    0 -0.40186525037E+02  0.30442273875E+02 -0.22548100754E+03  0.24449374848E+03  0.79961362230E+02 0.  0.
         -6    2    1    2    0  501  0.62730660954E+01 -0.32888913786E+02 -0.30374114805E+03  0.35028340064E+03  0.17122716997E+03 0.  0.
        -24    2    5    5    0    0 -0.31981881238E+02  0.36412128568E+02 -0.13942405766E+03  0.16783266301E+03  0.79875221964E+02 0.  0.
          5    1    3    3  502    0  0.33913458941E+02  0.24466399109E+01 -0.46343075574E+03  0.46470018734E+03  0.47000000000E+01 0. -1.
        -13    1    4    4    0    0 -0.43925590297E+02  0.38063748943E+02 -0.22827350354E+03  0.23555699711E+03  0.00000000000E+00 0.  1.
         14    1    4    4    0    0  0.37390652604E+01 -0.76214750678E+01  0.27924959974E+01  0.89367513743E+01  0.00000000000E+00 0. -1.
         -5    1    5    5    0  501  0.38254947333E+02 -0.69301042354E+02 -0.16431709040E+03  0.18245073764E+03  0.47000000000E+01 0.  1.
         13    1    6    6    0    0 -0.34085615142E+02 -0.17496333621E+02 -0.45169834197E+02  0.59230606709E+02  0.00000000000E+00 0. -1.
        -14    1    6    6    0    0  0.21037339041E+01  0.53908462189E+02 -0.94254223459E+02  0.10860205630E+03  0.00000000000E+00 0.  1.
</event>
<event>
12    1  0.2685360E-002  0.2652398E+03  0.7818608E-02  0.1104035E+00
         -2   -1    0    0    0  501 -0.00000000000E+00  0.00000000000E+00  0.23137071013E+04  0.23137071013E+04  0.00000000000E+00 0. -1.
          2   -1    0    0  502    0  0.00000000000E+00 -0.00000000000E+00 -0.33395031381E+02  0.33395031381E+02  0.00000000000E+00 0.  1.
          6    2    1    2  502    0 -0.19651357410E+03  0.46361903237E+02  0.14923979620E+04  0.15158380573E+04  0.17247123880E+03 0.  0.
         24    2    3    3    0    0 -0.13130769318E+03  0.52061814606E+02  0.61717748182E+03  0.63816085311E+03  0.79931768064E+02 0.  0.
         -6    2    1    2    0  501  0.19651357410E+03 -0.46361903237E+02  0.78791410789E+03  0.83126407532E+03  0.17153515856E+03 0.  0.
        -24    2    5    5    0    0  0.18905245862E+03  0.99183742385E+01  0.56770334196E+03  0.60380416828E+03  0.80331705468E+02 0.  0.
          5    1    3    3  502    0 -0.65205880914E+02 -0.56999113687E+01  0.87522048017E+03  0.87767720422E+03  0.47000000000E+01 0. -1.
        -13    1    4    4    0    0 -0.11607695395E+03  0.12831668799E+02  0.38966443119E+03  0.40678849528E+03  0.00000000000E+00 0.  1.
         14    1    4    4    0    0 -0.15230739234E+02  0.39230145806E+02  0.22751305064E+03  0.23137235783E+03  0.00000000000E+00 0. -1.
         -5    1    5    5    0  501  0.74611154799E+01 -0.56280277475E+02  0.22021076593E+03  0.22745990704E+03  0.47000000000E+01 0.  1.
         11    1    6    6    0    0  0.48658924348E+02  0.24415033268E+02  0.25466245091E+03  0.26041649079E+03  0.00000000000E+00 0. -1.
        -12    1    6    6    0    0  0.14039353427E+03 -0.14496659030E+02  0.31304089105E+03  0.34338767749E+03  0.00000000000E+00 0.  1.
</event>
<event>
12    1  0.2685360E-002  0.1735230E+03  0.7818608E-02  0.1174223E+00
         -2   -1    0    0    0  501 -0.00000000000E+00  0.00000000000E+00  0.14080646168E+02  0.14080646168E+02  0.00000000000E+00 0.  1.
          2   -1    0    0  502    0  0.00000000000E+00 -0.00000000000E+00 -0.33795340115E+04  0.33795340115E+04  0.00000000000E+00 0. -1.
          6    2    1    2  502    0 -0.21912795021E+02 -0.78988815489E+01 -0.65357889269E+03  0.67618525415E+03  0.17180967971E+03 0.  0.
         24    2    3    3    0    0 -0.73188517542E+02  0.25619724218E+02 -0.46075754529E+03  0.47381218612E+03  0.78660935664E+02 0.  0.
         -6    2    1    2    0  501  0.21912795021E+02  0.78988815489E+01 -0.27118744726E+04  0.27174294035E+04  0.17209545267E+03 0.  0.
        -24    2    5    5    0    0 -0.80019729275E+01  0.31041486821E+02 -0.25364656057E+04  0.25379277764E+04  0.79950134980E+02 0.  0.
          5    1    3    3  502    0  0.51275722521E+02 -0.33518605767E+02 -0.19282134740E+03  0.20237306803E+03  0.47000000000E+01 0. -1.
        -11    1    4    4    0    0 -0.55299827291E+02 -0.20896495617E+02 -0.21066919369E+03  0.21880640667E+03  0.00000000000E+00 0.  1.
         12    1    4    4    0    0 -0.17888690251E+02  0.46516219835E+02 -0.25008835160E+03  0.25500577945E+03  0.00000000000E+00 0. -1.
         -5    1    5    5    0  501  0.29914767949E+02 -0.23142605272E+02 -0.17540886696E+03  0.17950162709E+03  0.47000000000E+01 0.  1.
         13    1    6    6    0    0 -0.42416880474E+02  0.61579571296E+01 -0.14472792628E+04  0.14479138015E+04  0.00000000000E+00 0. -1.
        -14    1    6    6    0    0  0.34414907547E+02  0.24883529691E+02 -0.10891863429E+04  0.10900139749E+04  0.00000000000E+00 0.  1.
</event>
<event>
12    1  0.2685360E-002  0.3253981E+03  0.7818608E-02  0.1073191E+00
         -2   -1    0    0    0  501 -0.00000000000E+00  0.00000000000E+00  0.11427317201E+04  0.11427317201E+04  0.00000000000E+00 0. -1.
          2   -1    0    0  502    0  0.00000000000E+00 -0.00000000000E+00 -0.94731323792E+02  0.94731323792E+02  0.00000000000E+00 0.  1.
          6    2    1    2  502    0  0.19231341282E+03  0.19748716524E+03  0.61669521232E+03  0.69762980316E+03  0.17432363056E+03 0.  0.
         24    2    3    3    0    0  0.96958018929E+02  0.36253809053E+02  0.33182588021E+03  0.35665843681E+03  0.79885102903E+02 0.  0.
         -6    2    1    2    0  501 -0.19231341282E+03 -0.19748716524E+03  0.43130518395E+03  0.53983324069E+03  0.17149383916E+03 0.  0.
        -24    2    5    5    0    0 -0.52962664827E+02 -0.23863790149E+02  0.17407236757E+03  0.19960608251E+03  0.78529451010E+02 0.  0.
          5    1    3    3  502    0  0.95355393892E+02  0.16123335619E+03  0.28486933211E+03  0.34097136635E+03  0.47000000000E+01 0. -1.
        -13    1    4    4    0    0  0.32962715692E+02  0.16488047584E+02  0.24102795848E+03  0.24382959850E+03  0.00000000000E+00 0.  1.
         14    1    4    4    0    0  0.63995303236E+02  0.19765761469E+02  0.90797921734E+02  0.11282883831E+03  0.00000000000E+00 0. -1.
         -5    1    5    5    0  501 -0.13935074799E+03 -0.17362337509E+03  0.25723281637E+03  0.34022715818E+03  0.47000000000E+01 0.  1.
         13    1    6    6    0    0 -0.59884148603E+02 -0.10346027273E+02  0.17411869222E+03  0.18441927913E+03  0.00000000000E+00 0. -1.
        -14    1    6    6    0    0  0.69214837764E+01 -0.13517762876E+02 -0.46324648649E-01  0.15186803377E+02  0.00000000000E+00 0.  1.
</event>
<event>
12    1  0.2685360E-002  0.1815726E+03  0.7818608E-02  0.1166290E+00
         -2   -1    0    0    0  501 -0.00000000000E+00  0.00000000000E+00  0.78149646654E+02  0.78149646654E+02  0.00000000000E+00 0. -1.
          2   -1    0    0  502    0  0.00000000000E+00 -0.00000000000E+00 -0.50299779674E+03  0.50299779674E+03  0.00000000000E+00 0.  1.
          6    2    1    2  502    0 -0.25117499995E+02  0.68015063897E+02 -0.32385183897E+03  0.36885176092E+03  0.16098034105E+03 0.  0.
         24    2    3    3    0    0  0.42869857637E+02  0.17237566118E+02 -0.16987790817E+03  0.19298051129E+03  0.79044390533E+02 0.  0.
         -6    2    1    2    0  501  0.25117499995E+02 -0.68015063897E+02 -0.10099631111E+03  0.21229568247E+03  0.17208214380E+03 0.  0.
        -24    2    5    5    0    0 -0.34421039174E+02 -0.17099226262E+02 -0.10583302148E+02  0.92571573129E+02  0.83548180056E+02 0.  0.
          5    1    3    3  502    0 -0.67987357632E+02  0.50777497779E+02 -0.15397393080E+03  0.17587124963E+03  0.47000000000E+01 0. -1.
        -11    1    4    4    0    0 -0.16110401993E+02  0.27119478031E+02 -0.65032473188E+02  0.72278860740E+02  0.00000000000E+00 0.  1.
         12    1    4    4    0    0  0.58980259630E+02 -0.98819119128E+01 -0.10484543498E+03  0.12070165055E+03  0.00000000000E+00 0. -1.
         -5    1    5    5    0  501  0.59538539169E+02 -0.50915837635E+02 -0.90413008965E+02  0.11972410935E+03  0.47000000000E+01 0.  1.
         11    1    6    6    0    0 -0.86426892017E+01 -0.77006950834E+01  0.36381703924E+02  0.38178857524E+02  0.00000000000E+00 0. -1.
        -12    1    6    6    0    0 -0.25778349973E+02 -0.93985311783E+01 -0.46965006072E+02  0.54392715605E+02  0.00000000000E+00 0.  1.
</event>
<event>
12    1  0.2685360E-002  0.1797328E+03  0.7818608E-02  0.1168062E+00
          1   -1    0    0  502    0  0.00000000000E+00  0.00000000000E+00  0.67530842827E+02  0.67530842827E+02  0.00000000000E+00 0.  1.
         -1   -1    0    0    0  501 -0.00000000000E+00 -0.00000000000E+00 -0.48744793775E+03  0.48744793775E+03  0.00000000000E+00 0. -1.
          6    2    1    2  502    0  0.58627256032E+02 -0.44891572531E+01 -0.24941369295E+03  0.30825980561E+03  0.17134646142E+03 0.  0.
         24    2    3    3    0    0  0.76364668064E+02 -0.29016963370E+02 -0.84457388199E+02  0.14048346182E+03  0.77000038517E+02 0.  0.
         -6    2    1    2    0  501 -0.58627256032E+02  0.44891572531E+01 -0.17050340197E+03  0.24671897497E+03  0.16834944265E+03 0.  0.
        -24    2    5    5    0    0  0.30315299662E+02  0.16101255977E+02 -0.70622503036E+02  0.11239137906E+03  0.80411543413E+02 0.  0.
          5    1    3    3  502    0 -0.17737412032E+02  0.24527806117E+02 -0.16495630475E+03  0.16777634379E+03  0.47000000000E+01 0. -1.
        -13    1    4    4    0    0 -0.75624313835E+00 -0.29239832223E+02 -0.48560131391E+01  0.29649967213E+02  0.00000000000E+00 0.  1.
         14    1    4    4    0    0  0.77120911202E+02  0.22286885328E+00 -0.79601375060E+02  0.11083349461E+03  0.00000000000E+00 0. -1.
         -5    1    5    5    0  501 -0.88942555694E+02 -0.11612098724E+02 -0.99880898935E+02  0.13432759591E+03  0.47000000000E+01 0.  1.
         11    1    6    6    0    0  0.22439182009E+02 -0.27381869329E+02 -0.55219401200E+02  0.65593185058E+02  0.00000000000E+00 0. -1.
        -12    1    6    6    0    0  0.78761176527E+01  0.43483125305E+02 -0.15403101836E+02  0.46798194001E+02  0.00000000000E+00 0.  1.
</event>
<event>
12    1  0.2685360E-002  0.1790163E+03  0.7818608E-02  0.1168758E+00
          2   -1    0    0  502    0  0.00000000000E+00  0.00000000000E+00  0.16449767318E+04  0.16449767318E+04  0.00000000000E+00 0.  1.
         -2   -1    0    0    0  501 -0.00000000000E+00 -0.00000000000E+00 -0.33939354755E+02  0.33939354755E+02  0.00000000000E+00 0. -1.
          6    2    1    2  502    0 -0.36208080431E+01 -0.46933970863E+02  0.13534471177E+04  0.13652364756E+04  0.17272992245E+03 0.  0.
         24    2    3    3    0    0 -0.66774932271E+02 -0.33374879183E+02  0.69059738183E+03  0.69923035350E+03  0.80159648972E+02 0.  0.
         -6    2    1    2    0  501  0.36208080431E+01  0.46933970863E+02  0.25759025935E+03  0.31367961093E+03  0.17270277568E+03 0.  0.
        -24    2    5    5    0    0 -0.47488048382E+02  0.75641069381E+02  0.16092288000E+03  0.20052977690E+03  0.79619922131E+02 0.  0.
          5    1    3    3  502    0  0.63154124228E+02 -0.13559091679E+02  0.66284973589E+03  0.66600612215E+03  0.47000000000E+01 0. -1.
        -13    1    4    4    0    0 -0.43317997047E+02  0.21277699247E+02  0.37334992471E+03  0.37645631305E+03  0.00000000000E+00 0.  1.
         14    1    4    4    0    0 -0.23456935223E+02 -0.54652578431E+02  0.31724745712E+03  0.32277404045E+03  0.00000000000E+00 0. -1.
         -5    1    5    5    0  501  0.51108856425E+02 -0.28707098518E+02  0.96667379350E+02  0.11314983403E+03  0.47000000000E+01 0.  1.
         11    1    6    6    0    0 -0.38764074322E+02  0.55535055615E+02  0.42192632111E+02  0.79793571574E+02  0.00000000000E+00 0. -1.
        -12    1    6    6    0    0 -0.87239740604E+01  0.20106013766E+02  0.11873024789E+03  0.12073620532E+03  0.00000000000E+00 0.  1.
</event>
<event>
12    1  0.2685360E-002  0.1877566E+03  0.7818608E-02  0.1160500E+00
         -2   -1    0    0    0  501 -0.00000000000E+00  0.00000000000E+00  0.19153520552E+02  0.19153520552E+02  0.00000000000E+00 0.  1.
          2   -1    0    0  502    0  0.00000000000E+00 -0.00000000000E+00 -0.21264342824E+04  0.21264342824E+04  0.00000000000E+00 0. -1.
          6    2    1    2  502    0  0.75308240517E+02  0.35595261487E+01 -0.65844593689E+03  0.68458936128E+03  0.17154457278E+03 0.  0.
         24    2    3    3    0    0  0.81207167500E+02  0.59927767936E+02 -0.50289301024E+03  0.51896635861E+03  0.78985822794E+02 0.  0.
         -6    2    1    2    0  501 -0.75308240517E+02 -0.35595261487E+01 -0.14488348250E+04  0.14609984417E+04  0.17236616618E+03 0.  0.
        -24    2    5    5    0    0 -0.10871682135E+03 -0.36035582666E+02 -0.10116481587E+04  0.10213109405E+04  0.80784464812E+02 0.  0.
          5    1    3    3  502    0 -0.58989269838E+01 -0.56368241788E+02 -0.15555292665E+03  0.16562300267E+03  0.47000000000E+01 0. -1.
        -11    1    4    4    0    0  0.67974808320E+02  0.34683100002E+02 -0.18962427321E+03  0.20440366186E+03  0.00000000000E+00 0.  1.
         12    1    4    4    0    0  0.13232359180E+02  0.25244667935E+02 -0.31326873703E+03  0.31456269675E+03  0.00000000000E+00 0. -1.
         -5    1    5    5    0  501  0.33408580832E+02  0.32476056517E+02 -0.43718666625E+03  0.43968750114E+03  0.47000000000E+01 0.  1.
         11    1    6    6    0    0 -0.15440818102E+02  0.84283661191E+01 -0.44309390735E+03  0.44344296922E+03  0.00000000000E+00 0. -1.
        -12    1    6    6    0    0 -0.93276003247E+02 -0.44463948785E+02 -0.56855425136E+03  0.57786797131E+03  0.00000000000E+00 0.  1.
</event>
<event>
12    1  0.2685360E-002  0.2764557E+03  0.7818608E-02  0.1097641E+00
          2   -1    0    0  502    0  0.00000000000E+00  0.00000000000E+00  0.18291304051E+04  0.18291304051E+04  0.00000000000E+00 0.  1.
         -2   -1    0    0    0  501 -0.00000000000E+00 -0.00000000000E+00 -0.44088637210E+02  0.44088637210E+02  0.00000000000E+00 0. -1.
          6    2    1    2  502    0 -0.85565211812E+02  0.19841361286E+03  0.67799041072E+03  0.73214139531E+03  0.17225172992E+03 0.  0.
         24    2    3    3    0    0 -0.55453966799E+02  0.10505225921E+03  0.56293490947E+03  0.58087048668E+03  0.80023061634E+02 0.  0.
         -6    2    1    2    0  501  0.85565211812E+02 -0.19841361286E+03  0.11070513571E+04  0.11410776470E+04  0.17264449549E+03 0.  0.
        -24    2    5    5    0    0  0.11738161549E+03 -0.17514095708E+03  0.10321881162E+04  0.10563398461E+04  0.77387109767E+02 0.  0.
          5    1    3    3  502    0 -0.30111245013E+02  0.93361353648E+02  0.11505550125E+03  0.15127090863E+03  0.47000000000E+01 0. -1.
        -11    1    4    4    0    0 -0.76276151264E+02  0.83326340042E+02  0.45570335534E+03  0.46949640921E+03  0.00000000000E+00 0.  1.
         12    1    4    4    0    0  0.20822184465E+02  0.21725919171E+02  0.10723155413E+03  0.11137407746E+03  0.00000000000E+00 0. -1.
         -5    1    5    5    0  501 -0.31816403674E+02 -0.23272655778E+02  0.74863240935E+02  0.84737800850E+02  0.47000000000E+01 0.  1.
         13    1    6    6    0    0  0.93185182066E+02 -0.85096927180E+02  0.70142589612E+03  0.71268734584E+03  0.00000000000E+00 0. -1.
        -14    1    6    6    0    0  0.24196433420E+02 -0.90044029903E+02  0.33076222008E+03  0.34365250027E+03  0.00000000000E+00 0.  1.
</event>
<event>
12    1  0.2685360E-002  0.1874202E+03  0.7818608E-02  0.1160809E+00
         -1   -1    0    0    0  501 -0.00000000000E+00  0.00000000000E+00  0.10782840135E+03  0.10782840135E+03  0.00000000000E+00 0.  1.
          1   -1    0    0  502    0  0.00000000000E+00 -0.00000000000E+00 -0.40938646159E+03  0.40938646159E+03  0.00000000000E+00 0. -1.
          6    2    1    2  502    0 -0.72533182428E+02  0.17129831355E+02 -0.26780185666E+03  0.32699810020E+03  0.17220751850E+03 0.  0.
         24    2    3    3    0    0 -0.37804535241E+02 -0.51889634201E+02 -0.10316692347E+03  0.14507361920E+03  0.79254172552E+02 0.  0.
         -6    2    1    2    0  501  0.72533182428E+02 -0.17129831355E+02 -0.33756203575E+02  0.19021676274E+03  0.17172199007E+03 0.  0.
        -24    2    5    5    0    0 -0.27394060182E+01 -0.22296769302E+01 -0.37455711098E+02  0.11325083827E+03  0.10681922239E+03 0.  0.
          5    1    3    3  502    0 -0.34728647188E+02  0.69019465556E+02 -0.16463493320E+03  0.18192448101E+03  0.47000000000E+01 0. -1.
        -11    1    4    4    0    0  0.12954207890E+01 -0.14166981964E+02 -0.87331207142E+02  0.88482321589E+02  0.00000000000E+00 0.  1.
         12    1    4    4    0    0 -0.39099956030E+02 -0.37722652237E+02 -0.15835716324E+02  0.56591297606E+02  0.00000000000E+00 0. -1.
         -5    1    5    5    0  501  0.75272588446E+02 -0.14900154425E+02  0.36995075235E+01  0.76965924468E+02  0.47000000000E+01 0.  1.
         11    1    6    6    0    0  0.21403444623E+02  0.40504349672E+02 -0.44259252186E+02  0.63699224393E+02  0.00000000000E+00 0. -1.
        -12    1    6    6    0    0 -0.24142850641E+02 -0.42734026603E+02  0.68035410882E+01  0.49551613880E+02  0.00000000000E+00 0.  1.
</event>
<event>
12    1  0.2685360E-002  0.3252503E+03  0.7818608E-02  0.1073258E+00
          1   -1    0    0  502    0  0.00000000000E+00  0.00000000000E+00  0.27060729001E+03  0.27060729001E+03  0.00000000000E+00 0.  1.
         -1   -1    0    0    0  501 -0.00000000000E+00 -0.00000000000E+00 -0.41211055685E+03  0.41211055685E+03  0.00000000000E+00 0. -1.
          6    2    1    2  502    0  0.27140347074E+03 -0.51337152749E+02  0.66340238739E+01  0.32535415505E+03  0.17180212091E+03 0.  0.
         24    2    3    3    0    0  0.18191077681E+03  0.73725878806E+01 -0.48026899870E+02  0.20508078935E+03  0.81275219325E+02 0.  0.
         -6    2    1    2    0  501 -0.27140347074E+03  0.51337152749E+02 -0.14813729072E+03  0.35736369182E+03  0.17166480170E+03 0.  0.
        -24    2    5    5    0    0 -0.74526114690E+02  0.20598612713E+02 -0.10531427105E+03  0.15349743128E+03  0.80572458745E+02 0.  0.
          5    1    3    3  502    0  0.89492693935E+02 -0.58709740630E+02  0.54660923744E+02  0.12027336570E+03  0.47000000000E+01 0. -1.
        -11    1    4    4    0    0 -0.42331015515E+01  0.12185571460E+02 -0.58153684579E+01  0.14150116990E+02  0.00000000000E+00 0.  1.
         12    1    4    4    0    0  0.18614387836E+03 -0.48129835789E+01 -0.42211531412E+02  0.19093067236E+03  0.00000000000E+00 0. -1.
         -5    1    5    5    0  501 -0.19687735605E+03  0.30738540036E+02 -0.42823019674E+02  0.20386626053E+03  0.47000000000E+01 0.  1.
         11    1    6    6    0    0 -0.82352449407E+02  0.33669122846E+02 -0.64378096858E+02  0.10981837329E+03  0.00000000000E+00 0. -1.
        -12    1    6    6    0    0  0.78263347173E+01 -0.13070510133E+02 -0.40936174188E+02  0.43679057995E+02  0.00000000000E+00 0.  1.
</event>
<event>
12    1  0.2685360E-002  0.4193341E+03  0.7818608E-02  0.1037283E+00
          1   -1    0    0  502    0  0.00000000000E+00  0.00000000000E+00  0.11560205168E+04  0.11560205168E+04  0.00000000000E+00 0.  1.
         -1   -1    0    0    0  501 -0.00000000000E+00 -0.00000000000E+00 -0.27353152832E+03  0.27353152832E+03  0.00000000000E+00 0. -1.
          6    2    1    2  502    0  0.14918402202E+03  0.35100248757E+03 -0.34415376153E+02  0.42171084871E+03  0.17662673381E+03 0.  0.
         24    2    3    3    0    0  0.18011886914E+02  0.64050669575E+02 -0.19875449142E+02  0.10582958247E+03  0.79862073007E+02 0.  0.
         -6    2    1    2    0  501 -0.14918402202E+03 -0.35100248757E+03  0.91690436459E+03  0.10078411964E+04  0.17196407932E+03 0.  0.
        -24    2    5    5    0    0 -0.54949855524E+02 -0.25488334149E+03  0.71405290831E+03  0.76434628534E+03  0.79804032846E+02 0.  0.
          5    1    3    3  502    0  0.13117213511E+03  0.28695181800E+03 -0.14539927011E+02  0.31588126624E+03  0.47000000000E+01 0. -1.
        -11    1    4    4    0    0  0.88255651537E+00 -0.36785895958E+01 -0.34288491621E+02  0.34496544538E+02  0.00000000000E+00 0.  1.
         12    1    4    4    0    0  0.17129330399E+02  0.67729259170E+02  0.14413042479E+02  0.71333037936E+02  0.00000000000E+00 0. -1.
         -5    1    5    5    0  501 -0.94234166497E+02 -0.96119146085E+02  0.20285145628E+03  0.24349491102E+03  0.47000000000E+01 0.  1.
         11    1    6    6    0    0 -0.70394219301E+02 -0.18595118646E+03  0.57448169844E+03  0.60791645125E+03  0.00000000000E+00 0. -1.
        -12    1    6    6    0    0  0.15444363776E+02 -0.68932155033E+02  0.13957120987E+03  0.15642983409E+03  0.00000000000E+00 0.  1.
</event>
<event>
12    1  0.2685360E-002  0.2034605E+03  0.7818608E-02  0.1146852E+00
         -2   -1    0    0    0  501 -0.00000000000E+00  0.00000000000E+00  0.67536818366E+02  0.67536818366E+02  0.00000000000E+00 0. -1.
          2   -1    0    0  502    0  0.00000000000E+00 -0.00000000000E+00 -0.95138051518E+03  0.95138051518E+03  0.00000000000E+00 0.  1.
          6    2    1    2  502    0 -0.38602119102E+02  0.10147250732E+03 -0.13821574384E+03  0.24605711007E+03  0.17220254421E+03 0.  0.
         24    2    3    3    0    0  0.15323835549E+02  0.15995286238E+02 -0.11542147285E+03  0.14234581513E+03  0.80309062832E+02 0.  0.
         -6    2    1    2    0  501  0.38602119102E+02 -0.10147250732E+03 -0.74562795297E+03  0.77286022347E+03  0.17194501282E+03 0.  0.
        -24    2    5    5    0    0  0.26834848119E+02 -0.48045931460E+02 -0.18683679179E+03  0.21137779321E+03  0.82122250910E+02 0.  0.
          5    1    3    3  502    0 -0.53925954651E+02  0.85477221080E+02 -0.22794270996E+02  0.10371129494E+03  0.47000000000E+01 0. -1.
        -11    1    4    4    0    0 -0.27422504033E+02  0.26903442582E+02 -0.63466414447E+02  0.74187429616E+02  0.00000000000E+00 0.  1.
         12    1    4    4    0    0  0.42746339583E+02 -0.10908156344E+02 -0.51955058402E+02  0.68158385515E+02  0.00000000000E+00 0. -1.
         -5    1    5    5    0  501  0.11767270983E+02 -0.53426575858E+02 -0.55879116118E+03  0.56148243026E+03  0.47000000000E+01 0.  1.
         11    1    6    6    0    0  0.36669079832E+02 -0.58059395615E+02 -0.88361713593E+02  0.11190758359E+03  0.00000000000E+00 0. -1.
        -12    1    6    6    0    0 -0.98342317135E+01  0.10013464155E+02 -0.98475078194E+02  0.99470209626E+02  0.00000000000E+00 0.  1.
</event>
<event>
12    1  0.2685360E-002  0.1800024E+03  0.7818608E-02  0.1167801E+00
          2   -1    0    0  502    0  0.00000000000E+00  0.00000000000E+00  0.23140872441E+04  0.23140872441E+04  0.00000000000E+00 0.  1.
         -2   -1    0    0    0  501 -0.00000000000E+00 -0.00000000000E+00 -0.16140005122E+02  0.16140005122E+02  0.00000000000E+00 0. -1.
          6    2    1    2  502    0  0.50133548843E+01  0.45908360606E+02  0.15882783616E+04  0.15987678399E+04  0.17691167514E+03 0.  0.
         24    2    3    3    0    0 -0.56095348429E+02  0.11662929326E+01  0.11316725822E+04  0.11358995498E+04  0.80230328218E+02 0.  0.
         -6    2    1    2    0  501 -0.50133548843E+01 -0.45908360606E+02  0.70966887744E+03  0.73145940934E+03  0.17108547749E+03 0.  0.
        -24    2    5    5    0    0  0.23818718966E+01  0.38901339385E+02  0.42399377175E+03  0.43333237165E+03  0.80543394008E+02 0.  0.
          5    1    3    3  502    0  0.61108703313E+02  0.44742067674E+02  0.45660577932E+03  0.46286829007E+03  0.47000000000E+01 0. -1.
        -13    1    4    4    0    0 -0.47010892211E+02  0.24897533074E+02  0.10194089311E+04  0.10207960031E+04  0.00000000000E+00 0.  1.
         14    1    4    4    0    0 -0.90844562173E+01 -0.23731240141E+02  0.11226365113E+03  0.11510354673E+03  0.00000000000E+00 0. -1.
         -5    1    5    5    0  501 -0.73952267809E+01 -0.84809699991E+02  0.28567510569E+03  0.29812703769E+03  0.47000000000E+01 0.  1.
         11    1    6    6    0    0 -0.19582530432E+01 -0.71089034533E+01  0.57180384840E+00  0.73958246958E+01  0.00000000000E+00 0. -1.
        -12    1    6    6    0    0  0.43401249397E+01  0.46010242838E+02  0.42342196790E+03  0.42593654696E+03  0.00000000000E+00 0.  1.
</event>
<event>
12    1  0.2685360E-002  0.2040203E+03  0.7818608E-02  0.1146391E+00
         -1   -1    0    0    0  501 -0.00000000000E+00  0.00000000000E+00  0.37114737640E+02  0.37114737640E+02  0.00000000000E+00 0.  1.
          1   -1    0    0  502    0  0.00000000000E+00 -0.00000000000E+00 -0.14266338027E+04  0.14266338027E+04  0.00000000000E+00 0. -1.
          6    2    1    2  502    0  0.10998404797E+03 -0.14040151650E+02 -0.35594519242E+03  0.41020620562E+03  0.17110971466E+03 0.  0.
         24    2    3    3    0    0  0.13988071494E+03 -0.26555798792E+02 -0.24635636503E+03  0.29582852769E+03  0.80939695721E+02 0.  0.
         -6    2    1    2    0  501 -0.10998404797E+03  0.14040151650E+02 -0.10335738727E+04  0.10535423348E+04  0.17141436401E+03 0.  0.
        -24    2    5    5    0    0 -0.12086705580E+03  0.36478629037E+02 -0.10018297700E+04  0.10129011834E+04  0.79789621948E+02 0.  0.
          5    1    3    3  502    0 -0.29896666966E+02  0.12515647143E+02 -0.10958882739E+03  0.11437767793E+03  0.47000000000E+01 0. -1.
        -11    1    4    4    0    0  0.97345296984E+02  0.20870631522E+02 -0.16147643439E+03  0.18970062986E+03  0.00000000000E+00 0.  1.
         12    1    4    4    0    0  0.42535417953E+02 -0.47426430314E+02 -0.84879930637E+02  0.10612789783E+03  0.00000000000E+00 0. -1.
         -5    1    5    5    0  501  0.10883007825E+02 -0.22438477387E+02 -0.31744102645E+02  0.40641151306E+02  0.47000000000E+01 0.  1.
         13    1    6    6    0    0 -0.71918086059E+02  0.43527778411E+02 -0.38393327186E+03  0.39302879772E+03  0.00000000000E+00 0. -1.
        -14    1    6    6    0    0 -0.48948969737E+02 -0.70491493747E+01 -0.61789649816E+03  0.61987238573E+03  0.00000000000E+00 0.  1.
</event>
<event>
12    1  0.2685360E-002  0.2097600E+03  0.7818608E-02  0.1141756E+00
          1   -1    0    0  502    0  0.00000000000E+00  0.00000000000E+00  0.16704389077E+03  0.16704389077E+03  0.00000000000E+00 0. -1.
         -1   -1    0    0    0  501 -0.00000000000E+00 -0.00000000000E+00 -0.26405795286E+03  0.26405795286E+03  0.00000000000E+00 0.  1.
          6    2    1    2  502    0 -0.14222655896E+01  0.11990772016E+03 -0.59370769737E+02  0.21846103491E+03  0.17268599041E+03 0.  0.
         24    2    3    3    0    0 -0.16893057516E+02  0.58738632146E+02  0.35426321370E+02  0.10448919096E+03  0.76989379029E+02 0.  0.
         -6    2    1    2    0  501  0.14222655896E+01 -0.11990772016E+03 -0.37643292357E+02  0.21264080871E+03  0.17152029582E+03 0.  0.
        -24    2    5    5    0    0 -0.20332061963E+02  0.12393078285E+02 -0.17940248413E+01  0.73773922746E+02  0.69802521581E+02 0.  0.
          5    1    3    3  502    0  0.15470791926E+02  0.61169088015E+02 -0.94797091107E+02  0.11397184395E+03  0.47000000000E+01 0. -1.
        -13    1    4    4    0    0  0.15257552897E+02 -0.27966516109E+00  0.33999097854E+02  0.37266738359E+02  0.00000000000E+00 0.  1.
         14    1    4    4    0    0 -0.32150610412E+02  0.59018297308E+02  0.14272235159E+01  0.67222452603E+02  0.00000000000E+00 0. -1.
         -5    1    5    5    0  501  0.21754327553E+02 -0.13230079845E+03 -0.35849267516E+02  0.13886688597E+03  0.47000000000E+01 0.  1.
         11    1    6    6    0    0 -0.43823399833E+02  0.11214961357E+02 -0.13896490418E+02  0.47322068606E+02  0.00000000000E+00 0. -1.
        -12    1    6    6    0    0  0.23491337870E+02  0.11781169277E+01  0.12102465577E+02  0.26451854140E+02  0.00000000000E+00 0.  1.
</event>
<event>
12    1  0.2685360E-002  0.1770198E+03  0.7818608E-02  0.1170719E+00
          2   -1    0    0  502    0  0.00000000000E+00  0.00000000000E+00  0.16470281446E+03  0.16470281446E+03  0.00000000000E+00 0. -1.
         -2   -1    0    0    0  501 -0.00000000000E+00 -0.00000000000E+00 -0.19100120858E+03  0.19100120858E+03  0.00000000000E+00 0.  1.
          6    2    1    2  502    0 -0.77875519863E+01  0.35573150719E+02 -0.24200308468E+02  0.18073294998E+03  0.17536433292E+03 0.  0.
         24    2    3    3    0    0 -0.33725115212E+02 -0.40924038106E+02 -0.24181257666E+02  0.99821470898E+02  0.81039697302E+02 0.  0.
         -6    2    1    2    0  501  0.77875519863E+01 -0.35573150719E+02 -0.20980856509E+01  0.17497107306E+03  0.17112679342E+03 0.  0.
        -24    2    5    5    0    0  0.57165177285E+02  0.59161587320E+01 -0.30950605335E+02  0.10416097088E+03  0.81170865808E+02 0.  0.
          5    1    3    3  502    0  0.25937563226E+02  0.76497188825E+02 -0.19050801785E-01  0.80911479082E+02  0.47000000000E+01 0. -1.
        -13    1    4    4    0    0 -0.19085723570E+02  0.59279083459E+01 -0.42869039224E+02  0.47298620123E+02  0.00000000000E+00 0.  1.
         14    1    4    4    0    0 -0.14639391643E+02 -0.46851946452E+02  0.18687781558E+02  0.52522850775E+02  0.00000000000E+00 0. -1.
         -5    1    5    5    0  501 -0.49377625299E+02 -0.41489309451E+02  0.28852519684E+02  0.70810102182E+02  0.47000000000E+01 0.  1.
         13    1    6    6    0    0 -0.55754588957E+01 -0.11276180120E+02  0.18551982282E+02  0.22414594054E+02  0.00000000000E+00 0. -1.
        -14    1    6    6    0    0  0.62740636181E+02  0.17192338852E+02 -0.49502587617E+02  0.81746376827E+02  0.00000000000E+00 0.  1.
</event>
<event>
12    1  0.2685360E-002  0.2921704E+03  0.7818608E-02  0.1089221E+00
          1   -1    0    0  502    0  0.00000000000E+00  0.00000000000E+00  0.94825045922E+03  0.94825045922E+03  0.00000000000E+00 0.  1.
         -1   -1    0    0    0  501 -0.00000000000E+00 -0.00000000000E+00 -0.91817534588E+02  0.91817534588E+02  0.00000000000E+00 0. -1.
          6    2    1    2  502    0  0.23038102868E+03  0.94749911297E+01  0.49272086554E+03  0.57017672279E+03  0.17077016732E+03 0.  0.
         24    2    3    3    0    0  0.24367897872E+03  0.23978673808E+02  0.40615110432E+03  0.48127449648E+03  0.81926796319E+02 0.  0.
         -6    2    1    2    0  501 -0.23038102868E+03 -0.94749911297E+01  0.36371205910E+03  0.46989127102E+03  0.18800572016E+03 0.  0.
        -24    2    5    5    0    0 -0.15481221088E+03  0.87014354639E+01  0.34968538253E+03  0.39077195376E+03  0.79876889510E+02 0.  0.
          5    1    3    3  502    0 -0.13297950033E+02 -0.14503682679E+02  0.86569761217E+02  0.88902226313E+02  0.47000000000E+01 0. -1.
        -11    1    4    4    0    0  0.11889952900E+03  0.50351266058E+02  0.23056601115E+03  0.26425940568E+03  0.00000000000E+00 0.  1.
         12    1    4    4    0    0  0.12477944971E+03 -0.26372592249E+02  0.17558509317E+03  0.21701509080E+03  0.00000000000E+00 0. -1.
         -5    1    5    5    0  501 -0.75568817804E+02 -0.18176426594E+02  0.14026676573E+02  0.79119317260E+02  0.47000000000E+01 0.  1.
         11    1    6    6    0    0 -0.81180931254E+02  0.12099791706E+02  0.94565646347E+02  0.12521745097E+03  0.00000000000E+00 0. -1.
        -12    1    6    6    0    0 -0.73631279625E+02 -0.33983562425E+01  0.25511973618E+03  0.26555450279E+03  0.00000000000E+00 0.  1.
</event>
<event>
12    1  0.2685360E-002  0.3272067E+03  0.7818608E-02  0.1072380E+00
          2   -1    0    0  502    0  0.00000000000E+00  0.00000000000E+00  0.71287639075E+03  0.71287639075E+03  0.00000000000E+00 0.  1.
         -2   -1    0    0    0  501 -0.00000000000E+00 -0.00000000000E+00 -0.16393606054E+03  0.16393606054E+03  0.00000000000E+00 0. -1.
          6    2    1    2  502    0 -0.25678123692E+03 -0.10379088788E+03  0.40127305314E+03  0.51763465839E+03  0.17382872133E+03 0.  0.
         24    2    3    3    0    0 -0.12914010668E+03  0.22664910021E+01  0.13015261061E+03  0.19972144681E+03  0.79162176151E+02 0.  0.
         -6    2    1    2    0  501  0.25678123692E+03  0.10379088788E+03  0.14766727707E+03  0.35917779289E+03  0.17462505591E+03 0.  0.
        -24    2    5    5    0    0  0.82892004922E+02  0.67485793104E+02  0.98845034863E+01  0.13431848664E+03  0.80736210549E+02 0.  0.
          5    1    3    3  502    0 -0.12764113023E+03 -0.10605737888E+03  0.27112044253E+03  0.31791321158E+03  0.47000000000E+01 0. -1.
        -11    1    4    4    0    0 -0.23306598458E+02 -0.56325550254E+01 -0.82102407513E+01  0.25344254990E+02  0.00000000000E+00 0.  1.
         12    1    4    4    0    0 -0.10583350822E+03  0.78990460275E+01  0.13836285136E+03  0.17437719182E+03  0.00000000000E+00 0. -1.
         -5    1    5    5    0  501  0.17388923199E+03  0.36305094775E+02  0.13778277359E+03  0.22485930625E+03  0.47000000000E+01 0.  1.
         13    1    6    6    0    0 -0.14341318533E+02  0.21840261030E+02  0.61359773396E+01  0.26838789784E+02  0.00000000000E+00 0. -1.
        -14    1    6    6    0    0  0.97233323456E+02  0.45645532074E+02  0.37485261467E+01  0.10747969686E+03  0.00000000000E+00 0.  1.
</event>
<event>
12    1  0.2685360E-002  0.2367642E+03  0.7818608E-02  0.1121967E+00
          2   -1    0    0  502    0  0.00000000000E+00  0.00000000000E+00  0.21286076464E+04  0.21286076464E+04  0.00000000000E+00 0.  1.
         -2   -1    0    0    0  501 -0.00000000000E+00 -0.00000000000E+00 -0.27386712511E+02  0.27386712511E+02  0.00000000000E+00 0. -1.
          6    2    1    2  502    0  0.12238257209E+03 -0.11138381847E+03  0.12567523546E+04  0.12786435382E+04  0.16768711362E+03 0.  0.
         24    2    3    3    0    0  0.14805697828E+03 -0.66927839933E+02  0.10533483243E+04  0.10688083679E+04  0.80052672747E+02 0.  0.
         -6    2    1    2    0  501 -0.12238257209E+03  0.11138381847E+03  0.84446857926E+03  0.87735082066E+03  0.17097787046E+03 0.  0.
        -24    2    5    5    0    0 -0.14940860252E+03  0.62983939664E+02  0.67761251888E+03  0.70146452366E+03  0.81264045186E+02 0.  0.
          5    1    3    3  502    0 -0.25674406188E+02 -0.44455978541E+02  0.20340403029E+03  0.20983517031E+03  0.47000000000E+01 0. -1.
        -11    1    4    4    0    0  0.12014507831E+03 -0.77109503207E+02  0.96723207500E+03  0.97771089911E+03  0.00000000000E+00 0.  1.
         12    1    4    4    0    0  0.27911899974E+02  0.10181663274E+02  0.86116249327E+02  0.91097468819E+02  0.00000000000E+00 0. -1.
         -5    1    5    5    0  501  0.27026030423E+02  0.48399878810E+02  0.16685606038E+03  0.17588629701E+03  0.47000000000E+01 0.  1.
         13    1    6    6    0    0 -0.26208772242E+02  0.45656146379E+02  0.27772645405E+03  0.28267183575E+03  0.00000000000E+00 0. -1.
        -14    1    6    6    0    0 -0.12319983028E+03  0.17327793285E+02  0.39988606483E+03  0.41879268791E+03  0.00000000000E+00 0.  1.
</event>
<event>
12    1  0.2685360E-002  0.2618485E+03  0.7818608E-02  0.1106038E+00
         -2   -1    0    0    0  501 -0.00000000000E+00  0.00000000000E+00  0.14918015235E+03  0.14918015235E+03  0.00000000000E+00 0.  1.
          2   -1    0    0  502    0  0.00000000000E+00 -0.00000000000E+00 -0.46941612561E+03  0.46941612561E+03  0.00000000000E+00 0. -1.
          6    2    1    2  502    0 -0.45960370836E+02 -0.19215115428E+03 -0.11543642262E+03  0.28620047777E+03  0.17190324031E+03 0.  0.
         24    2    3    3    0    0 -0.64833653293E+02 -0.87134891862E+02 -0.92166771062E+01  0.13557066498E+03  0.80613684248E+02 0.  0.
         -6    2    1    2    0  501  0.45960370836E+02  0.19215115428E+03 -0.20479955064E+03  0.33239580020E+03  0.17178384751E+03 0.  0.
        -24    2    5    5    0    0 -0.31888955447E+02  0.50277451234E+02 -0.81389827988E+02  0.12882587397E+03  0.80169034679E+02 0.  0.
          5    1    3    3  502    0  0.18873282457E+02 -0.10501626242E+03 -0.10621974551E+03  0.15062981279E+03  0.47000000000E+01 0. -1.
        -13    1    4    4    0    0 -0.42863524447E+02 -0.57964457850E+02  0.33395862222E+02  0.79450888701E+02  0.00000000000E+00 0.  1.
         14    1    4    4    0    0 -0.21970128846E+02 -0.29170434012E+02 -0.42612539328E+02  0.56119776283E+02  0.00000000000E+00 0. -1.
         -5    1    5    5    0  501  0.77849326284E+02  0.14187370305E+03 -0.12340972265E+03  0.20356992623E+03  0.47000000000E+01 0.  1.
         11    1    6    6    0    0 -0.17048241684E+02 -0.12674638112E-01 -0.73922190727E+02  0.75862592805E+02  0.00000000000E+00 0. -1.
        -12    1    6    6    0    0 -0.14840713763E+02  0.50290125872E+02 -0.74676372605E+01  0.52963281162E+02  0.00000000000E+00 0.  1.
</event>
<event>
12    1  0.2685360E-002  0.1753765E+03  0.7818608E-02  0.1172354E+00
          3   -1    0    0  502    0  0.00000000000E+00  0.00000000000E+00  0.16994780577E+03  0.16994780577E+03  0.00000000000E+00 0. -1.
         -3   -1    0    0    0  501 -0.00000000000E+00 -0.00000000000E+00 -0.18543691492E+03  0.18543691492E+03  0.00000000000E+00 0.  1.
          6    2    1    2  502    0 -0.26095938013E+02  0.28343616373E+02  0.19801108239E+02  0.17662760487E+03  0.17123337392E+03 0.  0.
         24    2    3    3    0    0 -0.37067288726E+02  0.55387465267E+02 -0.39100072196E+02  0.11072480253E+03  0.79305807152E+02 0.  0.
         -6    2    1    2    0  501  0.26095938013E+02 -0.28343616373E+02 -0.35290217388E+02  0.17875711582E+03  0.17095130431E+03 0.  0.
        -24    2    5    5    0    0  0.69718780775E+02 -0.27406394081E+02 -0.63312967819E+02  0.12668797585E+03  0.80184116262E+02 0.  0.
          5    1    3    3  502    0  0.10971350713E+02 -0.27043848894E+02  0.58901180435E+02  0.65902802338E+02  0.47000000000E+01 0. -1.
        -13    1    4    4    0    0  0.19953946886E+01 -0.49461884161E+01 -0.38479053169E+02  0.38846929255E+02  0.00000000000E+00 0.  1.
         14    1    4    4    0    0 -0.39062683415E+02  0.60333653683E+02 -0.62101902710E+00  0.71877873278E+02  0.00000000000E+00 0. -1.
         -5    1    5    5    0  501 -0.43622842762E+02 -0.93722229241E+00  0.28022750430E+02  0.52069139977E+02  0.47000000000E+01 0.  1.
         11    1    6    6    0    0  0.99686943533E+01 -0.35435600292E+02  0.31622926357E+01  0.36946674138E+02  0.00000000000E+00 0. -1.
        -12    1    6    6    0    0  0.59750086421E+02  0.80292062114E+01 -0.66475260454E+02  0.89741301708E+02  0.00000000000E+00 0.  1.
</event>
<event>
12    1  0.2685360E-002  0.2364178E+03  0.7818608E-02  0.1122202E+00
          1   -1    0    0  502    0  0.00000000000E+00  0.00000000000E+00  0.88254522932E+03  0.88254522932E+03  0.00000000000E+00 0.  1.
         -1   -1    0    0    0  501 -0.00000000000E+00 -0.00000000000E+00 -0.82256188217E+02  0.82256188217E+02  0.00000000000E+00 0. -1.
          6    2    1    2  502    0  0.15283157966E+03  0.59894422302E+02  0.63260515018E+03  0.67563087496E+03  0.17129789724E+03 0.  0.
         24    2    3    3    0    0  0.49464983841E+02  0.27804825653E+02  0.47135224361E+03  0.48136563046E+03  0.79498677185E+02 0.  0.
         -6    2    1    2    0  501 -0.15283157966E+03 -0.59894422302E+02  0.16768389092E+03  0.28917054258E+03  0.16898781570E+03 0.  0.
        -24    2    5    5    0    0 -0.51420114687E+02 -0.24885798590E+02  0.15110828705E+03  0.18051176656E+03  0.80544722262E+02 0.  0.
          5    1    3    3  502    0  0.10336659582E+03  0.32089596649E+02  0.16125290657E+03  0.19426524450E+03  0.47000000000E+01 0. -1.
        -11    1    4    4    0    0  0.59753833151E+02  0.21511366797E+02  0.46133904546E+03  0.46568978338E+03  0.00000000000E+00 0.  1.
         12    1    4    4    0    0 -0.10288849309E+02  0.62934588558E+01  0.10013198152E+02  0.15675847081E+02  0.00000000000E+00 0. -1.
         -5    1    5    5    0  501 -0.10141146497E+03 -0.35008623712E+02  0.16575603869E+02  0.10865877602E+03  0.47000000000E+01 0.  1.
         13    1    6    6    0    0  0.21461007694E+02 -0.87502520479E+01  0.26029831256E+02  0.34852458699E+02  0.00000000000E+00 0. -1.
        -14    1    6    6    0    0 -0.72881122381E+02 -0.16135546543E+02  0.12507845580E+03  0.14565930786E+03  0.00000000000E+00 0.  1.
</event>
<event>
12    1  0.2685360E-002  0.1909886E+03  0.7818608E-02  0.1157573E+00
         -2   -1    0    0    0  501 -0.00000000000E+00  0.00000000000E+00  0.25919556950E+02  0.25919556950E+02  0.00000000000E+00 0. -1.
          2   -1    0    0  502    0  0.00000000000E+00 -0.00000000000E+00 -0.14667430193E+04  0.14667430193E+04  0.00000000000E+00 0.  1.
          6    2    1    2  502    0 -0.79122798408E+02  0.16401251239E+02 -0.56869699732E+03  0.59978098466E+03  0.17260224947E+03 0.  0.
         24    2    3    3    0    0 -0.50524890700E+02 -0.18549408464E+02 -0.53457313586E+03  0.54298382927E+03  0.78524875867E+02 0.  0.
         -6    2    1    2    0  501  0.79122798408E+02 -0.16401251239E+02 -0.87212646498E+03  0.89288159154E+03  0.17350373866E+03 0.  0.
        -24    2    5    5    0    0  0.10530654150E+03 -0.17566989426E+02 -0.41627387685E+03  0.43625196105E+03  0.75058418347E+02 0.  0.
          5    1    3    3  502    0 -0.28597907709E+02  0.34950659703E+02 -0.34123861459E+02  0.56797155385E+02  0.47000000000E+01 0. -1.
        -13    1    4    4    0    0 -0.48114057675E+00  0.24945742919E+02 -0.22566393370E+03  0.22703905514E+03  0.00000000000E+00 0.  1.
         14    1    4    4    0    0 -0.50043750123E+02 -0.43495151383E+02 -0.30890920216E+03  0.31594477413E+03  0.00000000000E+00 0. -1.
         -5    1    5    5    0  501 -0.26183743094E+02  0.11657381870E+01 -0.45585258812E+03  0.45662963050E+03  0.47000000000E+01 0.  1.
         13    1    6    6    0    0  0.87531454815E+02  0.16803114345E+02 -0.32749608715E+03  0.33940799539E+03  0.00000000000E+00 0. -1.
        -14    1    6    6    0    0  0.17775086687E+02 -0.34370103770E+02 -0.88777789705E+02  0.96843965660E+02  0.00000000000E+00 0.  1.
</event>
<event>
12    1  0.2685360E-002  0.2776415E+03  0.7818608E-02  0.1096984E+00
          2   -1    0    0  502    0  0.00000000000E+00  0.00000000000E+00  0.15426899206E+04  0.15426899206E+04  0.00000000000E+00 0.  1.
         -2   -1    0    0    0  501 -0.00000000000E+00 -0.00000000000E+00 -0.52613006293E+02  0.52613006293E+02  0.00000000000E+00 0. -1.
          6    2    1    2  502    0 -0.10767050620E+03 -0.18952358623E+03  0.56523408463E+03  0.62957670006E+03  0.17136254896E+03 0.  0.
         24    2    3    3    0    0 -0.12527302006E+03 -0.18565806817E+03  0.41476452165E+03  0.47795885774E+03  0.79074733283E+02 0.  0.
         -6    2    1    2    0  501  0.10767050620E+03  0.18952358623E+03  0.92484282967E+03  0.96572622683E+03  0.17257102292E+03 0.  0.
        -24    2    5    5    0    0  0.36597504597E+02  0.19904933924E+02  0.26571177873E+03  0.28140342940E+03  0.82762050395E+02 0.  0.
          5    1    3    3  502    0  0.17602513858E+02 -0.38655180553E+01  0.15046956298E+03  0.15161784232E+03  0.47000000000E+01 0. -1.
        -11    1    4    4    0    0  0.84934154240E+01 -0.22694623172E+01  0.68662311400E+01  0.11154985201E+02  0.00000000000E+00 0.  1.
         12    1    4    4    0    0 -0.13376643549E+03 -0.18338860586E+03  0.40789829051E+03  0.46680387254E+03  0.00000000000E+00 0. -1.
         -5    1    5    5    0  501  0.71073001608E+02  0.16961865230E+03  0.65913105094E+03  0.68432279743E+03  0.47000000000E+01 0.  1.
         11    1    6    6    0    0 -0.82339683032E+01  0.52649565109E+01 -0.16520538373E+01  0.99119767434E+01  0.00000000000E+00 0. -1.
        -12    1    6    6    0    0  0.44831472900E+02  0.14639977413E+02  0.26736383257E+03  0.27149145266E+03  0.00000000000E+00 0.  1.
</event>
<event>
12    1  0.2685360E-002  0.2358729E+03  0.7818608E-02  0.1122573E+00
          2   -1    0    0  502    0  0.00000000000E+00  0.00000000000E+00  0.23154523505E+04  0.23154523505E+04  0.00000000000E+00 0. -1.
         -2   -1    0    0    0  501 -0.00000000000E+00 -0.00000000000E+00 -0.29249653005E+02  0.29249653005E+02  0.00000000000E+00 0.  1.
          6    2    1    2  502    0 -0.15813831624E+03 -0.33148520003E+02  0.16382955041E+04  0.16551833538E+04  0.17179413410E+03 0.  0.
         24    2    3    3    0    0 -0.41313862289E+02 -0.32911733967E+02  0.39146628927E+03  0.40288419223E+03  0.79245184514E+02 0.  0.
         -6    2    1    2    0  501  0.15813831624E+03  0.33148520003E+02  0.64790719336E+03  0.68951864967E+03  0.17188858481E+03 0.  0.
        -24    2    5    5    0    0  0.32512515144E+02  0.94003829438E+01  0.42078223661E+03  0.42883943704E+03  0.75499279970E+02 0.  0.
          5    1    3    3  502    0 -0.11682445396E+03 -0.23678603632E+00  0.12468292148E+04  0.12522991616E+04  0.47000000000E+01 0. -1.
        -11    1    4    4    0    0 -0.10185860237E+02  0.14853456292E+01  0.17800961660E+01  0.10446374623E+02  0.00000000000E+00 0.  1.
         12    1    4    4    0    0 -0.31128002051E+02 -0.34397079596E+02  0.38968619310E+03  0.39243781761E+03  0.00000000000E+00 0. -1.
         -5    1    5    5    0  501  0.12562580110E+03  0.23748137060E+02  0.22712495675E+03  0.26067921263E+03  0.47000000000E+01 0.  1.
         11    1    6    6    0    0  0.10008533544E+02 -0.23356719496E+02  0.51531153456E+02  0.57455781831E+02  0.00000000000E+00 0. -1.
        -12    1    6    6    0    0  0.22503981600E+02  0.32757102439E+02  0.36925108315E+03  0.37138365521E+03  0.00000000000E+00 0.  1.
</event>
<event>
12    1  0.2685360E-002  0.1969687E+03  0.7818608E-02  0.1152322E+00
          1   -1    0    0  502    0  0.00000000000E+00  0.00000000000E+00  0.51847676023E+03  0.51847676023E+03  0.00000000000E+00 0.  1.
         -1   -1    0    0    0  501 -0.00000000000E+00 -0.00000000000E+00 -0.11202976532E+03  0.11202976532E+03  0.00000000000E+00 0. -1.
          6    2    1    2  502    0 -0.70334248787E+02  0.65859113609E+02  0.20956516582E+02  0.19720816191E+03  0.17078511100E+03 0.  0.
         24    2    3    3    0    0 -0.73568016367E+02 -0.96604050335E+01  0.44557104657E+02  0.11788141544E+03  0.80031969067E+02 0.  0.
         -6    2    1    2    0  501  0.70334248787E+02 -0.65859113609E+02  0.38549047833E+03  0.43329836364E+03  0.17280113903E+03 0.  0.
        -24    2    5    5    0    0  0.21500571262E+02 -0.39110009546E+02  0.36851562409E+03  0.37489906308E+03  0.52475469438E+02 0.  0.
          5    1    3    3  502    0  0.32337675806E+01  0.75519518642E+02 -0.23600588075E+02  0.79326746475E+02  0.47000000000E+01 0. -1.
        -13    1    4    4    0    0 -0.25097687687E+00 -0.30897696919E+02  0.31931125759E+01  0.31063268216E+02  0.00000000000E+00 0.  1.
         14    1    4    4    0    0 -0.73317039490E+02  0.21237291886E+02  0.41363992081E+02  0.86818147223E+02  0.00000000000E+00 0. -1.
         -5    1    5    5    0  501  0.48833677524E+02 -0.26749104063E+02  0.16974854242E+02  0.58399300555E+02  0.47000000000E+01 0.  1.
         13    1    6    6    0    0 -0.61365888537E+01 -0.13960644282E+02  0.24489185720E+02  0.28849220592E+02  0.00000000000E+00 0. -1.
        -14    1    6    6    0    0  0.27637160116E+02 -0.25149365264E+02  0.34402643837E+03  0.34604984249E+03  0.00000000000E+00 0.  1.
</event>
<event>
12    1  0.2685360E-002  0.1766931E+03  0.7818608E-02  0.1171042E+00
         -1   -1    0    0    0  501 -0.00000000000E+00  0.00000000000E+00  0.11875963973E+03  0.11875963973E+03  0.00000000000E+00 0. -1.
          1   -1    0    0  502    0  0.00000000000E+00 -0.00000000000E+00 -0.30001523561E+03  0.30001523561E+03  0.00000000000E+00 0.  1.
          6    2    1    2  502    0 -0.31374527510E+02  0.20022575577E+02 -0.17232423526E+02  0.17810978193E+03  0.17332303220E+03 0.  0.
         24    2    3    3    0    0 -0.59214576204E+02  0.13841226927E+02 -0.67471762918E+02  0.12014980777E+03  0.78648534113E+02 0.  0.
         -6    2    1    2    0  501  0.31374527510E+02 -0.20022575577E+02 -0.16402317236E+03  0.24066509340E+03  0.17213605550E+03 0.  0.
        -24    2    5    5    0    0  0.52712377240E+02  0.44977202844E+02 -0.82334377493E+02  0.13400945955E+03  0.79862644845E+02 0.  0.
          5    1    3    3  502    0  0.27840048694E+02  0.61813486494E+01  0.50239339392E+02  0.57959974163E+02  0.47000000000E+01 0. -1.
        -11    1    4    4    0    0 -0.26014772804E+01  0.33015560976E+02 -0.46614087258E+01  0.33444337068E+02  0.00000000000E+00 0.  1.
         12    1    4    4    0    0 -0.56613098923E+02 -0.19174334049E+02 -0.62810354192E+02  0.86705470702E+02  0.00000000000E+00 0. -1.
         -5    1    5    5    0  501 -0.21337849730E+02 -0.64999778420E+02 -0.81688794867E+02  0.10665563385E+03  0.47000000000E+01 0.  1.
         11    1    6    6    0    0  0.48119893546E+02 -0.86015148866E+00 -0.11449756587E+02  0.49470808983E+02  0.00000000000E+00 0. -1.
        -12    1    6    6    0    0  0.45924836936E+01  0.45837354332E+02 -0.70884620905E+02  0.84538650566E+02  0.00000000000E+00 0.  1.
</event>
<event>
12    1  0.2685360E-002  0.1753553E+03  0.7818608E-02  0.1172375E+00
          2   -1    0    0  502    0  0.00000000000E+00  0.00000000000E+00  0.19729503946E+04  0.19729503946E+04  0.00000000000E+00 0. -1.
         -2   -1    0    0    0  501 -0.00000000000E+00 -0.00000000000E+00 -0.20709577360E+02  0.20709577360E+02  0.00000000000E+00 0.  1.
          6    2    1    2  502    0  0.19084947198E+02  0.27090105954E+02  0.47834176676E+03  0.50931124330E+03  0.17172357925E+03 0.  0.
         24    2    3    3    0    0  0.22446885250E+01 -0.31150014980E+02  0.40516546758E+03  0.41416731674E+03  0.80000925477E+02 0.  0.
         -6    2    1    2    0  501 -0.19084947198E+02 -0.27090105954E+02  0.14738990505E+04  0.14843487287E+04  0.17266912935E+03 0.  0.
        -24    2    5    5    0    0 -0.34889753110E+02  0.42001586665E+02  0.82479174100E+03  0.83136646007E+03  0.88923263273E+02 0.  0.
          5    1    3    3  502    0  0.16840258673E+02  0.58240120934E+02  0.73176299179E+02  0.95143926554E+02  0.47000000000E+01 0. -1.
        -11    1    4    4    0    0  0.33466234053E+01 -0.61302775320E+00 -0.31937424847E+01  0.46664421460E+01  0.00000000000E+00 0.  1.
         12    1    4    4    0    0 -0.11019348803E+01 -0.30536987226E+02  0.40835921007E+03  0.40950087460E+03  0.00000000000E+00 0. -1.
         -5    1    5    5    0  501  0.15804805912E+02 -0.69091692620E+02  0.64910730953E+03  0.65298226864E+03  0.47000000000E+01 0.  1.
         11    1    6    6    0    0 -0.16588470968E+02  0.23946235793E+02  0.77296455287E+03  0.77351328338E+03  0.00000000000E+00 0. -1.
        -12    1    6    6    0    0 -0.18301282141E+02  0.18055350872E+02  0.51827188135E+02  0.57853176690E+02  0.00000000000E+00 0.  1.
</event>
<event>
12    1  0.2685360E-002  0.1781839E+03  0.7818608E-02  0.1169572E+00
          2   -1    0    0  502    0  0.00000000000E+00  0.00000000000E+00  0.46223660524E+03  0.46223660524E+03  0.00000000000E+00 0. -1.
         -2   -1    0    0    0  501 -0.00000000000E+00 -0.00000000000E+00 -0.85353896038E+02  0.85353896038E+02  0.00000000000E+00 0.  1.
          6    2    1    2  502    0 -0.45795151500E+02 -0.68042463289E+01  0.30935186794E+03  0.35695279350E+03  0.17196867423E+03 0.  0.
         24    2    3    3    0    0 -0.71204300595E+02 -0.55365184161E+02  0.17985765864E+03  0.21625940422E+03  0.79271662690E+02 0.  0.
         -6    2    1    2    0  501  0.45795151500E+02  0.68042463289E+01  0.67530841263E+02  0.19063770778E+03  0.17215930831E+03 0.  0.
        -24    2    5    5    0    0  0.39660557224E+02 -0.47881386024E+02  0.87750521827E+02  0.13182378839E+03  0.76234966890E+02 0.  0.
          5    1    3    3  502    0  0.25409149095E+02  0.48560937832E+02  0.12949420931E+03  0.14069338927E+03  0.47000000000E+01 0. -1.
        -11    1    4    4    0    0 -0.63250612841E+02 -0.54007373710E+02  0.77812239551E+02  0.11389548307E+03  0.00000000000E+00 0.  1.
         12    1    4    4    0    0 -0.79536877533E+01 -0.13578104510E+01  0.10204541908E+03  0.10236392115E+03  0.00000000000E+00 0. -1.
         -5    1    5    5    0  501  0.61345942759E+01  0.54685632353E+02 -0.20219680564E+02  0.58813919398E+02  0.47000000000E+01 0.  1.
         11    1    6    6    0    0 -0.85141669797E+00 -0.56179699250E+02  0.58902690334E+02  0.81402766825E+02  0.00000000000E+00 0. -1.
        -12    1    6    6    0    0  0.40511973922E+02  0.82983132254E+01  0.28847831493E+02  0.50421021561E+02  0.00000000000E+00 0.  1.
</event>
<event>
12    1  0.2685360E-002  0.2637642E+03  0.7818608E-02  0.1104902E+00
          4   -1    0    0  502    0  0.00000000000E+00  0.00000000000E+00  0.60492718479E+03  0.60492718479E+03  0.00000000000E+00 0. -1.
         -4   -1    0    0    0  501 -0.00000000000E+00 -0.00000000000E+00 -0.13027543669E+03  0.13027543669E+03  0.00000000000E+00 0.  1.
          6    2    1    2  502    0 -0.16954326265E+02  0.19845902573E+03  0.11072936522E+03  0.28518222549E+03  0.17144817101E+03 0.  0.
         24    2    3    3    0    0 -0.19251474089E+02  0.18259868479E+03  0.28800410964E+02  0.20156840577E+03  0.78022173717E+02 0.  0.
         -6    2    1    2    0  501  0.16954326265E+02 -0.19845902573E+03  0.36392238288E+03  0.45002039598E+03  0.17437150561E+03 0.  0.
        -24    2    5    5    0    0 -0.34075100406E+02 -0.38920201991E+02  0.15974894371E+03  0.18588875849E+03  0.79743406776E+02 0.  0.
          5    1    3    3  502    0  0.22971478235E+01  0.15860340934E+02  0.81928954256E+02  0.83613819720E+02  0.47000000000E+01 0. -1.
        -13    1    4    4    0    0 -0.19414647719E+02  0.16567609122E+03  0.50280173018E+02  0.17422282155E+03  0.00000000000E+00 0.  1.
         14    1    4    4    0    0  0.16317363015E+00  0.16922593567E+02 -0.21479762053E+02  0.27345584224E+02  0.00000000000E+00 0. -1.
         -5    1    5    5    0  501  0.51029426672E+02 -0.15953882374E+03  0.20417343917E+03  0.26413163750E+03  0.47000000000E+01 0.  1.
         11    1    6    6    0    0  0.17664326576E+02 -0.27535191417E+02  0.10381981400E+03  0.10885205087E+03  0.00000000000E+00 0. -1.
        -12    1    6    6    0    0 -0.51739426982E+02 -0.11385010574E+02  0.55929129712E+02  0.77036707617E+02  0.00000000000E+00 0.  1.
</event>
<event>
12    1  0.2685360E-002  0.1996934E+03  0.7818608E-02  0.1149998E+00
         -3   -1    0    0    0  501 -0.00000000000E+00  0.00000000000E+00  0.19784113059E+02  0.19784113059E+02  0.00000000000E+00 0.  1.
          3   -1    0    0  502    0  0.00000000000E+00 -0.00000000000E+00 -0.20200340193E+04  0.20200340193E+04  0.00000000000E+00 0. -1.
          6    2    1    2  502    0 -0.80436416282E+02 -0.61518863646E+02 -0.95449184683E+03  0.97523744338E+03  0.17256534317E+03 0.  0.
         24    2    3    3    0    0 -0.35923295511E+02 -0.89322871535E+02 -0.83886073786E+03  0.84816610854E+03  0.80183237805E+02 0.  0.
         -6    2    1    2    0  501  0.80436416282E+02  0.61518863646E+02 -0.10457580594E+04  0.10645806890E+04  0.17166111054E+03 0.  0.
        -24    2    5    5    0    0 -0.16751587563E+02  0.17560063864E+02 -0.30684416441E+03  0.31799263765E+03  0.79856150881E+02 0.  0.
          5    1    3    3  502    0 -0.44513120772E+02  0.27804007889E+02 -0.11563110897E+03  0.12707133484E+03  0.47000000000E+01 0. -1.
        -13    1    4    4    0    0 -0.46261440790E+02 -0.86215758351E+02 -0.52013915439E+03  0.52926176683E+03  0.00000000000E+00 0.  1.
         14    1    4    4    0    0  0.10338145279E+02 -0.31071131836E+01 -0.31872158346E+03  0.31890434172E+03  0.00000000000E+00 0. -1.
         -5    1    5    5    0  501  0.97188003845E+02  0.43958799782E+02 -0.73891389503E+03  0.74658805136E+03  0.47000000000E+01 0.  1.
         13    1    6    6    0    0 -0.16009592433E+02  0.11549025534E+02 -0.12032084417E+02  0.23118349770E+02  0.00000000000E+00 0. -1.
        -14    1    6    6    0    0 -0.74199512965E+00  0.60110383303E+01 -0.29481208000E+03  0.29487428788E+03  0.00000000000E+00 0.  1.
</event>
<event>
12    1  0.2685360E-002  0.1721563E+03  0.7818608E-02  0.1175618E+00
         -2   -1    0    0    0  501 -0.00000000000E+00  0.00000000000E+00  0.45067709723E+02  0.45067709723E+02  0.00000000000E+00 0.  1.
          2   -1    0    0  502    0  0.00000000000E+00 -0.00000000000E+00 -0.74761452415E+03  0.74761452415E+03  0.00000000000E+00 0. -1.
          6    2    1    2  502    0 -0.31319466150E+02  0.70755403026E+01 -0.48946078859E+03  0.51898108728E+03  0.16952443233E+03 0.  0.
         24    2    3    3    0    0  0.40270129153E+02 -0.28623771414E+02 -0.31385337033E+03  0.32595371524E+03  0.72807161825E+02 0.  0.
         -6    2    1    2    0  501  0.31319466150E+02 -0.70755403026E+01 -0.21308602584E+03  0.27370114660E+03  0.16874741778E+03 0.  0.
        -24    2    5    5    0    0  0.50087696445E+02  0.66758306123E+01 -0.22722762796E+03  0.24607106189E+03  0.79782382417E+02 0.  0.
          5    1    3    3  502    0 -0.71589595303E+02  0.35699311717E+02 -0.17560741825E+03  0.19302737204E+03  0.47000000000E+01 0. -1.
        -11    1    4    4    0    0  0.10420685956E+02 -0.33454710868E+02 -0.54165358149E+02  0.64511195916E+02  0.00000000000E+00 0.  1.
         12    1    4    4    0    0  0.29849443197E+02  0.48309394535E+01 -0.25968801219E+03  0.26144251932E+03  0.00000000000E+00 0. -1.
         -5    1    5    5    0  501 -0.18768230295E+02 -0.13751370915E+02  0.14141602114E+02  0.27630084705E+02  0.47000000000E+01 0.  1.
         11    1    6    6    0    0  0.32479064916E+01 -0.29244408200E+02 -0.12119373321E+03  0.12471449505E+03  0.00000000000E+00 0. -1.
        -12    1    6    6    0    0  0.46839789953E+02  0.35920238812E+02 -0.10603389475E+03  0.12135656684E+03  0.00000000000E+00 0.  1.
</event>
<event>
12    1  0.2685360E-002  0.2433811E+03  0.7818608E-02  0.1117561E+00
          2   -1    0    0  502    0  0.00000000000E+00  0.00000000000E+00  0.16431315007E+04  0.16431315007E+04  0.00000000000E+00 0.  1.
         -2   -1    0    0    0  501 -0.00000000000E+00 -0.00000000000E+00 -0.36056667940E+02  0.36056667940E+02  0.00000000000E+00 0. -1.
          6    2    1    2  502    0  0.17030895880E+03  0.30494880705E+02  0.79118599302E+03  0.82771243427E+03  0.17087281554E+03 0.  0.
         24    2    3    3    0    0  0.12131973638E+03  0.83877948511E+02  0.60068995741E+03  0.62384844670E+03  0.81267895505E+02 0.  0.
         -6    2    1    2    0  501 -0.17030895880E+03 -0.30494880705E+02  0.81588883976E+03  0.85147573439E+03  0.17146792185E+03 0.  0.
        -24    2    5    5    0    0 -0.14781221955E+03  0.75742461046E+01  0.41287780903E+03  0.44601877912E+03  0.80986694485E+02 0.  0.
          5    1    3    3  502    0  0.48989222416E+02 -0.53383067806E+02  0.19049603561E+03  0.20386398757E+03  0.47000000000E+01 0. -1.
        -11    1    4    4    0    0  0.10879715073E+03  0.59322072327E+02  0.56667986346E+03  0.58007068183E+03  0.00000000000E+00 0.  1.
         12    1    4    4    0    0  0.12522585650E+02  0.24555876184E+02  0.34010093950E+02  0.43777764870E+02  0.00000000000E+00 0. -1.
         -5    1    5    5    0  501 -0.22496739244E+02 -0.38069126810E+02  0.40301103072E+03  0.40545695527E+03  0.47000000000E+01 0.  1.
         11    1    6    6    0    0 -0.12326537447E+02 -0.17313979389E+02  0.18163788758E+02  0.27957836643E+02  0.00000000000E+00 0. -1.
        -12    1    6    6    0    0 -0.13548568211E+03  0.24888225494E+02  0.39471402028E+03  0.41806094248E+03  0.00000000000E+00 0.  1.
</event>
<event>
12    1  0.2685360E-002  0.1804084E+03  0.7818608E-02  0.1167408E+00
         -2   -1    0    0    0  501 -0.00000000000E+00  0.00000000000E+00  0.18267234834E+02  0.18267234834E+02  0.00000000000E+00 0.  1.
          2   -1    0    0  502    0  0.00000000000E+00 -0.00000000000E+00 -0.20243305477E+04  0.20243305477E+04  0.00000000000E+00 0. -1.
          6    2    1    2  502    0 -0.41589683285E+02  0.26135403778E+02 -0.65878591423E+03  0.68354096006E+03  0.17554658128E+03 0.  0.
         24    2    3    3    0    0 -0.72518007792E+02  0.13677605513E+02 -0.63077876850E+03  0.63974314953E+03  0.77094125869E+02 0.  0.
         -6    2    1    2    0  501  0.41589683285E+02 -0.26135403778E+02 -0.13472773986E+04  0.13590568225E+04  0.17165749841E+03 0.  0.
        -24    2    5    5    0    0  0.31175001121E+01  0.27840505938E+02 -0.36848573328E+03  0.37801211306E+03  0.79539986236E+02 0.  0.
          5    1    3    3  502    0  0.30928324507E+02  0.12457798265E+02 -0.28007145736E+02  0.43797810524E+02  0.47000000000E+01 0. -1.
        -13    1    4    4    0    0 -0.24071395015E+02 -0.32062719883E+02 -0.23593013061E+03  0.23931250823E+03  0.00000000000E+00 0.  1.
         14    1    4    4    0    0 -0.48446612778E+02  0.45740325397E+02 -0.39484863789E+03  0.40043064131E+03  0.00000000000E+00 0. -1.
         -5    1    5    5    0  501  0.38472183173E+02 -0.53975909716E+02 -0.97879166535E+03  0.98104470942E+03  0.47000000000E+01 0.  1.
         11    1    6    6    0    0 -0.27666671415E+02 -0.15030257128E+02 -0.13057882759E+03  0.13432119547E+03  0.00000000000E+00 0. -1.
        -12    1    6    6    0    0  0.30784171527E+02  0.42870763065E+02 -0.23790690569E+03  0.24369091759E+03  0.00000000000E+00 0.  1.
</event>
<event>
12    1  0.2685360E-002  0.1733638E+03  0.7818608E-02  0.1174385E+00
          2   -1    0    0  502    0  0.00000000000E+00  0.00000000000E+00  0.24291281214E+03  0.24291281214E+03  0.00000000000E+00 0. -1.
         -2   -1    0    0    0  501 -0.00000000000E+00 -0.00000000000E+00 -0.19856218555E+03  0.19856218555E+03  0.00000000000E+00 0.  1.
          6    2    1    2  502    0 -0.18514054274E+02 -0.16193104439E+02 -0.11332058607E+03  0.20728651665E+03  0.17181722243E+03 0.  0.
         24    2    3    3    0    0  0.14366082879E+02 -0.30287624609E+02 -0.13881962884E+03  0.16310450561E+03  0.78793818640E+02 0.  0.
         -6    2    1    2    0  501  0.18514054274E+02  0.16193104439E+02  0.15767121265E+03  0.23418848104E+03  0.17140316950E+03 0.  0.
        -24    2    5    5    0    0 -0.52437295934E+02 -0.27583153694E+01  0.10439141212E+03  0.14333652699E+03  0.83009124416E+02 0.  0.
          5    1    3    3  502    0 -0.32880137154E+02  0.14094520170E+02  0.25499042769E+02  0.44182011048E+02  0.47000000000E+01 0. -1.
        -13    1    4    4    0    0  0.45678712479E+02 -0.63219722821E+01 -0.78394352900E+02  0.90951562240E+02  0.00000000000E+00 0.  1.
         14    1    4    4    0    0 -0.31312629600E+02 -0.23965652327E+02 -0.60425275941E+02  0.72152943367E+02  0.00000000000E+00 0. -1.
         -5    1    5    5    0  501  0.70951350209E+02  0.18951419809E+02  0.53279800530E+02  0.90851954045E+02  0.47000000000E+01 0.  1.
         13    1    6    6    0    0  0.16832973924E+01  0.30367113700E+02  0.15540676979E+02  0.34154175814E+02  0.00000000000E+00 0. -1.
        -14    1    6    6    0    0 -0.54120593327E+02 -0.33125429069E+02  0.88850735144E+02  0.10918235118E+03  0.00000000000E+00 0.  1.
</event>
<event>
12    1  0.2685360E-002  0.2484072E+03  0.7818608E-02  0.1114316E+00
          3   -1    0    0  502    0  0.00000000000E+00  0.00000000000E+00  0.39806080615E+02  0.39806080615E+02  0.00000000000E+00 0. -1.
         -3   -1    0    0    0  501 -0.00000000000E+00 -0.00000000000E+00 -0.19590281894E+04  0.19590281894E+04  0.00000000000E+00 0.  1.
          6    2    1    2  502    0  0.11783541401E+03  0.13203618476E+03 -0.14181487917E+04  0.14398516737E+04  0.17523729063E+03 0.  0.
         24    2    3    3    0    0  0.12567340628E+03  0.72320609721E+02 -0.70078258536E+03  0.71994629937E+03  0.78755103889E+02 0.  0.
         -6    2    1    2    0  501 -0.11783541401E+03 -0.13203618476E+03 -0.50107331707E+03  0.55898259629E+03  0.17340223466E+03 0.  0.
        -24    2    5    5    0    0 -0.62856767537E+02 -0.34693886827E+02 -0.11612608817E+03  0.15810277193E+03  0.79728157700E+02 0.  0.
          5    1    3    3  502    0 -0.78379922692E+01  0.59715575038E+02 -0.71736620634E+03  0.71990537436E+03  0.47000000000E+01 0. -1.
        -13    1    4    4    0    0  0.10679034232E+03  0.62092865369E+02 -0.67582205239E+03  0.68701903004E+03  0.00000000000E+00 0.  1.
         14    1    4    4    0    0  0.18883063956E+02  0.10227744352E+02 -0.24960532970E+02  0.32927269322E+02  0.00000000000E+00 0. -1.
         -5    1    5    5    0  501 -0.54978646471E+02 -0.97342297932E+02 -0.38494722890E+03  0.40087982435E+03  0.47000000000E+01 0.  1.
         11    1    6    6    0    0 -0.50272316410E+02 -0.43415875543E+01 -0.11459142150E+03  0.12520922115E+03  0.00000000000E+00 0. -1.
        -12    1    6    6    0    0 -0.12584451127E+02 -0.30352299273E+02 -0.15346666734E+01  0.32893550783E+02  0.00000000000E+00 0.  1.
</event>
<event>
12    1  0.2685360E-002  0.1813464E+03  0.7818608E-02  0.1166506E+00
          1   -1    0    0  502    0  0.00000000000E+00  0.00000000000E+00  0.22870338546E+03  0.22870338546E+03  0.00000000000E+00 0.  1.
         -1   -1    0    0    0  501 -0.00000000000E+00 -0.00000000000E+00 -0.15054580185E+03  0.15054580185E+03  0.00000000000E+00 0. -1.
          6    2    1    2  502    0 -0.15387628320E+02  0.53836092530E+02 -0.11895770642E+01  0.18077047563E+03  0.17187625142E+03 0.  0.
         24    2    3    3    0    0  0.18676003712E+02  0.44917045608E+02  0.58182409779E+02  0.11158230289E+03  0.81847928565E+02 0.  0.
         -6    2    1    2    0  501  0.15387628320E+02 -0.53836092530E+02  0.79347160673E+02  0.19847871169E+03  0.17309743823E+03 0.  0.
        -24    2    5    5    0    0 -0.18737108071E+02  0.35271930748E+02  0.33805288025E+02  0.92644456311E+02  0.76452661623E+02 0.  0.
          5    1    3    3  502    0 -0.34063632032E+02  0.89190469225E+01 -0.59371986843E+02  0.69188172739E+02  0.47000000000E+01 0. -1.
        -13    1    4    4    0    0 -0.23439149662E+02  0.30345446088E+02  0.62991742690E-01  0.38343758333E+02  0.00000000000E+00 0.  1.
         14    1    4    4    0    0  0.42115153374E+02  0.14571599520E+02  0.58119418036E+02  0.73238544559E+02  0.00000000000E+00 0. -1.
         -5    1    5    5    0  501  0.34124736392E+02 -0.89108023278E+02  0.45541872648E+02  0.10583425537E+03  0.47000000000E+01 0.  1.
         11    1    6    6    0    0 -0.12386860787E+02 -0.20974249143E+02 -0.38483510664E+01  0.24660966185E+02  0.00000000000E+00 0. -1.
        -12    1    6    6    0    0 -0.63502472846E+01  0.56246179891E+02  0.37653639091E+02  0.67983490126E+02  0.00000000000E+00 0.  1.
</event>
<event>
12    1  0.2685360E-002  0.3064047E+03  0.7818608E-02  0.1082082E+00
         -2   -1    0    0    0  501 -0.00000000000E+00  0.00000000000E+00  0.58773858242E+02  0.58773858242E+02  0.00000000000E+00 0. -1.
          2   -1    0    0  502    0  0.00000000000E+00 -0.00000000000E+00 -0.27867419729E+04  0.27867419729E+04  0.00000000000E+00 0.  1.
          6    2    1    2  502    0 -0.22162844927E+03 -0.12650829035E+03 -0.22893704898E+04  0.23095732232E+04  0.16669648040E+03 0.  0.
         24    2    3    3    0    0 -0.11941137074E+03 -0.48814041409E+02 -0.77337865102E+03  0.78814689479E+03  0.80119309819E+02 0.  0.
         -6    2    1    2    0  501  0.22162844927E+03  0.12650829035E+03 -0.43859762485E+03  0.53594260796E+03  0.17246183767E+03 0.  0.
        -24    2    5    5    0    0  0.48952558885E+02  0.36936439777E+02 -0.23567917175E+03  0.25480550948E+03  0.74970141121E+02 0.  0.
          5    1    3    3  502    0 -0.10221707853E+03 -0.77694248942E+02 -0.15159918388E+04  0.15214263284E+04  0.47000000000E+01 0. -1.
        -11    1    4    4    0    0 -0.75122833125E+02  0.17570057852E+01 -0.54255033023E+03  0.54772930172E+03  0.00000000000E+00 0.  1.
         12    1    4    4    0    0 -0.44288537613E+02 -0.50571047195E+02 -0.23082832079E+03  0.24041759307E+03  0.00000000000E+00 0. -1.
         -5    1    5    5    0  501  0.17267589038E+03  0.89571850574E+02 -0.20291845310E+03  0.28113709848E+03  0.47000000000E+01 0.  1.
         13    1    6    6    0    0  0.58651894718E+02  0.50733024551E+02 -0.21196725875E+03  0.22570778302E+03  0.00000000000E+00 0. -1.
        -14    1    6    6    0    0 -0.96993358330E+01 -0.13796584773E+02 -0.23711913005E+02  0.29097726464E+02  0.00000000000E+00 0.  1.
</event>
<event>
12    1  0.2685360E-002  0.2056071E+03  0.7818608E-02  0.1145093E+00
          1   -1    0    0  502    0  0.00000000000E+00  0.00000000000E+00  0.54611450283E+02  0.54611450283E+02  0.00000000000E+00 0.  1.
         -1   -1    0    0    0  501 -0.00000000000E+00 -0.00000000000E+00 -0.10317128955E+04  0.10317128955E+04  0.00000000000E+00 0. -1.
          6    2    1    2  502    0 -0.18839533431E+02  0.11115967767E+03 -0.75970947978E+03  0.78700241580E+03  0.17176410234E+03 0.  0.
         24    2    3    3    0    0 -0.58813129581E+02  0.98689860142E+02 -0.70183466515E+03  0.71541352765E+03  0.77755679121E+02 0.  0.
         -6    2    1    2    0  501  0.18839533431E+02 -0.11115967767E+03 -0.21739196546E+03  0.29932193001E+03  0.17211318710E+03 0.  0.
        -24    2    5    5    0    0  0.45659472231E+02 -0.11516229916E+03 -0.97499989471E+02  0.17631174342E+03  0.78945806529E+02 0.  0.
          5    1    3    3  502    0  0.39973596149E+02  0.12469817529E+02 -0.57874814634E+02  0.71588888155E+02  0.47000000000E+01 0. -1.
        -13    1    4    4    0    0  0.14942530087E+02  0.22006758138E+00 -0.55678202921E+02  0.57648850081E+02  0.00000000000E+00 0.  1.
         14    1    4    4    0    0 -0.73755659668E+02  0.98469792561E+02 -0.64615646223E+03  0.65776467757E+03  0.00000000000E+00 0. -1.
         -5    1    5    5    0  501 -0.26819938799E+02  0.40026214925E+01 -0.11989197599E+03  0.12301018658E+03  0.47000000000E+01 0.  1.
         11    1    6    6    0    0  0.30942743732E+02 -0.92169655842E+01 -0.49439217878E+02  0.59047795121E+02  0.00000000000E+00 0. -1.
        -12    1    6    6    0    0  0.14716728498E+02 -0.10594533358E+03 -0.48060771593E+02  0.11726394830E+03  0.00000000000E+00 0.  1.
</event>
<event>
12    1  0.2685360E-002  0.2295504E+03  0.7818608E-02  0.1126957E+00
         -2   -1    0    0    0  501 -0.00000000000E+00  0.00000000000E+00  0.71952140219E+02  0.71952140219E+02  0.00000000000E+00 0.  1.
          2   -1    0    0  502    0  0.00000000000E+00 -0.00000000000E+00 -0.86914198262E+03  0.86914198262E+03  0.00000000000E+00 0. -1.
          6    2    1    2  502    0 -0.13711039167E+03  0.66941744599E+02 -0.58587061473E+03  0.62938425191E+03  0.17204564127E+03 0.  0.
         24    2    3    3    0    0 -0.93837055344E+02  0.21180277891E+02 -0.53161149523E+03  0.54612060126E+03  0.79893254572E+02 0.  0.
         -6    2    1    2    0  501  0.13711039167E+03 -0.66941744599E+02 -0.21131922768E+03  0.31170987093E+03  0.17095838961E+03 0.  0.
        -24    2    5    5    0    0  0.30725935428E+02 -0.82648895071E+02 -0.91545858389E+02  0.15067534949E+03  0.80916585389E+02 0.  0.
          5    1    3    3  502    0 -0.43273336324E+02  0.45761466708E+02 -0.54259119493E+02  0.83263650652E+02  0.47000000000E+01 0. -1.
        -11    1    4    4    0    0  0.38777789175E+01  0.24434229746E+02 -0.15816140527E+03  0.16008466157E+03  0.00000000000E+00 0.  1.
         12    1    4    4    0    0 -0.97714834261E+02 -0.32539518556E+01 -0.37345008997E+03  0.38603593969E+03  0.00000000000E+00 0. -1.
         -5    1    5    5    0  501  0.10638445624E+03  0.15707150473E+02 -0.11977336929E+03  0.16103452144E+03  0.47000000000E+01 0.  1.
         13    1    6    6    0    0  0.55093571969E+02 -0.76734065135E+02 -0.69343112949E+02  0.11718312907E+03  0.00000000000E+00 0. -1.
        -14    1    6    6    0    0 -0.24367636541E+02 -0.59148299365E+01 -0.22202745440E+02  0.33492220422E+02  0.00000000000E+00 0.  1.
</event>
<event>
12    1  0.2685360E-002  0.2361831E+03  0.7818608E-02  0.1122362E+00
          2   -1    0    0  502    0  0.00000000000E+00  0.00000000000E+00  0.19530032946E+04  0.19530032946E+04  0.00000000000E+00 0.  1.
         -2   -1    0    0    0  501 -0.00000000000E+00 -0.00000000000E+00 -0.37522213911E+02  0.37522213911E+02  0.00000000000E+00 0. -1.
          6    2    1    2  502    0 -0.39890709535E+02 -0.15523006815E+03  0.14407026565E+04  0.14597584145E+04  0.17199663227E+03 0.  0.
         24    2    3    3    0    0  0.23547395137E+02 -0.30033949042E+02  0.40127926173E+03  0.41089162365E+03  0.79689162247E+02 0.  0.
         -6    2    1    2    0  501  0.39890709535E+02  0.15523006815E+03  0.47477842422E+03  0.53076709404E+03  0.17496146215E+03 0.  0.
        -24    2    5    5    0    0  0.35858918698E+02  0.26469712637E+02  0.10516887600E+03  0.13932259909E+03  0.79773343917E+02 0.  0.
          5    1    3    3  502    0 -0.63438104672E+02 -0.12519611911E+03  0.10394233948E+04  0.10488667908E+04  0.47000000000E+01 0. -1.
        -11    1    4    4    0    0 -0.21591052156E+02 -0.34924305197E+02  0.23325301473E+03  0.23683929046E+03  0.00000000000E+00 0.  1.
         12    1    4    4    0    0  0.45138447292E+02  0.48903561545E+01  0.16802624700E+03  0.17405233319E+03  0.00000000000E+00 0. -1.
         -5    1    5    5    0  501  0.40317908374E+01  0.12876035552E+03  0.36960954822E+03  0.39144449495E+03  0.47000000000E+01 0.  1.
         13    1    6    6    0    0 -0.23107215527E+02  0.21767656998E+02  0.30085032866E+02  0.43736523675E+02  0.00000000000E+00 0. -1.
        -14    1    6    6    0    0  0.58966134225E+02  0.47020556391E+01  0.75083843133E+02  0.95586075411E+02  0.00000000000E+00 0.  1.
</event>
<event>
12    1  0.2685360E-002  0.1995477E+03  0.7818608E-02  0.1150121E+00
          2   -1    0    0  502    0  0.00000000000E+00  0.00000000000E+00  0.29361833016E+03  0.29361833016E+03  0.00000000000E+00 0.  1.
         -2   -1    0    0    0  501 -0.00000000000E+00 -0.00000000000E+00 -0.24126119408E+03  0.24126119408E+03  0.00000000000E+00 0. -1.
          6    2    1    2  502    0 -0.21315511130E+02  0.10025470748E+03 -0.15078172428E+03  0.25024700345E+03  0.17141492633E+03 0.  0.
         24    2    3    3    0    0  0.98831914673E+01  0.62813629597E+00 -0.22100254431E+02  0.84476609789E+02  0.80930861399E+02 0.  0.
         -6    2    1    2    0  501  0.21315511130E+02 -0.10025470748E+03  0.20313886037E+03  0.28463252080E+03  0.17101145551E+03 0.  0.
        -24    2    5    5    0    0 -0.47632152307E+01 -0.11831455122E+03  0.20689074427E+03  0.25234592052E+03  0.82786848541E+02 0.  0.
          5    1    3    3  502    0 -0.31198702597E+02  0.99626571185E+02 -0.12868146985E+03  0.16577039366E+03  0.47000000000E+01 0. -1.
        -13    1    4    4    0    0 -0.32662098202E+02 -0.13265224250E+02 -0.17862230621E+02  0.39520097623E+02  0.00000000000E+00 0.  1.
         14    1    4    4    0    0  0.42545289670E+02  0.13893360546E+02 -0.42380238103E+01  0.44956512166E+02  0.00000000000E+00 0. -1.
         -5    1    5    5    0  501  0.26078726360E+02  0.18059843737E+02 -0.37518839023E+01  0.32286600273E+02  0.47000000000E+01 0.  1.
         11    1    6    6    0    0 -0.31837502933E+02 -0.86150024212E+02  0.18100458796E+03  0.20297318573E+03  0.00000000000E+00 0. -1.
        -12    1    6    6    0    0  0.27074287702E+02 -0.32164527006E+02  0.25886156311E+02  0.49372734790E+02  0.00000000000E+00 0.  1.
</event>
<event>
12    1  0.2685360E-002  0.2126828E+03  0.7818608E-02  0.1139459E+00
         -3   -1    0    0    0  501 -0.00000000000E+00  0.00000000000E+00  0.10341733874E+04  0.10341733874E+04  0.00000000000E+00 0.  1.
          3   -1    0    0  502    0  0.00000000000E+00 -0.00000000000E+00 -0.45043398680E+02  0.45043398680E+02  0.00000000000E+00 0. -1.
          6    2    1    2  502    0  0.79222824006E+02  0.10576884892E+03  0.41364418091E+03  0.46721965967E+03  0.17242214688E+03 0.  0.
         24    2    3    3    0    0  0.10472333572E+03  0.59196057801E+02  0.19745357244E+03  0.24455450712E+03  0.79673354252E+02 0.  0.
         -6    2    1    2    0  501 -0.79222824006E+02 -0.10576884892E+03  0.57548580778E+03  0.61199712638E+03  0.16091383563E+03 0.  0.
        -24    2    5    5    0    0 -0.75605788442E+01 -0.10465320814E+03  0.30926719738E+03  0.33625964151E+03  0.80093013497E+02 0.  0.
          5    1    3    3  502    0 -0.25500511715E+02  0.46572791123E+02  0.21619060847E+03  0.22266515255E+03  0.47000000000E+01 0. -1.
        -13    1    4    4    0    0  0.52553510657E+01 -0.17007521050E+02  0.36199784679E+02  0.40339792983E+02  0.00000000000E+00 0.  1.
         14    1    4    4    0    0  0.99467984655E+02  0.76203578851E+02  0.16125378776E+03  0.20421471413E+03  0.00000000000E+00 0. -1.
         -5    1    5    5    0  501 -0.71662245162E+02 -0.11156407813E+01  0.26621861040E+03  0.27573748487E+03  0.47000000000E+01 0.  1.
         13    1    6    6    0    0 -0.30223664195E+02 -0.10499492126E+02  0.48622112541E+02  0.58204974360E+02  0.00000000000E+00 0. -1.
        -14    1    6    6    0    0  0.22663085351E+02 -0.94153716016E+02  0.26064508483E+03  0.27805466715E+03  0.00000000000E+00 0.  1.
</event>
<event>
12    1  0.2685360E-002  0.2067440E+03  0.7818608E-02  0.1144171E+00
          1   -1    0    0  502    0  0.00000000000E+00  0.00000000000E+00  0.11495697077E+04  0.11495697077E+04  0.00000000000E+00 0. -1.
         -1   -1    0    0    0  501 -0.00000000000E+00 -0.00000000000E+00 -0.37215105733E+02  0.37215105733E+02  0.00000000000E+00 0.  1.
          6    2    1    2  502    0 -0.10105541085E+03 -0.54500513131E+02  0.57325122690E+03  0.60930951186E+03  0.17163510745E+03 0.  0.
         24    2    3    3    0    0 -0.18022226456E+02 -0.63063301093E+02  0.43430618063E+03  0.44715018610E+03  0.83783350408E+02 0.  0.
         -6    2    1    2    0  501  0.10105541085E+03  0.54500513131E+02  0.53910337505E+03  0.57747530156E+03  0.17222883882E+03 0.  0.
        -24    2    5    5    0    0  0.11508202058E+02 -0.35123219085E+02  0.16927376135E+03  0.18651859149E+03  0.69061562786E+02 0.  0.
          5    1    3    3  502    0 -0.83033184393E+02  0.85627879613E+01  0.13894504627E+03  0.16215932576E+03  0.47000000000E+01 0. -1.
        -13    1    4    4    0    0  0.17367683093E+02 -0.58986651665E+02  0.17672053585E+03  0.18711282501E+03  0.00000000000E+00 0.  1.
         14    1    4    4    0    0 -0.35389909549E+02 -0.40766494275E+01  0.25758564478E+03  0.26003736110E+03  0.00000000000E+00 0. -1.
         -5    1    5    5    0  501  0.89547208791E+02  0.89623732217E+02  0.36982961370E+03  0.39095671007E+03  0.47000000000E+01 0.  1.
         11    1    6    6    0    0  0.31855486946E+02 -0.45119999948E+02  0.12847700031E+03  0.13984607986E+03  0.00000000000E+00 0. -1.
        -12    1    6    6    0    0 -0.20347284888E+02  0.99967808626E+01  0.40796761044E+02  0.46672511628E+02  0.00000000000E+00 0.  1.
</event>
<event>
12    1  0.2685360E-002  0.1867467E+03  0.7818608E-02  0.1161429E+00
          2   -1    0    0  502    0  0.00000000000E+00  0.00000000000E+00  0.10822216205E+04  0.10822216205E+04  0.00000000000E+00 0. -1.
         -2   -1    0    0    0  501 -0.00000000000E+00 -0.00000000000E+00 -0.32399592872E+02  0.32399592872E+02  0.00000000000E+00 0.  1.
          6    2    1    2  502    0 -0.12143470992E+02  0.75057470038E+02  0.48170304446E+03  0.51633327265E+03  0.16965004482E+03 0.  0.
         24    2    3    3    0    0 -0.66206999465E+02  0.62446248631E+02  0.39650810684E+03  0.41453850160E+03  0.79627820366E+02 0.  0.
         -6    2    1    2    0  501  0.12143470992E+02 -0.75057470038E+02  0.56811898315E+03  0.59828794070E+03  0.17148817242E+03 0.  0.
        -24    2    5    5    0    0  0.33278164866E+02 -0.37128903768E+02  0.14639452819E+03  0.17430815660E+03  0.80411341359E+02 0.  0.
          5    1    3    3  502    0  0.54063528473E+02  0.12611221407E+02  0.85194937628E+02  0.10179477105E+03  0.47000000000E+01 0. -1.
        -11    1    4    4    0    0 -0.53550081132E+01 -0.64566124276E+01  0.95339174153E+00  0.84423285737E+01  0.00000000000E+00 0.  1.
         12    1    4    4    0    0 -0.60851991352E+02  0.68902861058E+02  0.39555471509E+03  0.40609617303E+03  0.00000000000E+00 0. -1.
         -5    1    5    5    0  501 -0.21134693874E+02 -0.37928566270E+02  0.42172445496E+03  0.42397978411E+03  0.47000000000E+01 0.  1.
         11    1    6    6    0    0  0.21952283131E+02  0.11046715743E+02  0.11042958402E+03  0.11313101117E+03  0.00000000000E+00 0. -1.
        -12    1    6    6    0    0  0.11325881735E+02 -0.48175619510E+02  0.35964944177E+02  0.61177145422E+02  0.00000000000E+00 0.  1.
</event>
<event>
12    1  0.2685360E-002  0.1996283E+03  0.7818608E-02  0.1150053E+00
          1   -1    0    0  502    0  0.00000000000E+00  0.00000000000E+00  0.16202993208E+04  0.16202993208E+04  0.00000000000E+00 0.  1.
         -1   -1    0    0    0  501 -0.00000000000E+00 -0.00000000000E+00 -0.49442590578E+02  0.49442590578E+02  0.00000000000E+00 0. -1.
          6    2    1    2  502    0 -0.98436821925E+02 -0.20677893270E+02  0.13784976697E+04  0.13929673980E+04  0.17316166798E+03 0.  0.
         24    2    3    3    0    0  0.31074939711E+01  0.10042415265E+02  0.88627793526E+03  0.88942262100E+03  0.73983197986E+02 0.  0.
         -6    2    1    2    0  501  0.98436821925E+02  0.20677893270E+02  0.19235906053E+03  0.27677451341E+03  0.17171121084E+03 0.  0.
        -24    2    5    5    0    0  0.40974795318E+02 -0.32830592044E+02  0.37415682386E+02  0.10300862800E+03  0.80337180244E+02 0.  0.
          5    1    3    3  502    0 -0.10154431590E+03 -0.30720308535E+02  0.49221973444E+03  0.50354477698E+03  0.47000000000E+01 0. -1.
        -11    1    4    4    0    0 -0.92426860915E+01  0.25547254220E+02  0.81463777186E+03  0.81509066292E+03  0.00000000000E+00 0.  1.
         12    1    4    4    0    0  0.12350180063E+02 -0.15504838955E+02  0.71640163402E+02  0.74331958072E+02  0.00000000000E+00 0. -1.
         -5    1    5    5    0  501  0.57462026606E+02  0.53508485314E+02  0.15494337814E+03  0.17376588541E+03  0.47000000000E+01 0.  1.
         11    1    6    6    0    0  0.51917774168E+02  0.11732685750E+01  0.42269248000E+02  0.66959100653E+02  0.00000000000E+00 0. -1.
        -12    1    6    6    0    0 -0.10942978849E+02 -0.34003860619E+02 -0.48535656141E+01  0.36049527351E+02  0.00000000000E+00 0.  1.
</event>
<event>
12    1  0.2685360E-002  0.2825480E+03  0.7818608E-02  0.1094305E+00
         -1   -1    0    0    0  501 -0.00000000000E+00  0.00000000000E+00  0.28906838717E+03  0.28906838717E+03  0.00000000000E+00 0.  1.
          1   -1    0    0  502    0  0.00000000000E+00 -0.00000000000E+00 -0.29537623978E+03  0.29537623978E+03  0.00000000000E+00 0. -1.
          6    2    1    2  502    0  0.34234880944E+02  0.22138072775E+03  0.71350825752E+02  0.29155770533E+03  0.17243404975E+03 0.  0.
         24    2    3    3    0    0 -0.21088481020E+02  0.13681515398E+03  0.96987049731E+02  0.18719623435E+03  0.80453911954E+02 0.  0.
         -6    2    1    2    0  501 -0.34234880944E+02 -0.22138072775E+03 -0.77658678358E+02  0.29288692161E+03  0.17196053278E+03 0.  0.
        -24    2    5    5    0    0  0.43312198149E+02 -0.15881214466E+03 -0.46592456592E+02  0.18840928189E+03  0.78930074705E+02 0.  0.
          5    1    3    3  502    0  0.55323361965E+02  0.84565573773E+02 -0.25636223979E+02  0.10436147099E+03  0.47000000000E+01 0. -1.
        -13    1    4    4    0    0  0.21818565985E+02  0.10074468338E+03  0.72521375567E+02  0.12603527667E+03  0.00000000000E+00 0.  1.
         14    1    4    4    0    0 -0.42907047006E+02  0.36070470599E+02  0.24465674164E+02  0.61160957680E+02  0.00000000000E+00 0. -1.
         -5    1    5    5    0  501 -0.77547079094E+02 -0.62568583093E+02 -0.31066221766E+02  0.10447763972E+03  0.47000000000E+01 0.  1.
         11    1    6    6    0    0  0.13854141575E+01 -0.12843983616E+03 -0.19316384158E+02  0.12989162245E+03  0.00000000000E+00 0. -1.
        -12    1    6    6    0    0  0.41926783992E+02 -0.30372308495E+02 -0.27276072434E+02  0.58517659443E+02  0.00000000000E+00 0.  1.
</event>
<event>
12    1  0.2685360E-002  0.2306412E+03  0.7818608E-02  0.1126189E+00
         -1   -1    0    0    0  501 -0.00000000000E+00  0.00000000000E+00  0.41348641105E+02  0.41348641105E+02  0.00000000000E+00 0.  1.
          1   -1    0    0  502    0  0.00000000000E+00 -0.00000000000E+00 -0.17533530385E+04  0.17533530385E+04  0.00000000000E+00 0. -1.
          6    2    1    2  502    0  0.14997513381E+03  0.28866729926E+02 -0.13185123289E+04  0.13384996857E+04  0.17257119747E+03 0.  0.
         24    2    3    3    0    0  0.97842985870E+01  0.56445335436E+00 -0.62937828807E+03  0.63466568153E+03  0.81163087128E+02 0.  0.
         -6    2    1    2    0  501 -0.14997513381E+03 -0.28866729926E+02 -0.39349206852E+03  0.45620199397E+03  0.17308501511E+03 0.  0.
        -24    2    5    5    0    0 -0.80187638277E+01  0.12305831524E+02 -0.11005475758E+03  0.13650590387E+03  0.79410818291E+02 0.  0.
          5    1    3    3  502    0  0.14019083522E+03  0.28302276571E+02 -0.68913404084E+03  0.70383400414E+03  0.47000000000E+01 0. -1.
        -11    1    4    4    0    0  0.15428819370E+02 -0.35389733831E+02 -0.44873007549E+03  0.45038779111E+03  0.00000000000E+00 0.  1.
         12    1    4    4    0    0 -0.56445207833E+01  0.35954187186E+02 -0.18064821258E+03  0.18427789043E+03  0.00000000000E+00 0. -1.
         -5    1    5    5    0  501 -0.14195636998E+03 -0.41172561450E+02 -0.28343731094E+03  0.31969609010E+03  0.47000000000E+01 0.  1.
         11    1    6    6    0    0  0.15971309830E+02 -0.10175181464E+02 -0.10049958146E+03  0.10226819119E+03  0.00000000000E+00 0. -1.
        -12    1    6    6    0    0 -0.23990073658E+02  0.22481012988E+02 -0.95551761284E+01  0.34237712685E+02  0.00000000000E+00 0.  1.
</event>
<event>
12    1  0.2685360E-002  0.3929733E+03  0.7818608E-02  0.1046240E+00
         -1   -1    0    0    0  501 -0.00000000000E+00  0.00000000000E+00  0.10245264798E+03  0.10245264798E+03  0.00000000000E+00 0. -1.
          1   -1    0    0  502    0  0.00000000000E+00 -0.00000000000E+00 -0.15737035563E+04  0.15737035563E+04  0.00000000000E+00 0.  1.
          6    2    1    2  502    0  0.22618555434E+03  0.27341345981E+03 -0.91127721603E+03  0.99318903271E+03  0.17344585682E+03 0.  0.
         24    2    3    3    0    0  0.19775645384E+03  0.14651536691E+03 -0.68802461815E+03  0.73478014703E+03  0.77133789761E+02 0.  0.
         -6    2    1    2    0  501 -0.22618555434E+03 -0.27341345981E+03 -0.55997369229E+03  0.68296717157E+03  0.16419134080E+03 0.  0.
        -24    2    5    5    0    0 -0.10522616029E+03 -0.20530589779E+03 -0.28626570379E+03  0.37603400624E+03  0.78933289598E+02 0.  0.
          5    1    3    3  502    0  0.28429100496E+02  0.12689809290E+03 -0.22325259788E+03  0.25840888568E+03  0.47000000000E+01 0. -1.
        -13    1    4    4    0    0  0.40430434724E+02  0.19143188078E+02 -0.59348466189E+02  0.74319056377E+02  0.00000000000E+00 0.  1.
         14    1    4    4    0    0  0.15732601912E+03  0.12737217883E+03 -0.62867615196E+03  0.66046109066E+03  0.00000000000E+00 0. -1.
         -5    1    5    5    0  501 -0.12095939405E+03 -0.68107562023E+02 -0.27370798849E+03  0.30693316533E+03  0.47000000000E+01 0.  1.
         11    1    6    6    0    0 -0.11161687836E+03 -0.14557593504E+03 -0.22374939678E+03  0.28933453468E+03  0.00000000000E+00 0. -1.
        -12    1    6    6    0    0  0.63907180655E+01 -0.59729962751E+02 -0.62516307010E+02  0.86699471566E+02  0.00000000000E+00 0.  1.
</event>
<event>
12    1  0.2685360E-002  0.1797390E+03  0.7818608E-02  0.1168056E+00
          2   -1    0    0  502    0  0.00000000000E+00  0.00000000000E+00  0.12241516314E+04  0.12241516314E+04  0.00000000000E+00 0.  1.
         -2   -1    0    0    0  501 -0.00000000000E+00 -0.00000000000E+00 -0.26443165473E+02  0.26443165473E+02  0.00000000000E+00 0. -1.
          6    2    1    2  502    0  0.25929080312E+02 -0.46443989667E+02  0.62595098143E+03  0.65118185062E+03  0.17144623073E+03 0.  0.
         24    2    3    3    0    0 -0.30398273132E+02  0.20367446207E+02  0.39542023330E+03  0.40459909667E+03  0.77487936141E+02 0.  0.
         -6    2    1    2    0  501 -0.25929080312E+02  0.46443989667E+02  0.57175748449E+03  0.59941294625E+03  0.17192992085E+03 0.  0.
        -24    2    5    5    0    0  0.73485111478E+01  0.38956878617E+02  0.14224218952E+03  0.16851976513E+03  0.81206106619E+02 0.  0.
          5    1    3    3  502    0  0.56327353444E+02 -0.66811435874E+02  0.23053074813E+03  0.24658275395E+03  0.47000000000E+01 0. -1.
        -11    1    4    4    0    0  0.26075623868E+02  0.20449915789E+01  0.13280130588E+03  0.13535252858E+03  0.00000000000E+00 0.  1.
         12    1    4    4    0    0 -0.56473897000E+02  0.18322454628E+02  0.26261892743E+03  0.26924656809E+03  0.00000000000E+00 0. -1.
         -5    1    5    5    0  501 -0.33277591460E+02  0.74871110497E+01  0.42951529497E+03  0.43089318112E+03  0.47000000000E+01 0.  1.
         13    1    6    6    0    0 -0.21516643252E+02  0.53010346413E+01  0.11358463372E+03  0.11572612464E+03  0.00000000000E+00 0. -1.
        -14    1    6    6    0    0  0.28865154400E+02  0.33655843976E+02  0.28657555792E+02  0.52793640491E+02  0.00000000000E+00 0.  1.
</event>
<event>
12    1  0.2685360E-002  0.1986081E+03  0.7818608E-02  0.1150919E+00
          1   -1    0    0  502    0  0.00000000000E+00  0.00000000000E+00  0.12100424200E+04  0.12100424200E+04  0.00000000000E+00 0.  1.
         -1   -1    0    0    0  501 -0.00000000000E+00 -0.00000000000E+00 -0.32747859998E+02  0.32747859998E+02  0.00000000000E+00 0. -1.
          6    2    1    2  502    0  0.10641481947E+03 -0.35769683053E+02  0.60286682266E+03  0.63256278772E+03  0.15518920879E+03 0.  0.
         24    2    3    3    0    0  0.10281533925E+03 -0.51627441052E+02  0.59930811335E+03  0.61526599153E+03  0.78394125770E+02 0.  0.
         -6    2    1    2    0  501 -0.10641481947E+03  0.35769683053E+02  0.57442773730E+03  0.61022749222E+03  0.17264640993E+03 0.  0.
        -24    2    5    5    0    0 -0.10827774647E+03 -0.33716238128E+02  0.37663656925E+03  0.40052484585E+03  0.75526099804E+02 0.  0.
          5    1    3    3  502    0  0.35994802263E+01  0.15857758000E+02  0.35587093107E+01  0.17296796196E+02  0.47000000000E+01 0. -1.
        -11    1    4    4    0    0  0.53785388756E+02 -0.61744627959E+02  0.26905300860E+03  0.28123795719E+03  0.00000000000E+00 0.  1.
         12    1    4    4    0    0  0.49029950492E+02  0.10117186907E+02  0.33025510474E+03  0.33402803434E+03  0.00000000000E+00 0. -1.
         -5    1    5    5    0  501  0.18629269963E+01  0.69485921181E+02  0.19779116805E+03  0.20970264638E+03  0.47000000000E+01 0.  1.
         11    1    6    6    0    0 -0.91972327322E+02 -0.54627699893E+02  0.26487136498E+03  0.28565702263E+03  0.00000000000E+00 0. -1.
        -12    1    6    6    0    0 -0.16305419149E+02  0.20911461764E+02  0.11176520427E+03  0.11486782322E+03  0.00000000000E+00 0.  1.
</event>
<event>
12    1  0.2685360E-002  0.1871772E+03  0.7818608E-02  0.1161032E+00
          1   -1    0    0  502    0  0.00000000000E+00  0.00000000000E+00  0.18498867335E+03  0.18498867335E+03  0.00000000000E+00 0. -1.
         -1   -1    0    0    0  501 -0.00000000000E+00 -0.00000000000E+00 -0.22401565651E+03  0.22401565651E+03  0.00000000000E+00 0.  1.
          6    2    1    2  502    0 -0.34283641851E+02  0.60570282276E+02 -0.10000643819E+03  0.21326904347E+03  0.17503791026E+03 0.  0.
         24    2    3    3    0    0  0.17448309934E+02  0.28080553719E+02 -0.12460234505E+03  0.14724763837E+03  0.71155896422E+02 0.  0.
         -6    2    1    2    0  501  0.34283641851E+02 -0.60570282276E+02  0.60979455028E+02  0.19573528639E+03  0.17248095898E+03 0.  0.
        -24    2    5    5    0    0 -0.25642867980E+02 -0.54072291408E+01  0.76226256629E+02  0.11273706972E+03  0.78818842194E+02 0.  0.
          5    1    3    3  502    0 -0.51731951784E+02  0.32489728557E+02  0.24595906864E+02  0.66021405102E+02  0.47000000000E+01 0. -1.
        -11    1    4    4    0    0  0.27762241448E+02  0.46181380525E+02 -0.10767318545E+03  0.12040339207E+03  0.00000000000E+00 0.  1.
         12    1    4    4    0    0 -0.10313931514E+02 -0.18100826806E+02 -0.16929159602E+02  0.26844246296E+02  0.00000000000E+00 0. -1.
         -5    1    5    5    0  501  0.59926509831E+02 -0.55163053135E+02 -0.15246801601E+02  0.82998216672E+02  0.47000000000E+01 0.  1.
         11    1    6    6    0    0  0.14922396412E+02  0.22129725420E+02  0.64522888135E+01  0.27459692146E+02  0.00000000000E+00 0. -1.
        -12    1    6    6    0    0 -0.40565264391E+02 -0.27536954561E+02  0.69773967815E+02  0.85277377576E+02  0.00000000000E+00 0.  1.
</event>
<event>
12    1  0.2685360E-002  0.2883969E+03  0.7818608E-02  0.1091189E+00
         -1   -1    0    0    0  501 -0.00000000000E+00  0.00000000000E+00  0.18054448688E+03  0.18054448688E+03  0.00000000000E+00 0.  1.
          1   -1    0    0  502    0  0.00000000000E+00 -0.00000000000E+00 -0.48147155225E+03  0.48147155225E+03  0.00000000000E+00 0. -1.
          6    2    1    2  502    0 -0.67292653590E+02 -0.21887524476E+03 -0.82596880549E+02  0.30171590274E+03  0.17825702592E+03 0.  0.
         24    2    3    3    0    0 -0.11578405454E+03 -0.15858665268E+03 -0.80083879463E+02  0.22416246647E+03  0.72661612500E+02 0.  0.
         -6    2    1    2    0  501  0.67292653590E+02  0.21887524476E+03 -0.21833018482E+03  0.36030013639E+03  0.17237588196E+03 0.  0.
        -24    2    5    5    0    0 -0.14389419337E+02  0.68773243596E+02 -0.13644010499E+03  0.17074632618E+03  0.74843778822E+02 0.  0.
          5    1    3    3  502    0  0.48491400951E+02 -0.60288592083E+02 -0.25130010859E+01  0.77553436261E+02  0.47000000000E+01 0. -1.
        -11    1    4    4    0    0 -0.34818276701E+02 -0.32209461683E+02  0.10875423445E+02  0.48662476812E+02  0.00000000000E+00 0.  1.
         12    1    4    4    0    0 -0.80965777840E+02 -0.12637719100E+03 -0.90959302908E+02  0.17549998966E+03  0.00000000000E+00 0. -1.
         -5    1    5    5    0  501  0.81682072927E+02  0.15010200117E+03 -0.81890079828E+02  0.18955381021E+03  0.47000000000E+01 0.  1.
         11    1    6    6    0    0  0.38079455489E+01 -0.12868126671E+02 -0.44367042765E+02  0.46352169497E+02  0.00000000000E+00 0. -1.
        -12    1    6    6    0    0 -0.18197364886E+02  0.81641370267E+02 -0.92073062229E+02  0.12439415668E+03  0.00000000000E+00 0.  1.
</event>
<event>
12    1  0.2685360E-002  0.3580453E+03  0.7818608E-02  0.1059361E+00
         -2   -1    0    0    0  501 -0.00000000000E+00  0.00000000000E+00  0.93824278872E+02  0.93824278872E+02  0.00000000000E+00 0. -1.
          2   -1    0    0  502    0  0.00000000000E+00 -0.00000000000E+00 -0.14472065797E+04  0.14472065797E+04  0.00000000000E+00 0.  1.
          6    2    1    2  502    0 -0.25468350028E+03  0.18305591998E+03 -0.85760056080E+03  0.92907921897E+03  0.17127848111E+03 0.  0.
         24    2    3    3    0    0 -0.12496416499E+03  0.30661361131E+02 -0.28950035416E+03  0.32674115584E+03  0.79957277735E+02 0.  0.
         -6    2    1    2    0  501  0.25468350028E+03 -0.18305591998E+03 -0.49578174006E+03  0.61195163963E+03  0.17410376307E+03 0.  0.
        -24    2    5    5    0    0  0.16948937888E+03 -0.10750631388E+03 -0.19729573061E+03  0.29244926227E+03  0.79477723967E+02 0.  0.
          5    1    3    3  502    0 -0.12971933529E+03  0.15239455885E+03 -0.56810020664E+03  0.60233806313E+03  0.47000000000E+01 0. -1.
        -11    1    4    4    0    0 -0.12988910184E+03  0.16463737017E+02 -0.22327236873E+03  0.25882964291E+03  0.00000000000E+00 0.  1.
         12    1    4    4    0    0  0.49249368512E+01  0.14197624113E+02 -0.66227985433E+02  0.67911512927E+02  0.00000000000E+00 0. -1.
         -5    1    5    5    0  501  0.85194121393E+02 -0.75549606104E+02 -0.29848600945E+03  0.31950237736E+03  0.47000000000E+01 0.  1.
         11    1    6    6    0    0  0.16405706352E+03 -0.73543898714E+02 -0.17807126239E+03  0.25304703045E+03  0.00000000000E+00 0. -1.
        -12    1    6    6    0    0  0.54323153585E+01 -0.33962415163E+02 -0.19224468215E+02  0.39402231815E+02  0.00000000000E+00 0.  1.
</event>
<event>
12    1  0.2685360E-002  0.1846062E+03  0.7818608E-02  0.1163418E+00
          2   -1    0    0  502    0  0.00000000000E+00  0.00000000000E+00  0.28750249203E+03  0.28750249203E+03  0.00000000000E+00 0.  1.
         -2   -1    0    0    0  501 -0.00000000000E+00 -0.00000000000E+00 -0.12233840143E+03  0.12233840143E+03  0.00000000000E+00 0. -1.
          6    2    1    2  502    0  0.98181412035E+01 -0.66936057937E+02  0.46544458358E+02  0.19058070075E+03  0.17198193262E+03 0.  0.
         24    2    3    3    0    0  0.34883044715E+02  0.20805652503E+02  0.43027098044E+02  0.99140452708E+02  0.79547446297E+02 0.  0.
         -6    2    1    2    0  501 -0.98181412035E+01  0.66936057937E+02  0.11861963224E+03  0.21926019271E+03  0.17154469740E+03 0.  0.
        -24    2    5    5    0    0 -0.35232718140E+02 -0.22643322139E+02  0.48180040931E+02  0.10240903919E+03  0.80076404127E+02 0.  0.
          5    1    3    3  502    0 -0.25064903511E+02 -0.87741710440E+02  0.35173603141E+01  0.91440248045E+02  0.47000000000E+01 0. -1.
        -13    1    4    4    0    0 -0.86749837192E+01 -0.14823601436E+02  0.39128033443E+02  0.42731692023E+02  0.00000000000E+00 0.  1.
         14    1    4    4    0    0  0.43558028434E+02  0.35629253938E+02  0.38990646017E+01  0.56408760685E+02  0.00000000000E+00 0. -1.
         -5    1    5    5    0  501  0.25414576936E+02  0.89579380076E+02  0.70439591314E+02  0.11685115352E+03  0.47000000000E+01 0.  1.
         11    1    6    6    0    0  0.45644923269E+01 -0.42078351482E+02  0.89881898011E+01  0.43269039850E+02  0.00000000000E+00 0. -1.
        -12    1    6    6    0    0 -0.39797210466E+02  0.19435029343E+02  0.39191851130E+02  0.59139999336E+02  0.00000000000E+00 0.  1.
</event>
<event>
12    1  0.2685360E-002  0.1811908E+03  0.7818608E-02  0.1166655E+00
          1   -1    0    0  502    0  0.00000000000E+00  0.00000000000E+00  0.25342151067E+04  0.25342151067E+04  0.00000000000E+00 0.  1.
         -1   -1    0    0    0  501 -0.00000000000E+00 -0.00000000000E+00 -0.23544417844E+02  0.23544417844E+02  0.00000000000E+00 0. -1.
          6    2    1    2  502    0 -0.39281293028E+02  0.30246560716E+02  0.39282388877E+03  0.43206645885E+03  0.17295358584E+03 0.  0.
         24    2    3    3    0    0 -0.40807504690E+02  0.34277699498E+02  0.40620205704E+03  0.41724604090E+03  0.79081820784E+02 0.  0.
         -6    2    1    2    0  501  0.39281293028E+02 -0.30246560716E+02  0.21178468000E+04  0.21256930657E+04  0.17560770629E+03 0.  0.
        -24    2    5    5    0    0  0.15836476063E+02 -0.80088154544E+02  0.17534765602E+04  0.17571532366E+04  0.79009766801E+02 0.  0.
          5    1    3    3  502    0  0.15262116623E+01 -0.40311387817E+01 -0.13378168270E+02  0.14820417948E+02  0.47000000000E+01 0. -1.
        -11    1    4    4    0    0  0.13509601615E+02  0.38093639153E+02  0.19434621276E+03  0.19850462235E+03  0.00000000000E+00 0.  1.
         12    1    4    4    0    0 -0.54317106305E+02 -0.38159396548E+01  0.21185584428E+03  0.21874141855E+03  0.00000000000E+00 0. -1.
         -5    1    5    5    0  501  0.23444816965E+02  0.49841593828E+02  0.36437023988E+03  0.36853982909E+03  0.47000000000E+01 0.  1.
         13    1    6    6    0    0 -0.32730842870E+01  0.15301198231E+02  0.18380687399E+03  0.18447169614E+03  0.00000000000E+00 0. -1.
        -14    1    6    6    0    0  0.19109560350E+02 -0.95389352775E+02  0.15696696862E+04  0.15726815404E+04  0.00000000000E+00 0.  1.
</event>
<event>
12    1  0.2685360E-002  0.1941566E+03  0.7818608E-02  0.1154765E+00
          1   -1    0    0  502    0  0.00000000000E+00  0.00000000000E+00  0.29039205908E+03  0.29039205908E+03  0.00000000000E+00 0.  1.
         -1   -1    0    0    0  501 -0.00000000000E+00 -0.00000000000E+00 -0.15249580484E+03  0.15249580484E+03  0.00000000000E+00 0. -1.
          6    2    1    2  502    0  0.68344437595E+02  0.60715355246E+02 -0.16316730119E+02  0.19529563895E+03  0.17180464021E+03 0.  0.
         24    2    3    3    0    0 -0.29537254284E+02  0.15944329418E+02 -0.96959695586E+01  0.87354938430E+02  0.80063739677E+02 0.  0.
         -6    2    1    2    0  501 -0.68344437595E+02 -0.60715355246E+02  0.15421298436E+03  0.24759222497E+03  0.17077162764E+03 0.  0.
        -24    2    5    5    0    0  0.29202449954E+01 -0.85825663554E+02  0.82931755894E+02  0.14361008179E+03  0.79822347128E+02 0.  0.
          5    1    3    3  502    0  0.97881691879E+02  0.44771025828E+02 -0.66207605601E+01  0.10794070052E+03  0.47000000000E+01 0. -1.
        -11    1    4    4    0    0 -0.14764615382E+02  0.19153948750E+02  0.33655385329E+02  0.41443365956E+02  0.00000000000E+00 0.  1.
         12    1    4    4    0    0 -0.14772638902E+02 -0.32096193315E+01 -0.43351354888E+02  0.45911572474E+02  0.00000000000E+00 0. -1.
         -5    1    5    5    0  501 -0.71264682590E+02  0.25110308308E+02  0.71281228463E+02  0.10398214317E+03  0.47000000000E+01 0.  1.
         11    1    6    6    0    0  0.28291350272E+02 -0.20268361379E+02 -0.12011875266E+00  0.34802606249E+02  0.00000000000E+00 0. -1.
        -12    1    6    6    0    0 -0.25371105277E+02 -0.65557302175E+02  0.83051874647E+02  0.10880747554E+03  0.00000000000E+00 0.  1.
</event>
<event>
12    1  0.2685360E-002  0.2981781E+03  0.7818608E-02  0.1086155E+00
          2   -1    0    0  502    0  0.00000000000E+00  0.00000000000E+00  0.32037259672E+03  0.32037259672E+03  0.00000000000E+00 0. -1.
         -2   -1    0    0    0  501 -0.00000000000E+00 -0.00000000000E+00 -0.29826513235E+03  0.29826513235E+03  0.00000000000E+00 0.  1.
          6    2    1    2  502    0  0.19666604262E+03  0.14429647870E+03 -0.70541097086E+02  0.30572608078E+03  0.17027443731E+03 0.  0.
         24    2    3    3    0    0  0.13262607456E+03  0.15381605485E+02 -0.44989573134E+02  0.15945533038E+03  0.74670417539E+02 0.  0.
         -6    2    1    2    0  501 -0.19666604262E+03 -0.14429647870E+03  0.92648561456E+02  0.31291164829E+03  0.17271635016E+03 0.  0.
        -24    2    5    5    0    0 -0.59001089757E+02 -0.24234248345E+02 -0.10853097098E+02  0.10290864420E+03  0.80024820831E+02 0.  0.
          5    1    3    3  502    0  0.64039968067E+02  0.12891487321E+03 -0.25551523951E+02  0.14627075040E+03  0.47000000000E+01 0. -1.
        -13    1    4    4    0    0  0.13587758660E+03  0.14565597557E+02 -0.24674830184E+02  0.13886584324E+03  0.00000000000E+00 0.  1.
         14    1    4    4    0    0 -0.32515120478E+01  0.81600792820E+00 -0.20314742950E+02  0.20589487140E+02  0.00000000000E+00 0. -1.
         -5    1    5    5    0  501 -0.13766495287E+03 -0.12006223035E+03  0.10350165855E+03  0.21000300409E+03  0.47000000000E+01 0.  1.
         11    1    6    6    0    0 -0.87048296605E+01 -0.62621964817E+01  0.32433071647E+02  0.34159819974E+02  0.00000000000E+00 0. -1.
        -12    1    6    6    0    0 -0.50296260097E+02 -0.17972051864E+02 -0.43286168745E+02  0.68748824226E+02  0.00000000000E+00 0.  1.
</event>
<event>
12    1  0.2685360E-002  0.2071632E+03  0.7818608E-02  0.1143832E+00
         -2   -1    0    0    0  501 -0.00000000000E+00  0.00000000000E+00  0.18688582090E+03  0.18688582090E+03  0.00000000000E+00 0.  1.
          2   -1    0    0  502    0  0.00000000000E+00 -0.00000000000E+00 -0.28542553242E+03  0.28542553242E+03  0.00000000000E+00 0. -1.
          6    2    1    2  502    0 -0.29673725427E+02 -0.11109682468E+03  0.55142057784E+02  0.21432766526E+03  0.17225756043E+03 0.  0.
         24    2    3    3    0    0 -0.66530357742E+02 -0.10796358063E+03  0.77510006648E+02  0.17084613239E+03  0.84250677030E+02 0.  0.
         -6    2    1    2    0  501  0.29673725427E+02  0.11109682468E+03 -0.15368176930E+03  0.25798368805E+03  0.17237883469E+03 0.  0.
        -24    2    5    5    0    0  0.49050478398E+02  0.67717610125E+02 -0.22264837772E+02  0.11816339373E+03  0.80468878858E+02 0.  0.
          5    1    3    3  502    0  0.36856632315E+02 -0.31332440524E+01 -0.22367948865E+02  0.43481532866E+02  0.47000000000E+01 0. -1.
        -13    1    4    4    0    0  0.13970903503E+01 -0.86862791356E+01  0.45535039353E+02  0.46377183135E+02  0.00000000000E+00 0.  1.
         14    1    4    4    0    0 -0.67927448093E+02 -0.99277301492E+02  0.31974967295E+02  0.12446894926E+03  0.00000000000E+00 0. -1.
         -5    1    5    5    0  501 -0.19376752971E+02  0.43379214555E+02 -0.13141693153E+03  0.13982029432E+03  0.47000000000E+01 0.  1.
         11    1    6    6    0    0  0.29060196985E+02 -0.22800526937E+01 -0.33608723201E+02  0.44488649837E+02  0.00000000000E+00 0. -1.
        -12    1    6    6    0    0  0.19990281413E+02  0.69997662819E+02  0.11343885429E+02  0.73674743893E+02  0.00000000000E+00 0.  1.
</event>
<event>
12    1  0.2685360E-002  0.2328471E+03  0.7818608E-02  0.1124652E+00
          1   -1    0    0  502    0  0.00000000000E+00  0.00000000000E+00  0.67998723575E+03  0.67998723575E+03  0.00000000000E+00 0.  1.
         -1   -1    0    0    0  501 -0.00000000000E+00 -0.00000000000E+00 -0.10730542728E+03  0.10730542728E+03  0.00000000000E+00 0. -1.
          6    2    1    2  502    0 -0.13237789456E+03  0.66078062321E+02  0.49214460898E+03  0.54763112289E+03  0.18921763480E+03 0.  0.
         24    2    3    3    0    0 -0.11652274177E+03  0.11563739596E+03  0.32824359310E+03  0.37560453649E+03  0.79908414626E+02 0.  0.
         -6    2    1    2    0  501  0.13237789456E+03 -0.66078062321E+02  0.80537199490E+02  0.23966154013E+03  0.17047344670E+03 0.  0.
        -24    2    5    5    0    0  0.69432258252E+02 -0.74496488497E+02 -0.10150405523E+02  0.12884929021E+03  0.78285014987E+02 0.  0.
          5    1    3    3  502    0 -0.15855152791E+02 -0.49559333637E+02  0.16390101588E+03  0.17202658640E+03  0.47000000000E+01 0. -1.
        -11    1    4    4    0    0 -0.35777099786E+02  0.89465282973E+02  0.15166270341E+03  0.17968197832E+03  0.00000000000E+00 0.  1.
         12    1    4    4    0    0 -0.80745641987E+02  0.26172112985E+02  0.17658088969E+03  0.19592255817E+03  0.00000000000E+00 0. -1.
         -5    1    5    5    0  501  0.62945636312E+02  0.84184261760E+01  0.90687605012E+02  0.11081224992E+03  0.47000000000E+01 0.  1.
         11    1    6    6    0    0 -0.17121045286E+02 -0.19270235034E+02 -0.21057744636E+01  0.25863225554E+02  0.00000000000E+00 0. -1.
        -12    1    6    6    0    0  0.86553303538E+02 -0.55226253463E+02 -0.80446310589E+01  0.10298606466E+03  0.00000000000E+00 0.  1.
</event>
<event>
12    1  0.2685360E-002  0.2016168E+03  0.7818608E-02  0.1148382E+00
         -2   -1    0    0    0  501 -0.00000000000E+00  0.00000000000E+00  0.26972768663E+02  0.26972768663E+02  0.00000000000E+00 0.  1.
          2   -1    0    0  502    0  0.00000000000E+00 -0.00000000000E+00 -0.16993938721E+04  0.16993938721E+04  0.00000000000E+00 0. -1.
          6    2    1    2  502    0  0.89241169502E+02  0.51829207399E+02 -0.54891944608E+03  0.58506541188E+03  0.17418015049E+03 0.  0.
         24    2    3    3    0    0  0.95466561851E+02  0.93075334146E+02 -0.36770417675E+03  0.39905180399E+03  0.79114464002E+02 0.  0.
         -6    2    1    2    0  501 -0.89241169502E+02 -0.51829207399E+02 -0.11235016574E+04  0.11413012289E+04  0.17222737263E+03 0.  0.
        -24    2    5    5    0    0 -0.11920317086E+03 -0.38137941685E+02 -0.65916443021E+03  0.67577322457E+03  0.80670976506E+02 0.  0.
          5    1    3    3  502    0 -0.62253923491E+01 -0.41246126747E+02 -0.18121526933E+03  0.18601360789E+03  0.47000000000E+01 0. -1.
        -11    1    4    4    0    0  0.43100491166E+02  0.79765396608E+01 -0.19184298831E+03  0.19678671115E+03  0.00000000000E+00 0.  1.
         12    1    4    4    0    0  0.52366070685E+02  0.85098794486E+02 -0.17586118844E+03  0.20226509284E+03  0.00000000000E+00 0. -1.
         -5    1    5    5    0  501  0.29962001362E+02 -0.13691265715E+02 -0.46433722715E+03  0.46552800431E+03  0.47000000000E+01 0.  1.
         11    1    6    6    0    0 -0.23514515362E+02 -0.47054922861E+02 -0.21688290648E+03  0.22317099570E+03  0.00000000000E+00 0. -1.
        -12    1    6    6    0    0 -0.95688655502E+02  0.89169811763E+01 -0.44228152372E+03  0.45260222886E+03  0.00000000000E+00 0.  1.
</event>
<event>
12    1  0.2685360E-002  0.2259121E+03  0.7818608E-02  0.1129551E+00
         -2   -1    0    0    0  501 -0.00000000000E+00  0.00000000000E+00  0.33020952058E+02  0.33020952058E+02  0.00000000000E+00 0. -1.
          2   -1    0    0  502    0  0.00000000000E+00 -0.00000000000E+00 -0.15746654368E+04  0.15746654368E+04  0.00000000000E+00 0.  1.
          6    2    1    2  502    0 -0.14585783262E+03  0.60910563867E+01 -0.88045488712E+03  0.90900344606E+03  0.17255389998E+03 0.  0.
         24    2    3    3    0    0 -0.14829572817E+03  0.54459550253E+02 -0.71636143363E+03  0.73784794363E+03  0.79299550605E+02 0.  0.
         -6    2    1    2    0  501  0.14585783262E+03 -0.60910563867E+01 -0.66118959760E+03  0.69868294277E+03  0.17226306116E+03 0.  0.
        -24    2    5    5    0    0  0.10647401694E+03  0.45393846145E+02 -0.56102482576E+03  0.57928088398E+03  0.86140407895E+02 0.  0.
          5    1    3    3  502    0  0.24378955465E+01 -0.48368493867E+02 -0.16409345349E+03  0.17115550243E+03  0.47000000000E+01 0. -1.
        -13    1    4    4    0    0 -0.48287762721E+02  0.88809808909E+01 -0.39869390530E+03  0.40170562602E+03  0.00000000000E+00 0.  1.
         14    1    4    4    0    0 -0.10000796545E+03  0.45578569362E+02 -0.31766752833E+03  0.33614231762E+03  0.00000000000E+00 0. -1.
         -5    1    5    5    0  501  0.39383815683E+02 -0.51484902531E+02 -0.10016477183E+03  0.11940205879E+03  0.47000000000E+01 0.  1.
         13    1    6    6    0    0  0.22268194283E+02 -0.49592588348E+01 -0.23043853555E+02  0.32426623498E+02  0.00000000000E+00 0. -1.
        -14    1    6    6    0    0  0.84205822655E+02  0.50353104979E+02 -0.53798097221E+03  0.54685426048E+03  0.00000000000E+00 0.  1.
</event>
<event>
12    1  0.2685360E-002  0.1794727E+03  0.7818608E-02  0.1168314E+00
          2   -1    0    0  502    0  0.00000000000E+00  0.00000000000E+00  0.51419762908E+03  0.51419762908E+03  0.00000000000E+00 0. -1.
         -2   -1    0    0    0  501 -0.00000000000E+00 -0.00000000000E+00 -0.11014320869E+03  0.11014320869E+03  0.00000000000E+00 0.  1.
          6    2    1    2  502    0  0.17210523289E+02  0.45297260634E+02  0.40719104890E+03  0.44508917425E+03  0.17306582215E+03 0.  0.
         24    2    3    3    0    0  0.30578651111E+02  0.47745251889E+02  0.10825971462E+03  0.14581215856E+03  0.79538398234E+02 0.  0.
         -6    2    1    2    0  501 -0.17210523289E+02 -0.45297260634E+02 -0.31366285142E+01  0.17925166353E+03  0.17254934513E+03 0.  0.
        -24    2    5    5    0    0  0.90561664251E+00 -0.21159661030E+02  0.64687506525E+02  0.10486738068E+03  0.79775576674E+02 0.  0.
          5    1    3    3  502    0 -0.13368127822E+02 -0.24479912550E+01  0.29893133428E+03  0.29927701569E+03  0.47000000000E+01 0. -1.
        -11    1    4    4    0    0 -0.15905917259E+02 -0.89392772358E+01  0.46518923089E+02  0.49969181369E+02  0.00000000000E+00 0.  1.
         12    1    4    4    0    0  0.46484568370E+02  0.56684529125E+02  0.61740791529E+02  0.95842977193E+02  0.00000000000E+00 0. -1.
         -5    1    5    5    0  501 -0.18116139932E+02 -0.24137599604E+02 -0.67824135039E+02  0.74384282846E+02  0.47000000000E+01 0.  1.
         11    1    6    6    0    0 -0.21397645506E+02 -0.39865836228E+02  0.60364363406E+02  0.75438720169E+02  0.00000000000E+00 0. -1.
        -12    1    6    6    0    0  0.22303262149E+02  0.18706175198E+02  0.43231431194E+01  0.29428660510E+02  0.00000000000E+00 0.  1.
</event>
<event>
12    1  0.2685360E-002  0.2064429E+03  0.7818608E-02  0.1144414E+00
         -2   -1    0    0    0  501 -0.00000000000E+00  0.00000000000E+00  0.14573939562E+03  0.14573939562E+03  0.00000000000E+00 0.  1.
          2   -1    0    0  502    0  0.00000000000E+00 -0.00000000000E+00 -0.30239963963E+03  0.30239963963E+03  0.00000000000E+00 0. -1.
          6    2    1    2  502    0 -0.99308935284E+02 -0.57598389380E+02 -0.37749300394E+02  0.21013872503E+03  0.17191112526E+03 0.  0.
         24    2    3    3    0    0  0.22070523520E+01 -0.39223260560E+02  0.19813047130E+02  0.91907363040E+02  0.80691209529E+02 0.  0.
         -6    2    1    2    0  501  0.99308935284E+02  0.57598389380E+02 -0.11891094362E+03  0.23800031022E+03  0.17124396651E+03 0.  0.
        -24    2    5    5    0    0  0.88172174304E+02  0.14879580731E+02 -0.14404130934E+03  0.18698512289E+03  0.78865728562E+02 0.  0.
          5    1    3    3  502    0 -0.10151598764E+03 -0.18375128820E+02 -0.57562347524E+02  0.11823136199E+03  0.47000000000E+01 0.  1.
        -13    1    4    4    0    0  0.15757540959E+02  0.57560263717E+01  0.37996291584E+02  0.41534926397E+02  0.00000000000E+00 0.  1.
         14    1    4    4    0    0 -0.13550488607E+02 -0.44979286932E+02 -0.18183244455E+02  0.50372436643E+02  0.00000000000E+00 0. -1.
         -5    1    5    5    0  501  0.11136760980E+02  0.42718808649E+02  0.25130365717E+02  0.51015187333E+02  0.47000000000E+01 0.  1.
         11    1    6    6    0    0  0.64685435837E+02  0.46539432693E+02 -0.92359353889E+02  0.12198514113E+03  0.00000000000E+00 0. -1.
        -12    1    6    6    0    0  0.23486738466E+02 -0.31659851962E+02 -0.51681955451E+02  0.64999981764E+02  0.00000000000E+00 0.  1.
</event>
<event>
12    1  0.2685360E-002  0.2256916E+03  0.7818608E-02  0.1129709E+00
         -2   -1    0    0    0  501 -0.00000000000E+00  0.00000000000E+00  0.55689753471E+03  0.55689753471E+03  0.00000000000E+00 0.  1.
          2   -1    0    0  502    0  0.00000000000E+00 -0.00000000000E+00 -0.94506342888E+02  0.94506342888E+02  0.00000000000E+00 0. -1.
          6    2    1    2  502    0 -0.77313855469E+02  0.12524467128E+03  0.17267260806E+03  0.28409291087E+03  0.17096576412E+03 0.  0.
         24    2    3    3    0    0 -0.12860428013E+02  0.86658187885E+00  0.91088039227E+02  0.12191311772E+03  0.79997723781E+02 0.  0.
         -6    2    1    2    0  501  0.77313855469E+02 -0.12524467128E+03  0.28971858376E+03  0.36731096673E+03  0.17122157741E+03 0.  0.
        -24    2    5    5    0    0  0.36999232998E+01 -0.12406128152E+02  0.16495183466E+03  0.18362542156E+03  0.79634077102E+02 0.  0.
          5    1    3    3  502    0 -0.64453427456E+02  0.12437808940E+03  0.81584568834E+02  0.16217979315E+03  0.47000000000E+01 0. -1.
        -11    1    4    4    0    0 -0.18275827215E+02  0.55792093872E+01  0.10475067991E+03  0.10647928615E+03  0.00000000000E+00 0.  1.
         12    1    4    4    0    0  0.54153992023E+01 -0.47126275083E+01 -0.13662640683E+02  0.15433831572E+02  0.00000000000E+00 0. -1.
         -5    1    5    5    0  501  0.73613932169E+02 -0.11283854312E+03  0.12476674910E+03  0.18368554517E+03  0.47000000000E+01 0.  1.
         11    1    6    6    0    0  0.49346330865E+01 -0.62951212719E+01 -0.75569962609E+01  0.11003969648E+02  0.00000000000E+00 0. -1.
        -12    1    6    6    0    0 -0.12347097867E+01 -0.61110068806E+01  0.17250883092E+03  0.17262145191E+03  0.00000000000E+00 0.  1.
</event>
<event>
12    1  0.2685360E-002  0.2017697E+03  0.7818608E-02  0.1148254E+00
          1   -1    0    0  502    0  0.00000000000E+00  0.00000000000E+00  0.17429950677E+03  0.17429950677E+03  0.00000000000E+00 0. -1.
         -1   -1    0    0    0  501 -0.00000000000E+00 -0.00000000000E+00 -0.28180005984E+03  0.28180005984E+03  0.00000000000E+00 0.  1.
          6    2    1    2  502    0  0.84168575007E+02  0.63883191914E+02  0.40706881309E+02  0.20533200339E+03  0.17128563922E+03 0.  0.
         24    2    3    3    0    0  0.78883282943E+01  0.13709276023E+02  0.71599192419E+02  0.10883059013E+03  0.80420662901E+02 0.  0.
         -6    2    1    2    0  501 -0.84168575007E+02 -0.63883191914E+02 -0.14820743438E+03  0.25076756322E+03  0.17249207498E+03 0.  0.
        -24    2    5    5    0    0 -0.64743675631E+02  0.27971547037E+02 -0.57668434422E+02  0.12025311844E+03  0.78492121819E+02 0.  0.
          5    1    3    3  502    0  0.76280246713E+02  0.50173915891E+02 -0.30892311110E+02  0.96501413255E+02  0.47000000000E+01 0. -1.
        -13    1    4    4    0    0 -0.87047460679E+01 -0.15857732585E+01 -0.16047593414E+02  0.18325188548E+02  0.00000000000E+00 0.  1.
         14    1    4    4    0    0  0.16593074362E+02  0.15295049281E+02  0.87646785833E+02  0.90505401586E+02  0.00000000000E+00 0. -1.
         -5    1    5    5    0  501 -0.19424899376E+02 -0.91854738951E+02 -0.90538999954E+02  0.13051444478E+03  0.47000000000E+01 0.  1.
         13    1    6    6    0    0  0.10138564829E+02  0.10310645425E+02  0.10170965749E+02  0.17679039853E+02  0.00000000000E+00 0. -1.
        -14    1    6    6    0    0 -0.74882240460E+02  0.17660901612E+02 -0.67839400170E+02  0.10257407858E+03  0.00000000000E+00 0.  1.
</event>
<event>
12    1  0.2685360E-002  0.2641656E+03  0.7818608E-02  0.1104666E+00
         -2   -1    0    0    0  501 -0.00000000000E+00  0.00000000000E+00  0.21225635347E+02  0.21225635347E+02  0.00000000000E+00 0. -1.
          2   -1    0    0  502    0  0.00000000000E+00 -0.00000000000E+00 -0.36382505437E+04  0.36382505437E+04  0.00000000000E+00 0.  1.
          6    2    1    2  502    0 -0.19065570968E+03  0.67395651907E+02 -0.12495495060E+04  0.12774673037E+04  0.17221199286E+03 0.  0.
         24    2    3    3    0    0 -0.16292920885E+03 -0.33016745880E+01 -0.99892338751E+03  0.10155466819E+04  0.83248429010E+02 0.  0.
         -6    2    1    2    0  501  0.19065570968E+03 -0.67395651907E+02 -0.23674754023E+04  0.23820088753E+04  0.16773409931E+03 0.  0.
        -24    2    5    5    0    0  0.36908675966E+02 -0.50370743667E+02 -0.69033899639E+03  0.69774743127E+03  0.79900473898E+02 0.  0.
          5    1    3    3  502    0 -0.27726500833E+02  0.70697326495E+02 -0.25062611854E+03  0.26192062178E+03  0.47000000000E+01 0. -1.
        -13    1    4    4    0    0 -0.14801003581E+03  0.15884853414E+02 -0.94144320130E+03  0.95313933952E+03  0.00000000000E+00 0.  1.
         14    1    4    4    0    0 -0.14919173040E+02 -0.19186528002E+02 -0.57480186202E+02  0.62407342411E+02  0.00000000000E+00 0. -1.
         -5    1    5    5    0  501  0.15374703372E+03 -0.17024908240E+02 -0.16771364059E+04  0.16842614441E+04  0.47000000000E+01 0.  1.
         13    1    6    6    0    0  0.51381574596E+02 -0.25736896939E+01 -0.34308731494E+03  0.34692304011E+03  0.00000000000E+00 0. -1.
        -14    1    6    6    0    0 -0.14472898631E+02 -0.47797053973E+02 -0.34725168145E+03  0.35082439116E+03  0.00000000000E+00 0.  1.
</event>
<event>
12    1  0.2685360E-002  0.1813070E+03  0.7818608E-02  0.1166544E+00
         -2   -1    0    0    0  501 -0.00000000000E+00  0.00000000000E+00  0.39907103165E+02  0.39907103165E+02  0.00000000000E+00 0.  1.
          2   -1    0    0  502    0  0.00000000000E+00 -0.00000000000E+00 -0.92649578826E+03  0.92649578826E+03  0.00000000000E+00 0. -1.
          6    2    1    2  502    0 -0.50977490679E+02 -0.64945772840E+01 -0.60767387986E+03  0.63460914987E+03  0.17555724065E+03 0.  0.
         24    2    3    3    0    0  0.26242223584E+02 -0.42698958119E+02 -0.25717724258E+03  0.27385490637E+03  0.79652497231E+02 0.  0.
         -6    2    1    2    0  501  0.50977490679E+02  0.64945772840E+01 -0.27891480523E+03  0.33179374155E+03  0.17219969299E+03 0.  0.
        -24    2    5    5    0    0  0.94852799029E+02  0.32793503890E+02 -0.19820655183E+03  0.23612458042E+03  0.79978202734E+02 0.  0.
          5    1    3    3  502    0 -0.77219714263E+02  0.36204380835E+02 -0.35049663727E+03  0.36075424350E+03  0.47000000000E+01 0. -1.
        -13    1    4    4    0    0  0.10271976382E+02 -0.48913688001E+02 -0.70648331036E+02  0.86540447484E+02  0.00000000000E+00 0.  1.
         14    1    4    4    0    0  0.15970247203E+02  0.62147298823E+01 -0.18652891155E+03  0.18731445888E+03  0.00000000000E+00 0. -1.
         -5    1    5    5    0  501 -0.43875308349E+02 -0.26298926606E+02 -0.80708253406E+02  0.95669161130E+02  0.47000000000E+01 0.  1.
         11    1    6    6    0    0  0.70265003624E+02  0.34737940382E+02 -0.68509308069E+02  0.10410293237E+03  0.00000000000E+00 0. -1.
        -12    1    6    6    0    0  0.24587795405E+02 -0.19444364920E+01 -0.12969724376E+03  0.13202164805E+03  0.00000000000E+00 0.  1.
</event>
<event>
12    1  0.2685360E-002  0.1754210E+03  0.7818608E-02  0.1172310E+00
         -2   -1    0    0    0  501 -0.00000000000E+00  0.00000000000E+00  0.11148473604E+03  0.11148473604E+03  0.00000000000E+00 0. -1.
          2   -1    0    0  502    0  0.00000000000E+00 -0.00000000000E+00 -0.30220287650E+03  0.30220287650E+03  0.00000000000E+00 0.  1.
          6    2    1    2  502    0 -0.29680326930E+02  0.87364871671E+01 -0.34360594255E+02  0.17851612122E+03  0.17242420678E+03 0.  0.
         24    2    3    3    0    0  0.74792808156E+01 -0.59019303294E+02 -0.22750036507E+02  0.10023088225E+03  0.77391522750E+02 0.  0.
         -6    2    1    2    0  501  0.29680326930E+02 -0.87364871671E+01 -0.15635754621E+03  0.23517149132E+03  0.17291818891E+03 0.  0.
        -24    2    5    5    0    0  0.32054859159E+01 -0.70977349414E+02 -0.90698498123E+02  0.14078906321E+03  0.80915285872E+02 0.  0.
          5    1    3    3  502    0 -0.37159607746E+02  0.67755790461E+02 -0.11610557748E+02  0.78285238966E+02  0.47000000000E+01 0. -1.
        -13    1    4    4    0    0  0.41760504063E+02 -0.38943380484E+02 -0.71347839057E+01  0.57545040833E+02  0.00000000000E+00 0.  1.
         14    1    4    4    0    0 -0.34281223247E+02 -0.20075922810E+02 -0.15615252602E+02  0.42685841421E+02  0.00000000000E+00 0. -1.
         -5    1    5    5    0  501  0.26474841014E+02  0.62240862247E+02 -0.65659048086E+02  0.94382428107E+02  0.47000000000E+01 0.  1.
         11    1    6    6    0    0 -0.16633656610E+02 -0.11142903735E+02  0.96953622982E+01  0.22245064305E+02  0.00000000000E+00 0. -1.
        -12    1    6    6    0    0  0.19839142526E+02 -0.59834445679E+02 -0.10039386042E+03  0.11854399890E+03  0.00000000000E+00 0.  1.
</event>
<event>
12    1  0.2685360E-002  0.2083921E+03  0.7818608E-02  0.1142846E+00
          3   -1    0    0  502    0  0.00000000000E+00  0.00000000000E+00  0.53693138657E+02  0.53693138657E+02  0.00000000000E+00 0. -1.
         -3   -1    0    0    0  501 -0.00000000000E+00 -0.00000000000E+00 -0.10768485642E+04  0.10768485642E+04  0.00000000000E+00 0.  1.
          6    2    1    2  502    0 -0.11030946421E+03  0.99820772900E+01 -0.21901977070E+03  0.29830873741E+03  0.16956008699E+03 0.  0.
         24    2    3    3    0    0 -0.54290298798E+02 -0.39368017014E+02 -0.19270075377E+03  0.21900956117E+03  0.79588504643E+02 0.  0.
         -6    2    1    2    0  501  0.11030946421E+03 -0.99820772900E+01 -0.80413565485E+03  0.83223296545E+03  0.18360211768E+03 0.  0.
        -24    2    5    5    0    0  0.15089300718E+03 -0.15753589110E+02 -0.68328064904E+03  0.70452878878E+03  0.80445594568E+02 0.  0.
          5    1    3    3  502    0 -0.56019165411E+02  0.49350094304E+02 -0.26319016922E+02  0.79299176243E+02  0.47000000000E+01 0. -1.
        -11    1    4    4    0    0 -0.34148332428E+02 -0.11236565217E+02 -0.17769812039E+03  0.18129807223E+03  0.00000000000E+00 0.  1.
         12    1    4    4    0    0 -0.20141966370E+02 -0.28131451797E+02 -0.15002633387E+02  0.37711488939E+02  0.00000000000E+00 0. -1.
         -5    1    5    5    0  501 -0.40583542968E+02  0.57715118195E+01 -0.12085500581E+03  0.12770417667E+03  0.47000000000E+01 0.  1.
         13    1    6    6    0    0  0.99038878910E+01 -0.28291377873E+02 -0.10696317730E+03  0.11108379880E+03  0.00000000000E+00 0. -1.
        -14    1    6    6    0    0  0.14098911929E+03  0.12537788764E+02 -0.57631747174E+03  0.59344498998E+03  0.00000000000E+00 0.  1.
</event>
<event>
12    1  0.2685360E-002  0.2825480E+03  0.7818608E-02  0.1094305E+00
         -2   -1    0    0    0  501 -0.00000000000E+00  0.00000000000E+00  0.91515497406E+02  0.91515497406E+02  0.00000000000E+00 0.  1.
          2   -1    0    0  502    0  0.00000000000E+00 -0.00000000000E+00 -0.87552373034E+03  0.87552373034E+03  0.00000000000E+00 0. -1.
          6    2    1    2  502    0 -0.14029087673E+03 -0.17184644401E+03 -0.36167909850E+03  0.45840805027E+03  0.17353224439E+03 0.  0.
         24    2    3    3    0    0 -0.14156058109E+01 -0.48384000630E+02 -0.14725975514E+03  0.17463514704E+03  0.80429992174E+02 0.  0.
         -6    2    1    2    0  501  0.14029087673E+03  0.17184644401E+03 -0.42232913443E+03  0.50863117748E+03  0.17643992321E+03 0.  0.
        -24    2    5    5    0    0  0.52660936504E+01  0.95443699694E+02 -0.14925678342E+03  0.19452980806E+03  0.80168742496E+02 0.  0.
          5    1    3    3  502    0 -0.13887527091E+03 -0.12346244338E+03 -0.21441934336E+03  0.28377290323E+03  0.47000000000E+01 0. -1.
        -13    1    4    4    0    0  0.44343045396E+00 -0.35141314845E+02 -0.97428783799E+01  0.36469608152E+02  0.00000000000E+00 0.  1.
         14    1    4    4    0    0 -0.18590362649E+01 -0.13242685785E+02 -0.13751687676E+03  0.13816553889E+03  0.00000000000E+00 0. -1.
         -5    1    5    5    0  501  0.13502478308E+03  0.76402744319E+02 -0.27307235101E+03  0.31410136942E+03  0.47000000000E+01 0.  1.
         11    1    6    6    0    0  0.16502936105E+02  0.78005776896E+02 -0.15384941467E+03  0.17328268963E+03  0.00000000000E+00 0. -1.
        -12    1    6    6    0    0 -0.11236842455E+02  0.17437922798E+02  0.45926312533E+01  0.21247118432E+02  0.00000000000E+00 0.  1.
</event>
<event>
12    1  0.2685360E-002  0.1744325E+03  0.7818608E-02  0.1173303E+00
          2   -1    0    0  502    0  0.00000000000E+00  0.00000000000E+00  0.19092456682E+04  0.19092456682E+04  0.00000000000E+00 0. -1.
         -2   -1    0    0    0  501 -0.00000000000E+00 -0.00000000000E+00 -0.16076102248E+02  0.16076102248E+02  0.00000000000E+00 0.  1.
          6    2    1    2  502    0  0.83407694471E+01 -0.24989248103E+02  0.85526389322E+03  0.87281015987E+03  0.17212558543E+03 0.  0.
         24    2    3    3    0    0 -0.47973125605E+02  0.21711422248E+02  0.38244982171E+03  0.39434653156E+03  0.80427073771E+02 0.  0.
         -6    2    1    2    0  501 -0.83407694471E+01  0.24989248103E+02  0.10379056727E+04  0.10525116105E+04  0.17273816593E+03 0.  0.
        -24    2    5    5    0    0 -0.61624367672E+02  0.67882613609E+01  0.41714974619E+03  0.42918952041E+03  0.79662353107E+02 0.  0.
          5    1    3    3  502    0  0.56313895052E+02 -0.46700670350E+02  0.47281407152E+03  0.47846362831E+03  0.47000000000E+01 0. -1.
        -13    1    4    4    0    0 -0.41730546035E+02 -0.21270323300E+02  0.12983896395E+03  0.13802906102E+03  0.00000000000E+00 0.  1.
         14    1    4    4    0    0 -0.62425795696E+01  0.42981745547E+02  0.25261085776E+03  0.25631747054E+03  0.00000000000E+00 0. -1.
         -5    1    5    5    0  501  0.53283598225E+02  0.18200986742E+02  0.62075592651E+03  0.62332209014E+03  0.47000000000E+01 0.  1.
         13    1    6    6    0    0 -0.46157691434E+01 -0.15035219523E+01  0.28485006556E+03  0.28489142801E+03  0.00000000000E+00 0. -1.
        -14    1    6    6    0    0 -0.57008598528E+02  0.82917833133E+01  0.13229968062E+03  0.14429809240E+03  0.00000000000E+00 0.  1.
</event>
<event>
12    1  0.2685360E-002  0.2195949E+03  0.7818608E-02  0.1134185E+00
          2   -1    0    0  502    0  0.00000000000E+00  0.00000000000E+00  0.43068225400E+03  0.43068225400E+03  0.00000000000E+00 0.  1.
         -2   -1    0    0    0  501 -0.00000000000E+00 -0.00000000000E+00 -0.14921935567E+03  0.14921935567E+03  0.00000000000E+00 0. -1.
          6    2    1    2  502    0  0.64014885295E+02 -0.12033863651E+03 -0.45144636961E+01  0.21886378796E+03  0.17117734757E+03 0.  0.
         24    2    3    3    0    0  0.32137577869E+02 -0.29241934244E+02  0.53771154429E+02  0.10601842840E+03  0.80378202785E+02 0.  0.
         -6    2    1    2    0  501 -0.64014885295E+02  0.12033863651E+03  0.28597736203E+03  0.36103782172E+03  0.17316455799E+03 0.  0.
        -24    2    5    5    0    0  0.29343487994E+02  0.47395357165E+02  0.67382728266E+02  0.11235687799E+03  0.70542723185E+02 0.  0.
          5    1    3    3  502    0  0.31877307426E+02 -0.91096702267E+02 -0.58285618125E+02  0.11284535955E+03  0.47000000000E+01 0. -1.
        -11    1    4    4    0    0  0.11127901306E+02 -0.40415756138E+02 -0.53767607188E+01  0.42263141004E+02  0.00000000000E+00 0.  1.
         12    1    4    4    0    0  0.21009676563E+02  0.11173821894E+02  0.59147915148E+02  0.63755287400E+02  0.00000000000E+00 0. -1.
         -5    1    5    5    0  501 -0.93358373289E+02  0.72943279346E+02  0.21859463376E+03  0.24868094373E+03  0.47000000000E+01 0.  1.
         13    1    6    6    0    0 -0.19233430597E+02  0.93282490905E+00  0.33987540356E+01  0.19553683638E+02  0.00000000000E+00 0. -1.
        -14    1    6    6    0    0  0.48576918591E+02  0.46462532256E+02  0.63983974230E+02  0.92803194351E+02  0.00000000000E+00 0.  1.
</event>
<event>
12    1  0.2685360E-002  0.1915429E+03  0.7818608E-02  0.1157077E+00
          1   -1    0    0  502    0  0.00000000000E+00  0.00000000000E+00  0.23358807778E+04  0.23358807778E+04  0.00000000000E+00 0.  1.
         -1   -1    0    0    0  501 -0.00000000000E+00 -0.00000000000E+00 -0.15706640563E+02  0.15706640563E+02  0.00000000000E+00 0. -1.
          6    2    1    2  502    0  0.59820396408E+02 -0.61293067469E+02  0.11618532206E+04  0.11775198717E+04  0.17121571843E+03 0.  0.
         24    2    3    3    0    0  0.23249574166E+02 -0.10497456271E+03  0.81875833725E+03  0.82969565316E+03  0.80432956824E+02 0.  0.
         -6    2    1    2    0  501 -0.59820396408E+02  0.61293067469E+02  0.11583209166E+04  0.11740675466E+04  0.17144077143E+03 0.  0.
        -24    2    5    5    0    0 -0.89840751818E+02  0.24212343676E+02  0.53341315450E+03  0.54732357734E+03  0.79849274569E+02 0.  0.
          5    1    3    3  502    0  0.36570822242E+02  0.43681495245E+02  0.34309488330E+03  0.34782421856E+03  0.47000000000E+01 0. -1.
        -11    1    4    4    0    0  0.15519066068E+02 -0.37983984201E+01  0.33643437701E+03  0.33681353785E+03  0.00000000000E+00 0.  1.
         12    1    4    4    0    0  0.77305080981E+01 -0.10117616429E+03  0.48232396024E+03  0.49288211531E+03  0.00000000000E+00 0. -1.
         -5    1    5    5    0  501  0.30020355410E+02  0.37080723793E+02  0.62490776214E+03  0.62674396926E+03  0.47000000000E+01 0.  1.
         11    1    6    6    0    0 -0.77430352705E+02  0.44294476584E+02  0.48856111156E+03  0.49663811765E+03  0.00000000000E+00 0. -1.
        -12    1    6    6    0    0 -0.12410399113E+02 -0.20082132908E+02  0.44852042936E+02  0.50685459688E+02  0.00000000000E+00 0.  1.
</event>
<event>
12    1  0.2685360E-002  0.2071818E+03  0.7818608E-02  0.1143817E+00
          4   -1    0    0  502    0  0.00000000000E+00  0.00000000000E+00  0.51445555846E+03  0.51445555846E+03  0.00000000000E+00 0. -1.
         -4   -1    0    0    0  501 -0.00000000000E+00 -0.00000000000E+00 -0.93151499899E+02  0.93151499899E+02  0.00000000000E+00 0.  1.
          6    2    1    2  502    0  0.77301095479E+02 -0.83172355217E+02  0.11092779148E+03  0.23342272433E+03  0.17113764424E+03 0.  0.
         24    2    3    3    0    0  0.44600269368E+02 -0.25032248444E+02 -0.11385422505E+02  0.94023196498E+02  0.78070072014E+02 0.  0.
         -6    2    1    2    0  501 -0.77301095479E+02  0.83172355217E+02  0.31037626708E+03  0.37418433403E+03  0.17546335410E+03 0.  0.
        -24    2    5    5    0    0 -0.69119098228E+02  0.57675700883E+02  0.83253009718E+02  0.14543974175E+03  0.78215846490E+02 0.  0.
          5    1    3    3  502    0  0.32700826110E+02 -0.58140106773E+02  0.12231321399E+03  0.13939952783E+03  0.47000000000E+01 0. -1.
        -11    1    4    4    0    0  0.64899583099E+02 -0.26382851662E+02 -0.18520769473E+02  0.72463988643E+02  0.00000000000E+00 0.  1.
         12    1    4    4    0    0 -0.20299313730E+02  0.13506032177E+01  0.71353469685E+01  0.21559207855E+02  0.00000000000E+00 0. -1.
         -5    1    5    5    0  501 -0.81819972506E+01  0.25496654335E+02  0.22712325736E+03  0.22874459228E+03  0.47000000000E+01 0.  1.
         13    1    6    6    0    0  0.54867730655E+01  0.11863741954E+02  0.50176595934E+02  0.51851170010E+02  0.00000000000E+00 0. -1.
        -14    1    6    6    0    0 -0.74605871293E+02  0.45811958929E+02  0.33076413784E+02  0.93588571744E+02  0.00000000000E+00 0.  1.
</event>
<event>
12    1  0.2685360E-002  0.4445788E+03  0.7818608E-02  0.1029351E+00
          1   -1    0    0  502    0  0.00000000000E+00  0.00000000000E+00  0.18795116966E+04  0.18795116966E+04  0.00000000000E+00 0. -1.
         -1   -1    0    0    0  501 -0.00000000000E+00 -0.00000000000E+00 -0.53918700153E+03  0.53918700153E+03  0.00000000000E+00 0.  1.
          6    2    1    2  502    0 -0.13738846669E+03 -0.38546264398E+03  0.17552563644E+04  0.18107403815E+04  0.17435247030E+03 0.  0.
         24    2    3    3    0    0 -0.27078698372E+02 -0.17188783863E+03  0.58839935786E+03  0.61937150240E+03  0.84430851514E+02 0.  0.
         -6    2    1    2    0  501  0.13738846669E+03  0.38546264398E+03 -0.41493166934E+03  0.60795831657E+03  0.17317038948E+03 0.  0.
        -24    2    5    5    0    0  0.92691190083E+00  0.16285101242E+03 -0.19096286642E+03  0.26392080537E+03  0.81645965855E+02 0.  0.
          5    1    3    3  502    0 -0.11030976832E+03 -0.21357480535E+03  0.11668570065E+04  0.11913688791E+04  0.47000000000E+01 0. -1.
        -13    1    4    4    0    0 -0.22893646098E+00 -0.16871731164E+00 -0.29733119041E+01  0.29868815031E+01  0.00000000000E+00 0.  1.
         14    1    4    4    0    0 -0.26849761911E+02 -0.17171912131E+03  0.59137266976E+03  0.61638462090E+03  0.00000000000E+00 0. -1.
         -5    1    5    5    0  501  0.13646155479E+03  0.22261163155E+03 -0.22396880291E+03  0.34403751120E+03  0.47000000000E+01 0.  1.
         11    1    6    6    0    0  0.58072282652E+01  0.20103179695E+02  0.49180886063E+01  0.21495332738E+02  0.00000000000E+00 0. -1.
        -12    1    6    6    0    0 -0.48803163644E+01  0.14274783273E+03 -0.19588095503E+03  0.24242547263E+03  0.00000000000E+00 0.  1.
</event>
<event>
12    1  0.2685360E-002  0.3044574E+03  0.7818608E-02  0.1083033E+00
          2   -1    0    0  502    0  0.00000000000E+00  0.00000000000E+00  0.22525059199E+03  0.22525059199E+03  0.00000000000E+00 0.  1.
         -2   -1    0    0    0  501 -0.00000000000E+00 -0.00000000000E+00 -0.67828883226E+03  0.67828883226E+03  0.00000000000E+00 0. -1.
          6    2    1    2  502    0 -0.23602653078E+03  0.92378740642E+02  0.55440386189E+02  0.31238555196E+03  0.17397914157E+03 0.  0.
         24    2    3    3    0    0 -0.12936385017E+03  0.12386220632E+03  0.39801340634E+02  0.19998089997E+03  0.79569854527E+02 0.  0.
         -6    2    1    2    0  501  0.23602653078E+03 -0.92378740642E+02 -0.50847862645E+03  0.59115387228E+03  0.16330962067E+03 0.  0.
        -24    2    5    5    0    0  0.47965358335E+02 -0.42567481684E+01 -0.18108475027E+03  0.20341513254E+03  0.79165862972E+02 0.  0.
          5    1    3    3  502    0 -0.10666268060E+03 -0.31483465678E+02  0.15639045555E+02  0.11240465200E+03  0.47000000000E+01 0. -1.
        -13    1    4    4    0    0 -0.30640114471E+01  0.49026990726E+02  0.79942920152E+01  0.49768892801E+02  0.00000000000E+00 0.  1.
         14    1    4    4    0    0 -0.12629983872E+03  0.74835215594E+02  0.31807048618E+02  0.15021200717E+03  0.00000000000E+00 0. -1.
         -5    1    5    5    0  501  0.18806117244E+03 -0.88121992473E+02 -0.32739387618E+03  0.38773873975E+03  0.47000000000E+01 0.  1.
         13    1    6    6    0    0  0.68991200835E+02 -0.83410164131E+01 -0.15344235885E+03  0.16844558717E+03  0.00000000000E+00 0. -1.
        -14    1    6    6    0    0 -0.21025842500E+02  0.40842682446E+01 -0.27642391422E+02  0.34969545371E+02  0.00000000000E+00 0.  1.
</event>
<event>
12    1  0.2685360E-002  0.2099858E+03  0.7818608E-02  0.1141577E+00
         -3   -1    0    0    0  501 -0.00000000000E+00  0.00000000000E+00  0.32382318929E+03  0.32382318929E+03  0.00000000000E+00 0. -1.
          3   -1    0    0  502    0  0.00000000000E+00 -0.00000000000E+00 -0.20908557265E+03  0.20908557265E+03  0.00000000000E+00 0.  1.
          6    2    1    2  502    0 -0.83271993032E+02 -0.89625405034E+02  0.21493573866E+03  0.30134938350E+03  0.17218345196E+03 0.  0.
         24    2    3    3    0    0 -0.10341802241E+03 -0.10092695455E+03  0.12094238497E+03  0.20444516244E+03  0.79304643280E+02 0.  0.
         -6    2    1    2    0  501  0.83271993032E+02  0.89625405034E+02 -0.10019812202E+03  0.23155937844E+03  0.16915420195E+03 0.  0.
        -24    2    5    5    0    0  0.82775317044E+02  0.12185482390E+03 -0.92672524473E+02  0.19812725697E+03  0.94688235498E+02 0.  0.
          5    1    3    3  502    0  0.20146029382E+02  0.11301549517E+02  0.93993353690E+02  0.96904221060E+02  0.47000000000E+01 0. -1.
        -13    1    4    4    0    0  0.77762596500E+01  0.10501924396E+00 -0.42678425154E+01  0.88710609806E+01  0.00000000000E+00 0.  1.
         14    1    4    4    0    0 -0.11119428206E+03 -0.10103197380E+03  0.12521022749E+03  0.19557410146E+03  0.00000000000E+00 0. -1.
         -5    1    5    5    0  501  0.49667598820E+00 -0.32229418870E+02 -0.75255975477E+01  0.33432121473E+02  0.47000000000E+01 0.  1.
         13    1    6    6    0    0 -0.18809706881E+02  0.34787577389E+01 -0.10274870451E+02  0.21713585405E+02  0.00000000000E+00 0. -1.
        -14    1    6    6    0    0  0.10158502393E+03  0.11837606616E+03 -0.82397654022E+02  0.17641367156E+03  0.00000000000E+00 0.  1.
</event>
<event>
12    1  0.2685360E-002  0.1943441E+03  0.7818608E-02  0.1154601E+00
          1   -1    0    0  502    0  0.00000000000E+00  0.00000000000E+00  0.42114985907E+03  0.42114985907E+03  0.00000000000E+00 0. -1.
         -1   -1    0    0    0  501 -0.00000000000E+00 -0.00000000000E+00 -0.10769637359E+03  0.10769637359E+03  0.00000000000E+00 0.  1.
          6    2    1    2  502    0  0.87081950532E+02 -0.34699895398E+02  0.49960877476E+02  0.20261462534E+03  0.17253767204E+03 0.  0.
         24    2    3    3    0    0  0.21307992930E+02  0.39254843847E+02  0.39841773318E+02  0.10301541237E+03  0.83844111041E+02 0.  0.
         -6    2    1    2    0  501 -0.87081950532E+02  0.34699895398E+02  0.26349260800E+03  0.32623160732E+03  0.16796237167E+03 0.  0.
        -24    2    5    5    0    0 -0.40220385990E+02  0.81658148552E+02  0.20127918618E+03  0.23516194374E+03  0.80635577266E+02 0.  0.
          5    1    3    3  502    0  0.65773957602E+02 -0.73954739244E+02  0.10119104158E+02  0.99599212970E+02  0.47000000000E+01 0. -1.
        -13    1    4    4    0    0  0.37606961166E+02  0.28485077573E+02 -0.11092096499E+02  0.48463571651E+02  0.00000000000E+00 0.  1.
         14    1    4    4    0    0 -0.16298968236E+02  0.10769766274E+02  0.50933869817E+02  0.54551840718E+02  0.00000000000E+00 0. -1.
         -5    1    5    5    0  501 -0.46861564542E+02 -0.46958253154E+02  0.62213421816E+02  0.91069663581E+02  0.47000000000E+01 0.  1.
         11    1    6    6    0    0 -0.59645805590E+02  0.74725108969E+02  0.13275684745E+03  0.16360270346E+03  0.00000000000E+00 0. -1.
        -12    1    6    6    0    0  0.19425419600E+02  0.69330395828E+01  0.68522338731E+02  0.71559240281E+02  0.00000000000E+00 0.  1.
</event>
<event>
12    1  0.2685360E-002  0.1797420E+03  0.7818608E-02  0.1168053E+00
         -2   -1    0    0    0  501 -0.00000000000E+00  0.00000000000E+00  0.34199128484E+03  0.34199128484E+03  0.00000000000E+00 0. -1.
          2   -1    0    0  502    0  0.00000000000E+00 -0.00000000000E+00 -0.11336256321E+03  0.11336256321E+03  0.00000000000E+00 0.  1.
          6    2    1    2  502    0  0.47077298117E+02 -0.28731859396E+02  0.20708425523E+03  0.27398742228E+03  0.17071446061E+03 0.  0.
         24    2    3    3    0    0  0.69143631583E+02 -0.53271801276E+02  0.20923511273E+03  0.24058311106E+03  0.80511951475E+02 0.  0.
         -6    2    1    2    0  501 -0.47077298117E+02  0.28731859396E+02  0.21544466404E+02  0.18136642577E+03  0.17142877420E+03 0.  0.
        -24    2    5    5    0    0  0.28283861143E+02  0.51548941480E+02  0.23948791774E+02  0.10245005016E+03  0.80406454844E+02 0.  0.
          5    1    3    3  502    0 -0.22066333465E+02  0.24539941880E+02 -0.21508574978E+01  0.33404311219E+02  0.47000000000E+01 0. -1.
        -11    1    4    4    0    0  0.44999055890E+02 -0.45518762211E+01  0.32559025712E+02  0.55729029808E+02  0.00000000000E+00 0.  1.
         12    1    4    4    0    0  0.24144575693E+02 -0.48719925055E+02  0.17667608702E+03  0.18485408125E+03  0.00000000000E+00 0. -1.
         -5    1    5    5    0  501 -0.75361159261E+02 -0.22817082084E+02 -0.24043253700E+01  0.78916375616E+02  0.47000000000E+01 0.  1.
         11    1    6    6    0    0  0.22242067099E+02  0.15745641567E+02 -0.27998452566E+02  0.39071065038E+02  0.00000000000E+00 0. -1.
        -12    1    6    6    0    0  0.60417940446E+01  0.35803299913E+02  0.51947244340E+02  0.63378985117E+02  0.00000000000E+00 0.  1.
</event>
<event>
12    1  0.2685360E-002  0.3141139E+03  0.7818608E-02  0.1078391E+00
         -4   -1    0    0    0  501 -0.00000000000E+00  0.00000000000E+00  0.72635265043E+03  0.72635265043E+03  0.00000000000E+00 0.  1.
          4   -1    0    0  502    0  0.00000000000E+00 -0.00000000000E+00 -0.14592663383E+03  0.14592663383E+03  0.00000000000E+00 0. -1.
          6    2    1    2  502    0  0.13434046176E+03 -0.22540606510E+03  0.17530093106E+03  0.35946974599E+03  0.17214188336E+03 0.  0.
         24    2    3    3    0    0  0.14725534763E+02 -0.54264301491E+02  0.93186588109E+02  0.13505475245E+03  0.79966181381E+02 0.  0.
         -6    2    1    2    0  501 -0.13434046176E+03  0.22540606510E+03  0.40512508555E+03  0.51280953826E+03  0.17318208263E+03 0.  0.
        -24    2    5    5    0    0 -0.70912118943E+02  0.35947920154E+02  0.17909237468E+03  0.21109705967E+03  0.78530938837E+02 0.  0.
          5    1    3    3  502    0  0.11961492700E+03 -0.17114176361E+03  0.82114342947E+02  0.22441499355E+03  0.47000000000E+01 0. -1.
        -13    1    4    4    0    0  0.28360167787E+02  0.77815749157E+01  0.11507176464E+02  0.31579536653E+02  0.00000000000E+00 0.  1.
         14    1    4    4    0    0 -0.13634633024E+02 -0.62045876407E+02  0.81679411646E+02  0.10347521579E+03  0.00000000000E+00 0. -1.
         -5    1    5    5    0  501 -0.63428342815E+02  0.18945814495E+03  0.22603271087E+03  0.30171247860E+03  0.47000000000E+01 0.  1.
         13    1    6    6    0    0 -0.33406160600E+02  0.12287484355E+02  0.11002507918E+02  0.37255993052E+02  0.00000000000E+00 0. -1.
        -14    1    6    6    0    0 -0.37505958343E+02  0.23660435799E+02  0.16808986676E+03  0.17384106661E+03  0.00000000000E+00 0.  1.
</event>
<event>
12    1  0.2685360E-002  0.2133303E+03  0.7818608E-02  0.1138956E+00
          2   -1    0    0  502    0  0.00000000000E+00  0.00000000000E+00  0.20678631583E+04  0.20678631583E+04  0.00000000000E+00 0. -1.
         -2   -1    0    0    0  501 -0.00000000000E+00 -0.00000000000E+00 -0.25000913118E+02  0.25000913118E+02  0.00000000000E+00 0.  1.
          6    2    1    2  502    0  0.12325026316E+03 -0.43162552056E+02  0.13991060233E+04  0.14158624791E+04  0.17353749441E+03 0.  0.
         24    2    3    3    0    0  0.10671410354E+03 -0.20198436929E+02  0.56219063626E+03  0.57845561845E+03  0.82199235247E+02 0.  0.
         -6    2    1    2    0  501 -0.12325026316E+03  0.43162552056E+02  0.64375622188E+03  0.67700159234E+03  0.16387632394E+03 0.  0.
        -24    2    5    5    0    0 -0.49367589649E+02  0.67123001759E+02  0.50319518716E+03  0.51633968934E+03  0.80365553123E+02 0.  0.
          5    1    3    3  502    0  0.16536159615E+02 -0.22964115127E+02  0.83691538705E+03  0.83740686063E+03  0.47000000000E+01 0. -1.
        -13    1    4    4    0    0  0.79557681406E+02 -0.39808733990E+02  0.49966440806E+03  0.50752209868E+03  0.00000000000E+00 0.  1.
         14    1    4    4    0    0  0.27156422134E+02  0.19610297061E+02  0.62526228201E+02  0.70933519770E+02  0.00000000000E+00 0. -1.
         -5    1    5    5    0  501 -0.73882673506E+02 -0.23960449704E+02  0.14056103472E+03  0.16066190300E+03  0.47000000000E+01 0.  1.
         13    1    6    6    0    0 -0.65013195152E+02  0.47948852666E+02  0.26974745232E+03  0.28158390588E+03  0.00000000000E+00 0. -1.
        -14    1    6    6    0    0  0.15645605503E+02  0.19174149093E+02  0.23344773484E+03  0.23475578346E+03  0.00000000000E+00 0.  1.
</event>
<event>
12    1  0.2685360E-002  0.1961567E+03  0.7818608E-02  0.1153023E+00
         -2   -1    0    0    0  501 -0.00000000000E+00  0.00000000000E+00  0.80304235875E+02  0.80304235875E+02  0.00000000000E+00 0. -1.
          2   -1    0    0  502    0  0.00000000000E+00 -0.00000000000E+00 -0.60793890490E+03  0.60793890490E+03  0.00000000000E+00 0.  1.
          6    2    1    2  502    0 -0.79253074587E+02  0.47190739435E+02 -0.42322555755E+03  0.46688251456E+03  0.17421651506E+03 0.  0.
         24    2    3    3    0    0 -0.46751587256E+02 -0.40330276636E+02 -0.17138661662E+03  0.19825411490E+03  0.78224545989E+02 0.  0.
         -6    2    1    2    0  501  0.79253074587E+02 -0.47190739435E+02 -0.10440911148E+03  0.22136062622E+03  0.17202107011E+03 0.  0.
        -24    2    5    5    0    0 -0.18697933789E+02 -0.27115583076E+02 -0.30497515443E+02  0.96932229245E+02  0.85912112329E+02 0.  0.
          5    1    3    3  502    0 -0.32501487331E+02  0.87521016072E+02 -0.25183894093E+03  0.26862839966E+03  0.47000000000E+01 0. -1.
        -13    1    4    4    0    0 -0.25062038639E+02  0.21004928643E+02 -0.76613058616E+02  0.83299901311E+02  0.00000000000E+00 0.  1.
         14    1    4    4    0    0 -0.21689548618E+02 -0.61335205279E+02 -0.94773558001E+02  0.11495421359E+03  0.00000000000E+00 0. -1.
         -5    1    5    5    0  501  0.97951008376E+02 -0.20075156360E+02 -0.73911596037E+02  0.12442839697E+03  0.47000000000E+01 0.  1.
         13    1    6    6    0    0 -0.15549308357E+01 -0.56813388898E+02 -0.25448223974E+02  0.62271912380E+02  0.00000000000E+00 0. -1.
        -14    1    6    6    0    0 -0.17143002953E+02  0.29697805822E+02 -0.50492914684E+01  0.34660316866E+02  0.00000000000E+00 0.  1.
</event>
<event>
12    1  0.2685360E-002  0.2784910E+03  0.7818608E-02  0.1096516E+00
         -1   -1    0    0    0  501 -0.00000000000E+00  0.00000000000E+00  0.73836764072E+03  0.73836764072E+03  0.00000000000E+00 0.  1.
          1   -1    0    0  502    0  0.00000000000E+00 -0.00000000000E+00 -0.11596240085E+03  0.11596240085E+03  0.00000000000E+00 0. -1.
          6    2    1    2  502    0 -0.21621463760E+03 -0.25388613019E+02  0.17925614913E+03  0.33049215921E+03  0.17233383044E+03 0.  0.
         24    2    3    3    0    0 -0.15883067925E+03  0.88867019347E+01  0.19054295260E+03  0.26254219362E+03  0.85531447452E+02 0.  0.
         -6    2    1    2    0  501  0.21621463760E+03  0.25388613019E+02  0.44314909073E+03  0.52383788236E+03  0.17501902524E+03 0.  0.
        -24    2    5    5    0    0  0.37830815801E+02  0.31097789264E+02  0.10323276440E+03  0.13988660748E+03  0.80703260070E+02 0.  0.
          5    1    3    3  502    0 -0.57383958356E+02 -0.34275314954E+02 -0.11286803463E+02  0.67949965594E+02  0.47000000000E+01 0. -1.
        -11    1    4    4    0    0 -0.11066990193E+03  0.44506281666E+02  0.14191322901E+03  0.18538608596E+03  0.00000000000E+00 0.  1.
         12    1    4    4    0    0 -0.48160777312E+02 -0.35619579731E+02  0.48629723588E+02  0.77156107651E+02  0.00000000000E+00 0. -1.
         -5    1    5    5    0  501  0.17838382180E+03 -0.57091762452E+01  0.33991632633E+03  0.38395127488E+03  0.47000000000E+01 0.  1.
         11    1    6    6    0    0  0.61832972199E+02  0.11040158014E+02  0.63470591503E+02  0.89295674731E+02  0.00000000000E+00 0. -1.
        -12    1    6    6    0    0 -0.24002156398E+02  0.20057631251E+02  0.39762172898E+02  0.50590932752E+02  0.00000000000E+00 0.  1.
</event>
<event>
12    1  0.2685360E-002  0.2304547E+03  0.7818608E-02  0.1126320E+00
          1   -1    0    0  502    0  0.00000000000E+00  0.00000000000E+00  0.14393457718E+04  0.14393457718E+04  0.00000000000E+00 0.  1.
         -1   -1    0    0    0  501 -0.00000000000E+00 -0.00000000000E+00 -0.37153356443E+02  0.37153356443E+02  0.00000000000E+00 0. -1.
          6    2    1    2  502    0  0.14649256411E+03 -0.49430806560E+02  0.76370725227E+03  0.79786028976E+03  0.17154824050E+03 0.  0.
         24    2    3    3    0    0  0.62277278744E+02 -0.91656927145E+02  0.45774675494E+03  0.47768974851E+03  0.79849561302E+02 0.  0.
         -6    2    1    2    0  501 -0.14649256411E+03  0.49430806560E+02  0.63848516311E+03  0.67863883852E+03  0.17024656722E+03 0.  0.
        -24    2    5    5    0    0 -0.16308772858E+03  0.31845478612E+02  0.41573238696E+03  0.45452830211E+03  0.78427151743E+02 0.  0.
          5    1    3    3  502    0  0.84215285361E+02  0.42226120585E+02  0.30596049734E+03  0.32017054124E+03  0.47000000000E+01 0. -1.
        -11    1    4    4    0    0  0.15799713480E+02 -0.72376814087E+02  0.16802934950E+03  0.18363522662E+03  0.00000000000E+00 0.  1.
         12    1    4    4    0    0  0.46477565264E+02 -0.19280113058E+02  0.28971740543E+03  0.29405452189E+03  0.00000000000E+00 0. -1.
         -5    1    5    5    0  501  0.16595164479E+02  0.17585327947E+02  0.22275277615E+03  0.22411053640E+03  0.47000000000E+01 0.  1.
         13    1    6    6    0    0 -0.11719593699E+03  0.35890814606E+02  0.20524007363E+03  0.23905339580E+03  0.00000000000E+00 0. -1.
        -14    1    6    6    0    0 -0.45891791594E+02 -0.40453359939E+01  0.21049231333E+03  0.21547490631E+03  0.00000000000E+00 0.  1.
</event>
<event>
12    1  0.2685360E-002  0.1753617E+03  0.7818608E-02  0.1172369E+00
          1   -1    0    0  502    0  0.00000000000E+00  0.00000000000E+00  0.67028492229E+03  0.67028492229E+03  0.00000000000E+00 0. -1.
         -1   -1    0    0    0  501 -0.00000000000E+00 -0.00000000000E+00 -0.55886504233E+02  0.55886504233E+02  0.00000000000E+00 0.  1.
          6    2    1    2  502    0  0.67520242255E+01  0.32893458678E+02  0.15251317945E+03  0.23185813464E+03  0.17137781431E+03 0.  0.
         24    2    3    3    0    0 -0.46372001769E+02  0.48892401947E+02  0.58377947913E+02  0.12248875986E+03  0.83992154235E+02 0.  0.
         -6    2    1    2    0  501 -0.67520242255E+01 -0.32893458678E+02  0.46188523861E+03  0.49431329188E+03  0.17285857640E+03 0.  0.
        -24    2    5    5    0    0 -0.20224825814E+02 -0.14623542233E+00  0.44830946097E+03  0.45609956723E+03  0.81463964213E+02 0.  0.
          5    1    3    3  502    0  0.53124025994E+02 -0.15998943269E+02  0.94135231533E+02  0.10936937478E+03  0.47000000000E+01 0. -1.
        -13    1    4    4    0    0  0.54527977595E+01  0.41884974185E+02 -0.24024042383E+01  0.42306685193E+02  0.00000000000E+00 0.  1.
         14    1    4    4    0    0 -0.51824799528E+02  0.70074277616E+01  0.60780352152E+02  0.80182074666E+02  0.00000000000E+00 0. -1.
         -5    1    5    5    0  501  0.13472801589E+02 -0.32747223255E+02  0.13575777637E+02  0.38213724655E+02  0.47000000000E+01 0.  1.
         11    1    6    6    0    0 -0.23272733927E+02 -0.35097513714E+02  0.33064398356E+03  0.33331501538E+03  0.00000000000E+00 0. -1.
        -12    1    6    6    0    0  0.30479081132E+01  0.34951278292E+02  0.11766547741E+03  0.12278455185E+03  0.00000000000E+00 0.  1.
</event>
<event>
12    1  0.2685360E-002  0.2377909E+03  0.7818608E-02  0.1121273E+00
         -2   -1    0    0    0  501 -0.00000000000E+00  0.00000000000E+00  0.48741502145E+03  0.48741502145E+03  0.00000000000E+00 0. -1.
          2   -1    0    0  502    0  0.00000000000E+00 -0.00000000000E+00 -0.26425124916E+03  0.26425124916E+03  0.00000000000E+00 0.  1.
          6    2    1    2  502    0  0.31724391517E+02 -0.16243572890E+03  0.39314319026E+03  0.45962725230E+03  0.17118364400E+03 0.  0.
         24    2    3    3    0    0  0.35903436271E+02 -0.28406680381E+02  0.23880484351E+03  0.25511890152E+03  0.77213369332E+02 0.  0.
         -6    2    1    2    0  501 -0.31724391517E+02  0.16243572890E+03 -0.16997941798E+03  0.29203901831E+03  0.17029968479E+03 0.  0.
        -24    2    5    5    0    0 -0.54215791929E+02  0.13023179713E+03 -0.54772326716E+02  0.17022883733E+03  0.77962659055E+02 0.  0.
          5    1    3    3  502    0 -0.41790447541E+01 -0.13402904852E+03  0.15433834675E+03  0.20450835078E+03  0.47000000000E+01 0. -1.
        -11    1    4    4    0    0 -0.23526447076E+02 -0.44254138683E+01  0.44676601700E+02  0.50686060602E+02  0.00000000000E+00 0.  1.
         12    1    4    4    0    0  0.59429883347E+02 -0.23981266513E+02  0.19412824181E+03  0.20443284092E+03  0.00000000000E+00 0. -1.
         -5    1    5    5    0  501  0.22491400412E+02  0.32203931767E+02 -0.11520709126E+03  0.12181018098E+03  0.47000000000E+01 0.  1.
         13    1    6    6    0    0  0.46470710104E+01  0.69980059976E+02 -0.70645496072E+00  0.70137744060E+02  0.00000000000E+00 0. -1.
        -14    1    6    6    0    0 -0.58862862939E+02  0.60251737156E+02 -0.54065871756E+02  0.10009109327E+03  0.00000000000E+00 0.  1.
</event>
<event>
12    1  0.2685360E-002  0.1828903E+03  0.7818608E-02  0.1165035E+00
         -2   -1    0    0    0  501 -0.00000000000E+00  0.00000000000E+00  0.59603950814E+02  0.59603950814E+02  0.00000000000E+00 0.  1.
          2   -1    0    0  502    0  0.00000000000E+00 -0.00000000000E+00 -0.59480419440E+03  0.59480419440E+03  0.00000000000E+00 0. -1.
          6    2    1    2  502    0 -0.59208154298E+02  0.22507184087E+02 -0.19046899738E+03  0.26438811899E+03  0.17207690034E+03 0.  0.
         24    2    3    3    0    0  0.26305436784E+02  0.24801661250E+02 -0.57936879117E+02  0.10657591650E+03  0.81820814042E+02 0.  0.
         -6    2    1    2    0  501  0.59208154298E+02 -0.22507184087E+02 -0.34473124621E+03  0.39002002622E+03  0.17106668253E+03 0.  0.
        -24    2    5    5    0    0  0.78081766974E+02 -0.36785534278E+02 -0.12414187211E+03  0.16811498684E+03  0.73494942153E+02 0.  0.
          5    1    3    3  502    0 -0.85513591082E+02 -0.22944771632E+01 -0.13253211826E+03  0.15781220249E+03  0.47000000000E+01 0. -1.
        -11    1    4    4    0    0 -0.26572081886E+02  0.19564311510E+02 -0.36699639797E+02  0.49352825470E+02  0.00000000000E+00 0.  1.
         12    1    4    4    0    0  0.52877518670E+02  0.52373497405E+01 -0.21237239320E+02  0.57223091029E+02  0.00000000000E+00 0. -1.
         -5    1    5    5    0  501 -0.18873612676E+02  0.14278350191E+02 -0.22058937410E+03  0.22190503939E+03  0.47000000000E+01 0.  1.
         11    1    6    6    0    0  0.40813780354E+02 -0.55578486326E+02 -0.94231759104E+02  0.11676625040E+03  0.00000000000E+00 0. -1.
        -12    1    6    6    0    0  0.37267986620E+02  0.18792952048E+02 -0.29910113005E+02  0.51348736434E+02  0.00000000000E+00 0.  1.
</event>
<event>
12    1  0.2685360E-002  0.2312385E+03  0.7818608E-02  0.1125771E+00
         -3   -1    0    0    0  501 -0.00000000000E+00  0.00000000000E+00  0.61989190313E+03  0.61989190313E+03  0.00000000000E+00 0.  1.
          3   -1    0    0  502    0  0.00000000000E+00 -0.00000000000E+00 -0.10641982838E+03  0.10641982838E+03  0.00000000000E+00 0. -1.
          6    2    1    2  502    0  0.10691348791E+03 -0.11212432481E+03  0.99063475617E+02  0.25196479971E+03  0.17225077642E+03 0.  0.
         24    2    3    3    0    0  0.13352011115E+03 -0.12225646204E+03  0.10397736248E+03  0.22269350167E+03  0.77503814003E+02 0.  0.
         -6    2    1    2    0  501 -0.10691348791E+03  0.11212432481E+03  0.41440859914E+03  0.47434693180E+03  0.17107941594E+03 0.  0.
        -24    2    5    5    0    0 -0.82043567393E+00  0.12004638397E+02  0.10487567763E+03  0.13213003152E+03  0.79464791029E+02 0.  0.
          5    1    3    3  502    0 -0.26606623236E+02  0.10132137225E+02 -0.49138868667E+01  0.29271298039E+02  0.47000000000E+01 0. -1.
        -11    1    4    4    0    0  0.94587587379E+02 -0.76187508713E+02  0.10760797035E+03  0.16226775235E+03  0.00000000000E+00 0.  1.
         12    1    4    4    0    0  0.38932523767E+02 -0.46068953324E+02 -0.36306078618E+01  0.60425749319E+02  0.00000000000E+00 0. -1.
         -5    1    5    5    0  501 -0.10609305224E+03  0.10011968642E+03  0.30953292151E+03  0.34221690029E+03  0.47000000000E+01 0.  1.
         11    1    6    6    0    0 -0.17492736000E+02 -0.22381108438E+02  0.83811856302E+02  0.88494842135E+02  0.00000000000E+00 0. -1.
        -12    1    6    6    0    0  0.16672300326E+02  0.34385746835E+02  0.21063821323E+02  0.43635189381E+02  0.00000000000E+00 0.  1.
</event>
<event>
12    1  0.2685360E-002  0.1999549E+03  0.7818608E-02  0.1149777E+00
          1   -1    0    0  502    0  0.00000000000E+00  0.00000000000E+00  0.17022883804E+03  0.17022883804E+03  0.00000000000E+00 0. -1.
         -1   -1    0    0    0  501 -0.00000000000E+00 -0.00000000000E+00 -0.24369576931E+03  0.24369576931E+03  0.00000000000E+00 0.  1.
          6    2    1    2  502    0  0.78565008767E+02  0.70424718503E+02  0.29050420665E+01  0.19832140229E+03  0.16790127384E+03 0.  0.
         24    2    3    3    0    0  0.78973068702E+01  0.48209986950E+02  0.51089150204E+02  0.10982724053E+03  0.84055643449E+02 0.  0.
         -6    2    1    2    0  501 -0.78565008767E+02 -0.70424718503E+02 -0.76371973333E+02  0.21560320506E+03  0.17181374259E+03 0.  0.
        -24    2    5    5    0    0 -0.45374927121E+02 -0.41900491315E+02  0.26160098356E+02  0.10402305996E+03  0.79510446315E+02 0.  0.
          5    1    3    3  502    0  0.70667701897E+02  0.22214731552E+02 -0.48184108137E+02  0.88494161764E+02  0.47000000000E+01 0. -1.
        -13    1    4    4    0    0 -0.28249126495E+02  0.19108829351E+02 -0.76665310304E+01  0.34956204098E+02  0.00000000000E+00 0.  1.
         14    1    4    4    0    0  0.36146433365E+02  0.29101157600E+02  0.58755681234E+02  0.74871036429E+02  0.00000000000E+00 0. -1.
         -5    1    5    5    0  501 -0.33190081645E+02 -0.28524227188E+02 -0.10253207169E+03  0.11158014510E+03  0.47000000000E+01 0.  1.
         11    1    6    6    0    0  0.84430049171E-01  0.16659022907E+02 -0.12108605587E+02  0.20594865912E+02  0.00000000000E+00 0. -1.
        -12    1    6    6    0    0 -0.45459357171E+02 -0.58559514222E+02  0.38268703943E+02  0.83428194046E+02  0.00000000000E+00 0.  1.
</event>
<event>
12    1  0.2685360E-002  0.1975424E+03  0.7818608E-02  0.1151829E+00
         -2   -1    0    0    0  501 -0.00000000000E+00  0.00000000000E+00  0.53510579342E+03  0.53510579342E+03  0.00000000000E+00 0.  1.
          2   -1    0    0  502    0  0.00000000000E+00 -0.00000000000E+00 -0.10764858223E+03  0.10764858223E+03  0.00000000000E+00 0. -1.
          6    2    1    2  502    0  0.90742467203E+02 -0.30363158347E+02  0.39685118966E+03  0.44366729910E+03  0.17376331263E+03 0.  0.
         24    2    3    3    0    0 -0.32198777567E+01 -0.23716550354E+02  0.91394291391E+02  0.12398134950E+03  0.80284594741E+02 0.  0.
         -6    2    1    2    0  501 -0.90742467203E+02  0.30363158347E+02  0.30606021531E+02  0.19908707654E+03  0.17188024538E+03 0.  0.
        -24    2    5    5    0    0 -0.87069463994E+02  0.75740384723E+02  0.49706780992E+02  0.14949360280E+03  0.80993059964E+02 0.  0.
          5    1    3    3  502    0  0.93962344959E+02 -0.66466079930E+01  0.30545689827E+03  0.31968594960E+03  0.47000000000E+01 0. -1.
        -11    1    4    4    0    0  0.61565119511E+01 -0.40703431603E+02  0.95636474590E+02  0.10412015778E+03  0.00000000000E+00 0.  1.
         12    1    4    4    0    0 -0.93763897077E+01  0.16986881249E+02 -0.42421831992E+01  0.19861191727E+02  0.00000000000E+00 0. -1.
         -5    1    5    5    0  501 -0.36730032092E+01 -0.45377226376E+02 -0.19100759461E+02  0.49593473745E+02  0.47000000000E+01 0.  1.
         13    1    6    6    0    0  0.42960052345E+01  0.32159022449E+02 -0.73874695841E+01  0.33275112212E+02  0.00000000000E+00 0. -1.
        -14    1    6    6    0    0 -0.91365469228E+02  0.43581362274E+02  0.57094250576E+02  0.11621849058E+03  0.00000000000E+00 0.  1.
</event>
<event>
12    1  0.2685360E-002  0.1745086E+03  0.7818608E-02  0.1173226E+00
          2   -1    0    0  502    0  0.00000000000E+00  0.00000000000E+00  0.20412896387E+03  0.20412896387E+03  0.00000000000E+00 0.  1.
         -2   -1    0    0    0  501 -0.00000000000E+00 -0.00000000000E+00 -0.14982373030E+03  0.14982373030E+03  0.00000000000E+00 0. -1.
          6    2    1    2  502    0  0.59260246260E+01  0.24608142500E+02  0.38652831639E+02  0.17848456933E+03  0.17240075885E+03 0.  0.
         24    2    3    3    0    0  0.20657683371E+02  0.65487479786E+02  0.70457238328E+02  0.12443133380E+03  0.76181260876E+02 0.  0.
         -6    2    1    2    0  501 -0.59260246260E+01 -0.24608142500E+02  0.15652401935E+02  0.17546812483E+03  0.17292595728E+03 0.  0.
        -24    2    5    5    0    0 -0.21562879894E+02  0.24219806921E+02  0.62664043605E+02  0.10574822567E+03  0.78767683947E+02 0.  0.
          5    1    3    3  502    0 -0.14731658745E+02 -0.40879337286E+02 -0.31804406689E+02  0.54053235529E+02  0.47000000000E+01 0. -1.
        -13    1    4    4    0    0 -0.21515059538E+02  0.19159002004E+01  0.33007099752E+02  0.39446636036E+02  0.00000000000E+00 0.  1.
         14    1    4    4    0    0  0.42172742910E+02  0.63571579585E+02  0.37450138576E+02  0.84984697769E+02  0.00000000000E+00 0. -1.
         -5    1    5    5    0  501  0.15636855268E+02 -0.48827949421E+02 -0.47011641670E+02  0.69719899167E+02  0.47000000000E+01 0.  1.
         11    1    6    6    0    0  0.16231897733E+01 -0.27259281982E+02  0.29803102343E+02  0.40421876608E+02  0.00000000000E+00 0. -1.
        -12    1    6    6    0    0 -0.23186069667E+02  0.51479088903E+02  0.32860941262E+02  0.65326349060E+02  0.00000000000E+00 0.  1.
</event>
<event>
12    1  0.2685360E-002  0.1882059E+03  0.7818608E-02  0.1160090E+00
          1   -1    0    0  502    0  0.00000000000E+00  0.00000000000E+00  0.26994780299E+02  0.26994780299E+02  0.00000000000E+00 0. -1.
         -1   -1    0    0    0  501 -0.00000000000E+00 -0.00000000000E+00 -0.14884377101E+04  0.14884377101E+04  0.00000000000E+00 0.  1.
          6    2    1    2  502    0  0.72627665781E+02 -0.13231664584E+02 -0.46581122993E+03  0.50193930462E+03  0.17179379734E+03 0.  0.
         24    2    3    3    0    0  0.51213153812E+02 -0.63109951800E+02 -0.39392665181E+03  0.41174003949E+03  0.88011362739E+02 0.  0.
         -6    2    1    2    0  501 -0.72627665781E+02  0.13231664584E+02 -0.99563169992E+03  0.10134931858E+04  0.17445945390E+03 0.  0.
        -24    2    5    5    0    0 -0.94443126367E+02  0.57762733597E+02 -0.64022313793E+03  0.65461121866E+03  0.79838234813E+02 0.  0.
          5    1    3    3  502    0  0.21414511969E+02  0.49878287215E+02 -0.71884578119E+02  0.90199265129E+02  0.47000000000E+01 0. -1.
        -13    1    4    4    0    0 -0.10475822310E+01 -0.15050228127E+02 -0.25752380024E+03  0.25796533582E+03  0.00000000000E+00 0.  1.
         14    1    4    4    0    0  0.52260736043E+02 -0.48059723672E+02 -0.13640285157E+03  0.15377470367E+03  0.00000000000E+00 0. -1.
         -5    1    5    5    0  501  0.21815460585E+02 -0.44531069013E+02 -0.35540856199E+03  0.35888196717E+03  0.47000000000E+01 0.  1.
         11    1    6    6    0    0 -0.81969374710E+02  0.55212746226E+01 -0.35586070553E+03  0.36522089837E+03  0.00000000000E+00 0. -1.
        -12    1    6    6    0    0 -0.12473751657E+02  0.52241458974E+02 -0.28436243240E+03  0.28939032029E+03  0.00000000000E+00 0.  1.
</event>
<event>
12    1  0.2685360E-002  0.1733816E+03  0.7818608E-02  0.1174367E+00
          2   -1    0    0  502    0  0.00000000000E+00  0.00000000000E+00  0.10841692454E+03  0.10841692454E+03  0.00000000000E+00 0. -1.
         -2   -1    0    0    0  501 -0.00000000000E+00 -0.00000000000E+00 -0.40126710011E+03  0.40126710011E+03  0.00000000000E+00 0.  1.
          6    2    1    2  502    0 -0.19484624753E+02  0.65273197294E+01 -0.48161257300E+01  0.17353919544E+03  0.17225098195E+03 0.  0.
         24    2    3    3    0    0 -0.41501351137E+02 -0.53048084232E+02 -0.25830673832E+02  0.10647455327E+03  0.78314400952E+02 0.  0.
         -6    2    1    2    0  501  0.19484624753E+02 -0.65273197294E+01 -0.28803404984E+03  0.33614482921E+03  0.17206823017E+03 0.  0.
        -24    2    5    5    0    0  0.65994666802E+02 -0.45259640850E+02 -0.19520365392E+03  0.22522616930E+03  0.78858288696E+02 0.  0.
          5    1    3    3  502    0  0.22016726384E+02  0.59575403962E+02  0.21014548102E+02  0.67064642173E+02  0.47000000000E+01 0. -1.
        -13    1    4    4    0    0 -0.47311107562E+02 -0.99016086076E+01 -0.37756705198E+02  0.61334749851E+02  0.00000000000E+00 0.  1.
         14    1    4    4    0    0  0.58097564257E+01 -0.43146475625E+02  0.11926031367E+02  0.45139803419E+02  0.00000000000E+00 0. -1.
         -5    1    5    5    0  501 -0.46510042050E+02  0.38732321120E+02 -0.92830395920E+02  0.11091865992E+03  0.47000000000E+01 0.  1.
         13    1    6    6    0    0 -0.12373432067E+02 -0.28625597577E+02 -0.69319634811E+02  0.76011436166E+02  0.00000000000E+00 0. -1.
        -14    1    6    6    0    0  0.78368098869E+02 -0.16634043273E+02 -0.12588401911E+03  0.14921473313E+03  0.00000000000E+00 0.  1.
</event>
<event>
12    1  0.2685360E-002  0.2184799E+03  0.7818608E-02  0.1135021E+00
         -3   -1    0    0    0  501 -0.00000000000E+00  0.00000000000E+00  0.67433418080E+02  0.67433418080E+02  0.00000000000E+00 0.  1.
          3   -1    0    0  502    0  0.00000000000E+00 -0.00000000000E+00 -0.71402267907E+03  0.71402267907E+03  0.00000000000E+00 0. -1.
          6    2    1    2  502    0  0.12004720352E+03  0.63335201541E+02 -0.28661953387E+03  0.36023713159E+03  0.17087233525E+03 0.  0.
         24    2    3    3    0    0  0.52365039485E+02  0.88136379886E+02 -0.11260127632E+03  0.17182158622E+03  0.79583234692E+02 0.  0.
         -6    2    1    2    0  501 -0.12004720352E+03 -0.63335201541E+02 -0.35996972712E+03  0.42121896556E+03  0.17153580872E+03 0.  0.
        -24    2    5    5    0    0 -0.15170093285E+03 -0.70331256554E+02 -0.29593410417E+03  0.34929154121E+03  0.80423429888E+02 0.  0.
          5    1    3    3  502    0  0.67682164039E+02 -0.24801178345E+02 -0.17401825755E+03  0.18841554537E+03  0.47000000000E+01 0. -1.
        -11    1    4    4    0    0  0.33966073395E+02 -0.48811232650E+00 -0.10901826644E+02  0.35676073491E+02  0.00000000000E+00 0.  1.
         12    1    4    4    0    0  0.18398966090E+02  0.88624492213E+02 -0.10169944967E+03  0.13614551273E+03  0.00000000000E+00 0. -1.
         -5    1    5    5    0  501  0.31653729327E+02  0.69960550125E+01 -0.64035622958E+02  0.71927424351E+02  0.47000000000E+01 0.  1.
         11    1    6    6    0    0 -0.66942721448E+02 -0.73496499551E+02 -0.13882658843E+03  0.17075094453E+03  0.00000000000E+00 0. -1.
        -12    1    6    6    0    0 -0.84758211404E+02  0.31652429966E+01 -0.15710751573E+03  0.17854059668E+03  0.00000000000E+00 0.  1.
</event>
<event>
12    1  0.2685360E-002  0.1857644E+03  0.7818608E-02  0.1162338E+00
         -2   -1    0    0    0  501 -0.00000000000E+00  0.00000000000E+00  0.19617565135E+02  0.19617565135E+02  0.00000000000E+00 0. -1.
          2   -1    0    0  502    0  0.00000000000E+00 -0.00000000000E+00 -0.33099207761E+04  0.33099207761E+04  0.00000000000E+00 0.  1.
          6    2    1    2  502    0 -0.40433265615E+02 -0.34141637918E+02 -0.51993472188E+03  0.55314568867E+03  0.18121130613E+03 0.  0.
         24    2    3    3    0    0 -0.80728027302E+02 -0.43873476341E+02 -0.47995889409E+03  0.49536564621E+03  0.81146085021E+02 0.  0.
         -6    2    1    2    0  501  0.40433265615E+02  0.34141637918E+02 -0.27703684891E+04  0.27763926526E+04  0.17496884151E+03 0.  0.
        -24    2    5    5    0    0  0.83258002525E+02  0.43250848084E+02 -0.24409788419E+04  0.24440726780E+04  0.79441916251E+02 0.  0.
          5    1    3    3  502    0  0.40294761687E+02  0.97318384228E+01 -0.39975827788E+02  0.57780042453E+02  0.47000000000E+01 0. -1.
        -11    1    4    4    0    0 -0.49473959246E+02  0.41496543637E+01 -0.34772818102E+03  0.35125458025E+03  0.00000000000E+00 0.  1.
         12    1    4    4    0    0 -0.31254068056E+02 -0.48023130705E+02 -0.13223071307E+03  0.14411106596E+03  0.00000000000E+00 0. -1.
         -5    1    5    5    0  501 -0.42824736909E+02 -0.91092101662E+01 -0.32938964718E+03  0.33231997453E+03  0.47000000000E+01 0.  1.
         13    1    6    6    0    0 -0.14164481465E+02  0.14728573049E+02 -0.30566163963E+03  0.30634392656E+03  0.00000000000E+00 0. -1.
        -14    1    6    6    0    0  0.97422483990E+02  0.28522275035E+02 -0.21353172023E+04  0.21377287515E+04  0.00000000000E+00 0.  1.
</event>
<event>
12    1  0.2685360E-002  0.2711215E+03  0.7818608E-02  0.1100639E+00
         -1   -1    0    0    0  501 -0.00000000000E+00  0.00000000000E+00  0.10230381414E+03  0.10230381414E+03  0.00000000000E+00 0.  1.
          1   -1    0    0  502    0  0.00000000000E+00 -0.00000000000E+00 -0.12189294144E+04  0.12189294144E+04  0.00000000000E+00 0. -1.
          6    2    1    2  502    0  0.89659927571E+02  0.19612312745E+03 -0.13018337999E+03  0.29711453979E+03  0.15756317335E+03 0.  0.
         24    2    3    3    0    0  0.25636814941E+02  0.15583770084E+03 -0.43781612211E+02  0.18218312536E+03  0.79569003474E+02 0.  0.
         -6    2    1    2    0  501 -0.89659927571E+02 -0.19612312745E+03 -0.98644222023E+03  0.10241186887E+04  0.17101944616E+03 0.  0.
        -24    2    5    5    0    0 -0.52513734999E+02 -0.16152142456E+03 -0.93210938189E+03  0.94961187836E+03  0.63937131292E+02 0.  0.
          5    1    3    3  502    0  0.64023112631E+02  0.40285426605E+02 -0.86401767779E+02  0.11493141443E+03  0.47000000000E+01 0. -1.
        -13    1    4    4    0    0  0.41593935198E+02  0.88400359734E+02  0.43741169710E+01  0.97794743957E+02  0.00000000000E+00 0.  1.
         14    1    4    4    0    0 -0.15957120258E+02  0.67437341110E+02 -0.48155729182E+02  0.84388381404E+02  0.00000000000E+00 0. -1.
         -5    1    5    5    0  501 -0.37146192573E+02 -0.34601702890E+02 -0.54332838339E+02  0.74506810343E+02  0.47000000000E+01 0.  1.
         13    1    6    6    0    0  0.12445916327E+02 -0.57403350447E+02 -0.29485606645E+03  0.30064953916E+03  0.00000000000E+00 0. -1.
        -14    1    6    6    0    0 -0.64959651325E+02 -0.10411807411E+03 -0.63725331544E+03  0.64896233920E+03  0.00000000000E+00 0.  1.
</event>
<event>
12    1  0.2685360E-002  0.4987698E+03  0.7818608E-02  0.1014101E+00
          2   -1    0    0  502    0  0.00000000000E+00  0.00000000000E+00  0.59695684841E+03  0.59695684841E+03  0.00000000000E+00 0. -1.
         -2   -1    0    0    0  501 -0.00000000000E+00 -0.00000000000E+00 -0.85779127409E+03  0.85779127409E+03  0.00000000000E+00 0.  1.
          6    2    1    2  502    0 -0.22507900044E+03  0.41233644060E+03 -0.65197426419E+03  0.82080147515E+03  0.16722058412E+03 0.  0.
         24    2    3    3    0    0 -0.63145388986E+02  0.17019911938E+03 -0.34860174470E+03  0.40019482705E+03  0.75350134690E+02 0.  0.
         -6    2    1    2    0  501  0.22507900044E+03 -0.41233644060E+03  0.39113983851E+03  0.63394664735E+03  0.16797643208E+03 0.  0.
        -24    2    5    5    0    0  0.22410794301E+03 -0.28677953466E+03  0.27928512961E+03  0.46572344597E+03  0.80195217323E+02 0.  0.
          5    1    3    3  502    0 -0.16193361146E+03  0.24213732122E+03 -0.30337251948E+03  0.42060664810E+03  0.47000000000E+01 0. -1.
        -11    1    4    4    0    0 -0.58657749427E+02  0.80111300529E+02 -0.23517221117E+03  0.25527342390E+03  0.00000000000E+00 0.  1.
         12    1    4    4    0    0 -0.44876395587E+01  0.90087818853E+02 -0.11342953353E+03  0.14492140315E+03  0.00000000000E+00 0. -1.
         -5    1    5    5    0  501  0.97105743060E+00 -0.12555690594E+03  0.11185470890E+03  0.16822320139E+03  0.47000000000E+01 0.  1.
         13    1    6    6    0    0  0.28672402747E+02 -0.68208130799E+02  0.26492192119E+02  0.78589388785E+02  0.00000000000E+00 0. -1.
        -14    1    6    6    0    0  0.19543554027E+03 -0.21857140386E+03  0.25279293750E+03  0.38713405718E+03  0.00000000000E+00 0.  1.
</event>
<event>
12    1  0.2685360E-002  0.1897920E+03  0.7818608E-02  0.1158649E+00
         -2   -1    0    0    0  501 -0.00000000000E+00  0.00000000000E+00  0.19655991678E+02  0.19655991678E+02  0.00000000000E+00 0.  1.
          2   -1    0    0  502    0  0.00000000000E+00 -0.00000000000E+00 -0.24715351295E+04  0.24715351295E+04  0.00000000000E+00 0. -1.
          6    2    1    2  502    0 -0.77198103427E+01  0.78769590848E+02 -0.59138703357E+03  0.62101763309E+03  0.17222088500E+03 0.  0.
         24    2    3    3    0    0 -0.20280330006E+02  0.30627588182E+02 -0.12801845393E+03  0.15496189644E+03  0.79215679372E+02 0.  0.
         -6    2    1    2    0  501  0.77198103427E+01 -0.78769590848E+02 -0.18604921042E+04  0.18701734880E+04  0.17278241120E+03 0.  0.
        -24    2    5    5    0    0  0.11739156926E+02  0.24783314173E+02 -0.10352960947E+04  0.10384824977E+04  0.76523681819E+02 0.  0.
          5    1    3    3  502    0  0.12560519664E+02  0.48142002667E+02 -0.46336857963E+03  0.46605573665E+03  0.47000000000E+01 0. -1.
        -11    1    4    4    0    0 -0.28436011104E+02  0.43027957090E+02 -0.38859657708E+02  0.64576193880E+02  0.00000000000E+00 0.  1.
         12    1    4    4    0    0  0.81556810971E+01 -0.12400368909E+02 -0.89158796226E+02  0.90385702562E+02  0.00000000000E+00 0. -1.
         -5    1    5    5    0  501 -0.40193465829E+01 -0.10355290502E+03 -0.82519600951E+03  0.83169099033E+03  0.47000000000E+01 0.  1.
         13    1    6    6    0    0 -0.16347043632E+02 -0.53520964510E+00 -0.53171148949E+02  0.55629878352E+02  0.00000000000E+00 0. -1.
        -14    1    6    6    0    0  0.28086200558E+02  0.25318523818E+02 -0.98212494575E+03  0.98285261936E+03  0.00000000000E+00 0.  1.
</event>
<event>
12    1  0.2685360E-002  0.1861857E+03  0.7818608E-02  0.1161947E+00
          1   -1    0    0  502    0  0.00000000000E+00  0.00000000000E+00  0.44526597250E+03  0.44526597250E+03  0.00000000000E+00 0.  1.
         -1   -1    0    0    0  501 -0.00000000000E+00 -0.00000000000E+00 -0.84441968564E+02  0.84441968564E+02  0.00000000000E+00 0. -1.
          6    2    1    2  502    0 -0.65185688466E+02  0.17657555885E+02  0.10673650122E+03  0.21491101056E+03  0.17387667615E+03 0.  0.
         24    2    3    3    0    0 -0.14802449144E+02 -0.22626336491E+02 -0.67190373076E+01  0.84314257111E+02  0.79578168402E+02 0.  0.
         -6    2    1    2    0  501  0.65185688466E+02 -0.17657555885E+02  0.25408750272E+03  0.31479693050E+03  0.17313487562E+03 0.  0.
        -24    2    5    5    0    0  0.58094869731E+02  0.38694210675E+02  0.22927995823E+03  0.25264143543E+03  0.79913326915E+02 0.  0.
          5    1    3    3  502    0 -0.50383239322E+02  0.40283892375E+02  0.11345553852E+03  0.13059675345E+03  0.47000000000E+01 0. -1.
        -11    1    4    4    0    0 -0.17547441273E+02  0.28793031874E+01  0.32735443256E+02  0.37253353235E+02  0.00000000000E+00 0.  1.
         12    1    4    4    0    0  0.27449921295E+01 -0.25505639678E+02 -0.39454480563E+02  0.47060903877E+02  0.00000000000E+00 0. -1.
         -5    1    5    5    0  501  0.70908187345E+01 -0.56351766559E+02  0.24807544486E+02  0.62155495076E+02  0.47000000000E+01 0.  1.
         13    1    6    6    0    0 -0.99581650135E+01 -0.11361496159E+02  0.11308049615E+02  0.18871158722E+02  0.00000000000E+00 0. -1.
        -14    1    6    6    0    0  0.68053034745E+02  0.50055706833E+02  0.21797190862E+03  0.23377027671E+03  0.00000000000E+00 0.  1.
</event>
<event>
12    1  0.2685360E-002  0.2075832E+03  0.7818608E-02  0.1143494E+00
          1   -1    0    0  502    0  0.00000000000E+00  0.00000000000E+00  0.18799502814E+04  0.18799502814E+04  0.00000000000E+00 0. -1.
         -1   -1    0    0    0  501 -0.00000000000E+00 -0.00000000000E+00 -0.33267048876E+02  0.33267048876E+02  0.00000000000E+00 0.  1.
          6    2    1    2  502    0 -0.17196933113E+02 -0.10856646118E+03  0.39427766271E+03  0.44625277840E+03  0.17777585865E+03 0.  0.
         24    2    3    3    0    0  0.58741914356E+02 -0.54269804428E+02  0.17613274616E+03  0.20892572536E+03  0.78939155504E+02 0.  0.
         -6    2    1    2    0  501  0.17196933113E+02  0.10856646118E+03  0.14524055698E+04  0.14669645519E+04  0.17441515480E+03 0.  0.
        -24    2    5    5    0    0  0.35929762943E+02  0.14019035788E+03  0.10521278011E+04  0.10649752835E+04  0.79089571521E+02 0.  0.
          5    1    3    3  502    0 -0.75938847470E+02 -0.54296656755E+02  0.21814491655E+03  0.23732705305E+03  0.47000000000E+01 0. -1.
        -11    1    4    4    0    0  0.17379457325E+01 -0.43964973747E+02  0.12180458087E+03  0.12950789664E+03  0.00000000000E+00 0.  1.
         12    1    4    4    0    0  0.57003968624E+02 -0.10304830681E+02  0.54328165292E+02  0.79417828718E+02  0.00000000000E+00 0. -1.
         -5    1    5    5    0  501 -0.18732829830E+02 -0.31623896697E+02  0.40027776872E+03  0.40198926837E+03  0.47000000000E+01 0.  1.
         13    1    6    6    0    0  0.53659196476E+02  0.85220824371E+02  0.51524237617E+03  0.52499200420E+03  0.00000000000E+00 0. -1.
        -14    1    6    6    0    0 -0.17729433533E+02  0.54969533509E+02  0.53688542491E+03  0.53998327928E+03  0.00000000000E+00 0.  1.
</event>
<event>
12    1  0.2685360E-002  0.2881904E+03  0.7818608E-02  0.1091298E+00
          4   -1    0    0  502    0  0.00000000000E+00  0.00000000000E+00  0.18240921827E+04  0.18240921827E+04  0.00000000000E+00 0.  1.
         -4   -1    0    0    0  501 -0.00000000000E+00 -0.00000000000E+00 -0.46966595373E+02  0.46966595373E+02  0.00000000000E+00 0. -1.
          6    2    1    2  502    0  0.14406617491E+03  0.18522486055E+03  0.71729630029E+03  0.77204015585E+03  0.16269206528E+03 0.  0.
         24    2    3    3    0    0  0.16452151692E+03  0.18406869168E+03  0.69636711031E+03  0.74237740587E+03  0.72446170595E+02 0.  0.
         -6    2    1    2    0  501 -0.14406617491E+03 -0.18522486055E+03  0.10598292870E+04  0.10990186222E+04  0.17187350762E+03 0.  0.
        -24    2    5    5    0    0 -0.10109225215E+03 -0.37764055276E+02  0.56311989893E+03  0.57908232482E+03  0.81157569147E+02 0.  0.
          5    1    3    3  502    0 -0.20455342006E+02  0.11561688693E+01  0.20929189986E+02  0.29662749982E+02  0.47000000000E+01 0. -1.
        -13    1    4    4    0    0  0.99237688426E+02  0.88917923314E+02  0.46673154000E+03  0.48537907487E+03  0.00000000000E+00 0.  1.
         14    1    4    4    0    0  0.65283828490E+02  0.95150768370E+02  0.22963557031E+03  0.25699833099E+03  0.00000000000E+00 0. -1.
         -5    1    5    5    0  501 -0.42973922765E+02 -0.14746080528E+03  0.49670938807E+03  0.51993629738E+03  0.47000000000E+01 0.  1.
         11    1    6    6    0    0 -0.78267688076E+02 -0.28975244163E+01  0.22168591878E+03  0.23511459595E+03  0.00000000000E+00 0. -1.
        -12    1    6    6    0    0 -0.22824564069E+02 -0.34866530860E+02  0.34143398015E+03  0.34396772887E+03  0.00000000000E+00 0.  1.
</event>
<event>
12    1  0.2685360E-002  0.2936614E+03  0.7818608E-02  0.1088453E+00
          3   -1    0    0  502    0  0.00000000000E+00  0.00000000000E+00  0.53069914507E+03  0.53069914507E+03  0.00000000000E+00 0.  1.
         -3   -1    0    0    0  501 -0.00000000000E+00 -0.00000000000E+00 -0.17149249024E+03  0.17149249024E+03  0.00000000000E+00 0. -1.
          6    2    1    2  502    0 -0.12772667055E+03 -0.19873056725E+03  0.26086308984E+03  0.39391802259E+03  0.17695738513E+03 0.  0.
         24    2    3    3    0    0 -0.13775156300E+03 -0.19760521622E+03  0.27619205450E+03  0.37497516006E+03  0.79378870663E+02 0.  0.
         -6    2    1    2    0  501  0.12772667055E+03  0.19873056725E+03  0.98343564983E+02  0.30827361272E+03  0.17191050810E+03 0.  0.
        -24    2    5    5    0    0 -0.53885226829E+01  0.63016272427E+02  0.36020687102E+02  0.10816300431E+03  0.80010367048E+02 0.  0.
          5    1    3    3  502    0  0.10024892449E+02 -0.11253510235E+01 -0.15328964652E+02  0.18942862530E+02  0.47000000000E+01 0. -1.
        -13    1    4    4    0    0 -0.70909450646E+02 -0.13033851544E+03  0.21803071966E+03  0.26373030450E+03  0.00000000000E+00 0.  1.
         14    1    4    4    0    0 -0.66842112352E+02 -0.67266700785E+02  0.58161334840E+02  0.11124485556E+03  0.00000000000E+00 0. -1.
         -5    1    5    5    0  501  0.13311519323E+03  0.13571429482E+03  0.62322877881E+02  0.20011060840E+03  0.47000000000E+01 0.  1.
         11    1    6    6    0    0 -0.28137235170E+02  0.57601484508E+02 -0.13021275861E+01  0.64119658115E+02  0.00000000000E+00 0. -1.
        -12    1    6    6    0    0  0.22748712487E+02  0.54147879193E+01  0.37322814688E+02  0.44043346197E+02  0.00000000000E+00 0.  1.
</event>
<event>
12    1  0.2685360E-002  0.1880022E+03  0.7818608E-02  0.1160276E+00
         -1   -1    0    0    0  501 -0.00000000000E+00  0.00000000000E+00  0.11203274036E+03  0.11203274036E+03  0.00000000000E+00 0. -1.
          1   -1    0    0  502    0  0.00000000000E+00 -0.00000000000E+00 -0.47352108279E+03  0.47352108279E+03  0.00000000000E+00 0.  1.
          6    2    1    2  502    0 -0.72272341870E+02  0.13676897695E+02 -0.11271023011E+02  0.18781655030E+03  0.17244614138E+03 0.  0.
         24    2    3    3    0    0 -0.94617185706E+02 -0.20146929474E+02 -0.45262182710E+02  0.13470504243E+03  0.82088200576E+02 0.  0.
         -6    2    1    2    0  501  0.72272341870E+02 -0.13676897695E+02 -0.35021731942E+03  0.39773727286E+03  0.17358691906E+03 0.  0.
        -24    2    5    5    0    0 -0.22750646562E+02 -0.11572349288E+02 -0.22384289332E+03  0.23953998140E+03  0.81377211848E+02 0.  0.
          5    1    3    3  502    0  0.22344843837E+02  0.33823827168E+02  0.33991159699E+02  0.53111507868E+02  0.47000000000E+01 0. -1.
        -11    1    4    4    0    0 -0.68647085199E+02  0.14108512237E+01 -0.65878754088E+02  0.95154732134E+02  0.00000000000E+00 0.  1.
         12    1    4    4    0    0 -0.25970100508E+02 -0.21557780697E+02  0.20616571378E+02  0.39550310294E+02  0.00000000000E+00 0. -1.
         -5    1    5    5    0  501  0.95022988432E+02 -0.21045484061E+01 -0.12637442610E+03  0.15819729146E+03  0.47000000000E+01 0.  1.
         11    1    6    6    0    0 -0.13559696021E+02 -0.34013349931E+02 -0.40493815137E+02  0.54594160805E+02  0.00000000000E+00 0. -1.
        -12    1    6    6    0    0 -0.91909505417E+01  0.22441000643E+02 -0.18334907819E+03  0.18494582059E+03  0.00000000000E+00 0.  1.
</event>
<event>
12    1  0.2685360E-002  0.3607908E+03  0.7818608E-02  0.1058271E+00
          1   -1    0    0  502    0  0.00000000000E+00  0.00000000000E+00  0.97460272743E+03  0.97460272743E+03  0.00000000000E+00 0.  1.
         -1   -1    0    0    0  501 -0.00000000000E+00 -0.00000000000E+00 -0.13839950449E+03  0.13839950449E+03  0.00000000000E+00 0. -1.
          6    2    1    2  502    0 -0.31482549601E+03 -0.35072418922E+02  0.52206929897E+03  0.63457022074E+03  0.17256258173E+03 0.  0.
         24    2    3    3    0    0 -0.10806298040E+03 -0.51912476967E+02  0.14479643745E+03  0.20399940489E+03  0.79229009213E+02 0.  0.
         -6    2    1    2    0  501  0.31482549601E+03  0.35072418922E+02  0.31413392397E+03  0.47843201118E+03  0.17283489124E+03 0.  0.
        -24    2    5    5    0    0  0.19062156040E+03  0.23761745172E+02  0.10262244291E+03  0.23284344146E+03  0.82362021697E+02 0.  0.
          5    1    3    3  502    0 -0.20676251561E+03  0.16840058045E+02  0.37727286152E+03  0.43057081584E+03  0.47000000000E+01 0. -1.
        -11    1    4    4    0    0 -0.71672958976E+02 -0.12618073329E+02  0.12908461504E+03  0.14818591925E+03  0.00000000000E+00 0.  1.
         12    1    4    4    0    0 -0.36390021424E+02 -0.39294403638E+02  0.15711822409E+02  0.55813485646E+02  0.00000000000E+00 0. -1.
         -5    1    5    5    0  501  0.12420393561E+03  0.11310673750E+02  0.21151148106E+03  0.24558856972E+03  0.47000000000E+01 0.  1.
         11    1    6    6    0    0  0.12908859604E+03  0.35057670876E+02  0.10528020535E+03  0.17022581341E+03  0.00000000000E+00 0. -1.
        -12    1    6    6    0    0  0.61532964362E+02 -0.11295925704E+02 -0.26577624362E+01  0.62617628044E+02  0.00000000000E+00 0.  1.
</event>
<event>
12    1  0.2685360E-002  0.1825525E+03  0.7818608E-02  0.1165355E+00
         -2   -1    0    0    0  501 -0.00000000000E+00  0.00000000000E+00  0.58067909109E+03  0.58067909109E+03  0.00000000000E+00 0. -1.
          2   -1    0    0  502    0  0.00000000000E+00 -0.00000000000E+00 -0.64296048490E+02  0.64296048490E+02  0.00000000000E+00 0.  1.
          6    2    1    2  502    0  0.32047032402E+02  0.39936558422E+02  0.36730691486E+03  0.41143687558E+03  0.17816843688E+03 0.  0.
         24    2    3    3    0    0 -0.39536149940E+02  0.10176611770E+02  0.23137799528E+03  0.25488475137E+03  0.98811887940E+02 0.  0.
         -6    2    1    2    0  501 -0.32047032402E+02 -0.39936558422E+02  0.14907612774E+03  0.23353826400E+03  0.17232088645E+03 0.  0.
        -24    2    5    5    0    0  0.29245293962E+02  0.22889426231E+02  0.51039011043E+02  0.10186738693E+03  0.79954804852E+02 0.  0.
          5    1    3    3  502    0  0.71583182342E+02  0.29759946652E+02  0.13592891958E+03  0.15655212421E+03  0.47000000000E+01 0. -1.
        -13    1    4    4    0    0 -0.33667285324E+02  0.52190824697E+02  0.11021316266E+03  0.12650814008E+03  0.00000000000E+00 0.  1.
         14    1    4    4    0    0 -0.58688646165E+01 -0.42014212928E+02  0.12116483262E+03  0.12837661128E+03  0.00000000000E+00 0. -1.
         -5    1    5    5    0  501 -0.61292326364E+02 -0.62825984653E+02  0.98037116700E+02  0.13167087707E+03  0.47000000000E+01 0.  1.
         11    1    6    6    0    0  0.33393896314E+02  0.41802051132E+00  0.66405228675E+02  0.74330218939E+02  0.00000000000E+00 0. -1.
        -12    1    6    6    0    0 -0.41486023512E+01  0.22471405720E+02 -0.15366217632E+02  0.27537167988E+02  0.00000000000E+00 0.  1.
</event>
<event>
12    1  0.2685360E-002  0.1895775E+03  0.7818608E-02  0.1158843E+00
          3   -1    0    0  502    0  0.00000000000E+00  0.00000000000E+00  0.58870813599E+03  0.58870813599E+03  0.00000000000E+00 0.  1.
         -3   -1    0    0    0  501 -0.00000000000E+00 -0.00000000000E+00 -0.64310828199E+02  0.64310828199E+02  0.00000000000E+00 0. -1.
          6    2    1    2  502    0 -0.18759059848E+02 -0.48647439058E+02  0.31864163736E+03  0.36538376127E+03  0.17103895548E+03 0.  0.
         24    2    3    3    0    0  0.32370792411E+02 -0.12677880694E+02  0.26827562708E+03  0.28496674870E+03  0.89585930345E+02 0.  0.
         -6    2    1    2    0  501  0.18759059848E+02  0.48647439058E+02  0.20575567044E+03  0.28763520292E+03  0.19411372540E+03 0.  0.
        -24    2    5    5    0    0  0.72221180245E+02  0.55375698550E+01  0.18789393158E+03  0.21651705576E+03  0.79554650119E+02 0.  0.
          5    1    3    3  502    0 -0.51129852259E+02 -0.35969558364E+02  0.50366010274E+02  0.80417012577E+02  0.47000000000E+01 0. -1.
        -13    1    4    4    0    0  0.19151871068E+02 -0.75505549797E+01  0.26991038864E+03  0.27069433489E+03  0.00000000000E+00 0.  1.
         14    1    4    4    0    0  0.13218921342E+02 -0.51273257148E+01 -0.16347615594E+01  0.14272413804E+02  0.00000000000E+00 0. -1.
         -5    1    5    5    0  501 -0.53462120397E+02  0.43109869204E+02  0.17861738858E+02  0.71118147157E+02  0.47000000000E+01 0.  1.
         13    1    6    6    0    0  0.76078056767E+01  0.19097958155E+02  0.37514994940E+01  0.20896996468E+02  0.00000000000E+00 0. -1.
        -14    1    6    6    0    0  0.64613374568E+02 -0.13560388300E+02  0.18414243208E+03  0.19562005929E+03  0.00000000000E+00 0.  1.
</event>
<event>
12    1  0.2685360E-002  0.1960696E+03  0.7818608E-02  0.1153098E+00
         -1   -1    0    0    0  501 -0.00000000000E+00  0.00000000000E+00  0.32063266677E+02  0.32063266677E+02  0.00000000000E+00 0.  1.
          1   -1    0    0  502    0  0.00000000000E+00 -0.00000000000E+00 -0.11997546836E+04  0.11997546836E+04  0.00000000000E+00 0. -1.
          6    2    1    2  502    0 -0.91934144071E+02  0.45130584530E+02 -0.56274131438E+03  0.59460822647E+03  0.16245768547E+03 0.  0.
         24    2    3    3    0    0 -0.10637974009E+02  0.68995482937E+02 -0.30858284723E+03  0.32665819928E+03  0.81293679958E+02 0.  0.
         -6    2    1    2    0  501  0.91934144071E+02 -0.45130584530E+02 -0.60495010251E+03  0.63720972378E+03  0.17199694485E+03 0.  0.
        -24    2    5    5    0    0  0.10965157587E+03 -0.47938963996E+02 -0.31211188696E+03  0.34378493805E+03  0.80328334311E+02 0.  0.
          5    1    3    3  502    0 -0.81296170062E+02 -0.23864898407E+02 -0.25415846715E+03  0.26795002718E+03  0.47000000000E+01 0. -1.
        -11    1    4    4    0    0  0.22850778200E+02 -0.71375366488E+01 -0.72872590487E+02  0.76704086841E+02  0.00000000000E+00 0.  1.
         12    1    4    4    0    0 -0.33488752209E+02  0.76133019585E+02 -0.23571025674E+03  0.24995411244E+03  0.00000000000E+00 0. -1.
         -5    1    5    5    0  501 -0.17717431804E+02  0.28083794659E+01 -0.29283821556E+03  0.29342478572E+03  0.47000000000E+01 0.  1.
         13    1    6    6    0    0  0.21743357900E+02 -0.45691284101E+02 -0.16300877201E+03  0.17068194635E+03  0.00000000000E+00 0. -1.
        -14    1    6    6    0    0  0.87908217975E+02 -0.22476798947E+01 -0.14910311494E+03  0.17310299171E+03  0.00000000000E+00 0.  1.
</event>
<event>
12    1  0.2685360E-002  0.1811905E+03  0.7818608E-02  0.1166656E+00
         -2   -1    0    0    0  501 -0.00000000000E+00  0.00000000000E+00  0.89341183021E+01  0.89341183021E+01  0.00000000000E+00 0. -1.
          2   -1    0    0  502    0  0.00000000000E+00 -0.00000000000E+00 -0.36770234264E+04  0.36770234264E+04  0.00000000000E+00 0.  1.
          6    2    1    2  502    0  0.34547796134E+02  0.41351069716E+02 -0.18008568789E+04  0.18100669430E+04  0.17422220994E+03 0.  0.
         24    2    3    3    0    0  0.32326234807E+02  0.66807497830E+02 -0.17467480727E+04  0.17500434644E+04  0.77556886135E+02 0.  0.
         -6    2    1    2    0  501 -0.34547796134E+02 -0.41351069716E+02 -0.18672324291E+04  0.18758906017E+04  0.17177061439E+03 0.  0.
        -24    2    5    5    0    0 -0.13045608228E+02  0.34704053746E+02 -0.61049570510E+03  0.61666226283E+03  0.78694226041E+02 0.  0.
          5    1    3    3  502    0  0.22215613265E+01 -0.25456428114E+02 -0.54108806214E+02  0.60023478548E+02  0.47000000000E+01 0. -1.
        -13    1    4    4    0    0  0.98128504623E+01  0.35589497143E+02 -0.14870983963E+04  0.14875565686E+04  0.00000000000E+00 0.  1.
         14    1    4    4    0    0  0.22513384345E+02  0.31218000687E+02 -0.25964967638E+03  0.26248689584E+03  0.00000000000E+00 0. -1.
         -5    1    5    5    0  501 -0.21502187906E+02 -0.76055123462E+02 -0.12567367240E+04  0.12592283389E+04  0.47000000000E+01 0.  1.
         13    1    6    6    0    0 -0.23018606736E+02  0.10207138244E+02 -0.54477470981E+02  0.60015304479E+02  0.00000000000E+00 0. -1.
        -14    1    6    6    0    0  0.99729985082E+01  0.24496915502E+02 -0.55601823412E+03  0.55664695835E+03  0.00000000000E+00 0.  1.
</event>
<event>
12    1  0.2685360E-002  0.1750741E+03  0.7818608E-02  0.1172657E+00
          1   -1    0    0  502    0  0.00000000000E+00  0.00000000000E+00  0.10232160733E+04  0.10232160733E+04  0.00000000000E+00 0.  1.
         -1   -1    0    0    0  501 -0.00000000000E+00 -0.00000000000E+00 -0.30036564620E+02  0.30036564620E+02  0.00000000000E+00 0. -1.
          6    2    1    2  502    0 -0.97524402090E+01  0.18890037286E+02  0.46678943437E+03  0.49822248951E+03  0.17286216884E+03 0.  0.
         24    2    3    3    0    0 -0.46002017140E+02  0.60024320395E+02  0.38404617837E+03  0.39885148022E+03  0.76628529495E+02 0.  0.
         -6    2    1    2    0  501  0.97524402090E+01 -0.18890037286E+02  0.52639007433E+03  0.55503014842E+03  0.17469977594E+03 0.  0.
        -24    2    5    5    0    0 -0.22252571664E+02  0.49007421623E+02  0.23894846051E+03  0.25791206237E+03  0.80779705450E+02 0.  0.
          5    1    3    3  502    0  0.36249576931E+02 -0.41134283108E+02  0.82743256006E+02  0.99371009298E+02  0.47000000000E+01 0. -1.
        -11    1    4    4    0    0  0.15164336716E+02 -0.53297216730E+01  0.92060821710E+02  0.93453506810E+02  0.00000000000E+00 0.  1.
         12    1    4    4    0    0 -0.61166353855E+02  0.65354042068E+02  0.29198535666E+03  0.30539797341E+03  0.00000000000E+00 0. -1.
         -5    1    5    5    0  501  0.32005011873E+02 -0.67897458909E+02  0.28744161381E+03  0.29711808606E+03  0.47000000000E+01 0.  1.
         11    1    6    6    0    0  0.78384923815E+01  0.26509931514E+02  0.16250646286E+02  0.32067147307E+02  0.00000000000E+00 0. -1.
        -12    1    6    6    0    0 -0.30091064046E+02  0.22497490109E+02  0.22269781423E+03  0.22584491506E+03  0.00000000000E+00 0.  1.
</event>
<event>
12    1  0.2685360E-002  0.2835868E+03  0.7818608E-02  0.1093746E+00
          2   -1    0    0  502    0  0.00000000000E+00  0.00000000000E+00  0.71648981818E+03  0.71648981818E+03  0.00000000000E+00 0.  1.
         -2   -1    0    0    0  501 -0.00000000000E+00 -0.00000000000E+00 -0.13336165990E+03  0.13336165990E+03  0.00000000000E+00 0. -1.
          6    2    1    2  502    0  0.46978946997E+02 -0.22054806954E+03  0.12293561419E+03  0.30957689382E+03  0.17284737636E+03 0.  0.
         24    2    3    3    0    0 -0.43572969873E+01 -0.32872165395E+02  0.60337261588E+02  0.10513057155E+03  0.79449900214E+02 0.  0.
         -6    2    1    2    0  501 -0.46978946997E+02  0.22054806954E+03  0.46019254409E+03  0.54027458425E+03  0.17108762758E+03 0.  0.
        -24    2    5    5    0    0 -0.30123491477E+02  0.13628621261E+03  0.40956101534E+03  0.44042565527E+03  0.82177710194E+02 0.  0.
          5    1    3    3  502    0  0.51336243984E+02 -0.18767590414E+03  0.62598352604E+02  0.20444632227E+03  0.47000000000E+01 0. -1.
        -11    1    4    4    0    0 -0.84719779418E+01 -0.22262194031E+02 -0.15516565689E+02  0.28427864923E+02  0.00000000000E+00 0.  1.
         12    1    4    4    0    0  0.41146809545E+01 -0.10609971365E+02  0.75853827276E+02  0.76702706629E+02  0.00000000000E+00 0. -1.
         -5    1    5    5    0  501 -0.16855455520E+02  0.84261856928E+02  0.50631528751E+02  0.99848928975E+02  0.47000000000E+01 0.  1.
         11    1    6    6    0    0 -0.48694823728E+02  0.48149986509E+02  0.13345661795E+03  0.15000091977E+03  0.00000000000E+00 0. -1.
        -12    1    6    6    0    0  0.18571332251E+02  0.88136226101E+02  0.27610439739E+03  0.29042473550E+03  0.00000000000E+00 0.  1.
</event>
<event>
12    1  0.2685360E-002  0.2058439E+03  0.7818608E-02  0.1144900E+00
          2   -1    0    0  502    0  0.00000000000E+00  0.00000000000E+00  0.31123903128E+04  0.31123903128E+04  0.00000000000E+00 0. -1.
         -2   -1    0    0    0  501 -0.00000000000E+00 -0.00000000000E+00 -0.15241662862E+02  0.15241662862E+02  0.00000000000E+00 0.  1.
          6    2    1    2  502    0 -0.35023124156E+02 -0.10847512488E+03  0.20574451125E+04  0.20676844069E+04  0.17101153100E+03 0.  0.
         24    2    3    3    0    0 -0.70341218735E+02 -0.12064315254E+03  0.13744577815E+04  0.13836601289E+04  0.76671387779E+02 0.  0.
         -6    2    1    2    0  501  0.35023124156E+02  0.10847512488E+03  0.10397035374E+04  0.10599475687E+04  0.17179036868E+03 0.  0.
        -24    2    5    5    0    0  0.64415153450E+01  0.11275317208E+03  0.10058099466E+04  0.10151583339E+04  0.78345538758E+02 0.  0.
          5    1    3    3  502    0  0.35318094579E+02  0.12168027654E+02  0.68298733099E+03  0.68402427807E+03  0.47000000000E+01 0. -1.
        -13    1    4    4    0    0 -0.42725219224E+02 -0.47880787247E+02  0.32220861417E+03  0.32853676384E+03  0.00000000000E+00 0.  1.
         14    1    4    4    0    0 -0.27615999511E+02 -0.72762365289E+02  0.10522491674E+04  0.10551233650E+04  0.00000000000E+00 0. -1.
         -5    1    5    5    0  501  0.28581608811E+02 -0.42780472007E+01  0.33893590839E+02  0.44789234756E+02  0.47000000000E+01 0.  1.
         13    1    6    6    0    0  0.15061210838E+02  0.12111021574E+03  0.82828787395E+03  0.83723074869E+03  0.00000000000E+00 0. -1.
        -14    1    6    6    0    0 -0.86196954930E+01 -0.83570436534E+01  0.17752207261E+03  0.17792758525E+03  0.00000000000E+00 0.  1.
</event>
<event>
12    1  0.2685360E-002  0.2073250E+03  0.7818608E-02  0.1143702E+00
          2   -1    0    0  502    0  0.00000000000E+00  0.00000000000E+00  0.15091618709E+04  0.15091618709E+04  0.00000000000E+00 0. -1.
         -2   -1    0    0    0  501 -0.00000000000E+00 -0.00000000000E+00 -0.31905844221E+02  0.31905844221E+02  0.00000000000E+00 0.  1.
          6    2    1    2  502    0  0.68530710542E+02 -0.97891697361E+02  0.99680333122E+03  0.10185133469E+04  0.17167793673E+03 0.  0.
         24    2    3    3    0    0  0.24680595666E+01 -0.99122845813E+02  0.44045997470E+03  0.45824036884E+03  0.78408012651E+02 0.  0.
         -6    2    1    2    0  501 -0.68530710542E+02  0.97891697361E+02  0.48045269547E+03  0.52255436825E+03  0.16717964136E+03 0.  0.
        -24    2    5    5    0    0 -0.60891728029E+02  0.94575482412E+02  0.48975361565E+03  0.50921463618E+03  0.82393065480E+02 0.  0.
          5    1    3    3  502    0  0.66062650975E+02  0.12311484526E+01  0.55634335652E+03  0.56027297805E+03  0.47000000000E+01 0. -1.
        -13    1    4    4    0    0 -0.24324119819E+02 -0.64909806632E+00  0.81414043939E+02  0.84972528995E+02  0.00000000000E+00 0.  1.
         14    1    4    4    0    0  0.26792179386E+02 -0.98473747747E+02  0.35904593076E+03  0.37326783985E+03  0.00000000000E+00 0. -1.
         -5    1    5    5    0  501 -0.76389825131E+01  0.33162149485E+01 -0.93009201794E+01  0.13339732066E+02  0.47000000000E+01 0.  1.
         11    1    6    6    0    0 -0.70396658578E+02  0.10268322792E+03  0.40989463185E+03  0.42838434151E+03  0.00000000000E+00 0. -1.
        -12    1    6    6    0    0  0.95049305493E+01 -0.81077455043E+01  0.79858983800E+02  0.80830294664E+02  0.00000000000E+00 0.  1.
</event>
<event>
12    1  0.2685360E-002  0.2121461E+03  0.7818608E-02  0.1139878E+00
          1   -1    0    0  502    0  0.00000000000E+00  0.00000000000E+00  0.50903663877E+03  0.50903663877E+03  0.00000000000E+00 0. -1.
         -1   -1    0    0    0  501 -0.00000000000E+00 -0.00000000000E+00 -0.19621360530E+03  0.19621360530E+03  0.00000000000E+00 0.  1.
          6    2    1    2  502    0  0.59796686260E+02  0.10523978061E+03  0.41855092169E+03  0.47032980781E+03  0.17712763464E+03 0.  0.
         24    2    3    3    0    0  0.81917545659E+02  0.95920809877E+02  0.19511315420E+03  0.24555725260E+03  0.79485440848E+02 0.  0.
         -6    2    1    2    0  501 -0.59796686260E+02 -0.10523978061E+03 -0.10572788822E+03  0.23492043626E+03  0.17134225956E+03 0.  0.
        -24    2    5    5    0    0 -0.83929019413E+02 -0.22967279647E+02 -0.30409712368E+02  0.12070112295E+03  0.77925825247E+02 0.  0.
          5    1    3    3  502    0 -0.22120859399E+02  0.93189707383E+01  0.22343776749E+03  0.22477255521E+03  0.47000000000E+01 0. -1.
        -13    1    4    4    0    0  0.86715291849E+02  0.44536358036E+02  0.12680285835E+03  0.15994372108E+03  0.00000000000E+00 0.  1.
         14    1    4    4    0    0 -0.47977461898E+01  0.51384451841E+02  0.68310295851E+02  0.85613531516E+02  0.00000000000E+00 0. -1.
         -5    1    5    5    0  501  0.24132333153E+02 -0.82272500968E+02 -0.75318175854E+02  0.11421931331E+03  0.47000000000E+01 0.  1.
         13    1    6    6    0    0 -0.93622183973E+02 -0.35785086737E+02 -0.22208627212E+02  0.10265918803E+03  0.00000000000E+00 0. -1.
        -14    1    6    6    0    0  0.96931645597E+01  0.12817807090E+02 -0.82010851559E+01  0.18041934916E+02  0.00000000000E+00 0.  1.
</event>
<event>
12    1  0.2685360E-002  0.2076765E+03  0.7818608E-02  0.1143419E+00
         -1   -1    0    0    0  501 -0.00000000000E+00  0.00000000000E+00  0.11287639840E+03  0.11287639840E+03  0.00000000000E+00 0. -1.
          1   -1    0    0  502    0  0.00000000000E+00 -0.00000000000E+00 -0.38405540426E+03  0.38405540426E+03  0.00000000000E+00 0.  1.
          6    2    1    2  502    0 -0.41529817916E+02  0.10855007277E+03 -0.11588310131E+03  0.23432905094E+03  0.16725240468E+03 0.  0.
         24    2    3    3    0    0  0.10804409017E+02  0.12451072425E+03 -0.77425448997E+02  0.16728656646E+03  0.79815032789E+02 0.  0.
         -6    2    1    2    0  501  0.41529817916E+02 -0.10855007277E+03 -0.15529590455E+03  0.26260275173E+03  0.17701848256E+03 0.  0.
        -24    2    5    5    0    0  0.77217316512E+02 -0.30077389396E+02 -0.49864435005E+02  0.12633300320E+03  0.81279779140E+02 0.  0.
          5    1    3    3  502    0 -0.52334226933E+02 -0.15960651471E+02 -0.38457652309E+02  0.67042484479E+02  0.47000000000E+01 0. -1.
        -11    1    4    4    0    0  0.21308453408E+02  0.34756293563E+02 -0.64065890123E+02  0.75937397941E+02  0.00000000000E+00 0.  1.
         12    1    4    4    0    0 -0.10504044391E+02  0.89754430682E+02 -0.13359558874E+02  0.91349168518E+02  0.00000000000E+00 0. -1.
         -5    1    5    5    0  501 -0.35687498596E+02 -0.78472683378E+02 -0.10543146955E+03  0.13626974853E+03  0.47000000000E+01 0.  1.
         11    1    6    6    0    0 -0.13956895027E+02  0.25641972934E+01  0.49813149223E+01  0.15039399087E+02  0.00000000000E+00 0. -1.
        -12    1    6    6    0    0  0.91174211539E+02 -0.32641586689E+02 -0.54845749927E+02  0.11129360411E+03  0.00000000000E+00 0.  1.
</event>
<event>
12    1  0.2685360E-002  0.3095759E+03  0.7818608E-02  0.1080549E+00
         -2   -1    0    0    0  501 -0.00000000000E+00  0.00000000000E+00  0.49820551819E+02  0.49820551819E+02  0.00000000000E+00 0.  1.
          2   -1    0    0  502    0  0.00000000000E+00 -0.00000000000E+00 -0.19300157678E+04  0.19300157678E+04  0.00000000000E+00 0. -1.
          6    2    1    2  502    0 -0.83744064260E+02 -0.24371131447E+03 -0.88374097297E+03  0.93644944578E+03  0.17184639679E+03 0.  0.
         24    2    3    3    0    0 -0.20700632043E+02 -0.89616575716E+02 -0.15823549425E+03  0.19207054192E+03  0.58249245678E+02 0.  0.
         -6    2    1    2    0  501  0.83744064260E+02  0.24371131447E+03 -0.99645424304E+03  0.10433868739E+04  0.17125080144E+03 0.  0.
        -24    2    5    5    0    0 -0.13714596607E+02  0.15902705474E+03 -0.52170180572E+03  0.55136900716E+03  0.79732764049E+02 0.  0.
          5    1    3    3  502    0 -0.63043432217E+02 -0.15409473876E+03 -0.72550547872E+03  0.74437890386E+03  0.47000000000E+01 0. -1.
        -11    1    4    4    0    0 -0.26600020017E+02 -0.96327527504E+02 -0.14554059883E+03  0.17654636651E+03  0.00000000000E+00 0.  1.
         12    1    4    4    0    0  0.58993879739E+01  0.67109517886E+01 -0.12694895423E+02  0.15524175410E+02  0.00000000000E+00 0. -1.
         -5    1    5    5    0  501  0.97458660867E+02  0.84684259731E+02 -0.47475243731E+03  0.49201786671E+03  0.47000000000E+01 0.  1.
         11    1    6    6    0    0  0.22712040910E+02  0.12401257283E+03 -0.33457158923E+03  0.35753755515E+03  0.00000000000E+00 0. -1.
        -12    1    6    6    0    0 -0.36426637517E+02  0.35014481915E+02 -0.18713021649E+03  0.19383145201E+03  0.00000000000E+00 0.  1.
</event>
<event>
12    1  0.2685360E-002  0.1907150E+03  0.7818608E-02  0.1157818E+00
          2   -1    0    0  502    0  0.00000000000E+00  0.00000000000E+00  0.15804235345E+04  0.15804235345E+04  0.00000000000E+00 0.  1.
         -2   -1    0    0    0  501 -0.00000000000E+00 -0.00000000000E+00 -0.23391950778E+02  0.23391950778E+02  0.00000000000E+00 0. -1.
          6    2    1    2  502    0  0.34930024339E+01  0.81904128867E+02  0.67297735844E+03  0.69922823182E+03  0.17117566358E+03 0.  0.
         24    2    3    3    0    0 -0.23200909376E+02  0.18677379655E+01  0.49832268243E+03  0.50520572114E+03  0.79784423344E+02 0.  0.
         -6    2    1    2    0  501 -0.34930024339E+01 -0.81904128867E+02  0.88405422528E+03  0.90458725346E+03  0.17322164558E+03 0.  0.
        -24    2    5    5    0    0  0.68846954574E-01 -0.27518644877E+02  0.80006962972E+03  0.80435766736E+03  0.78246815099E+02 0.  0.
          5    1    3    3  502    0  0.26693911810E+02  0.80036390902E+02  0.17465467601E+03  0.19402251068E+03  0.47000000000E+01 0. -1.
        -11    1    4    4    0    0 -0.49416477505E+02 -0.15262802352E+02  0.29993276950E+03  0.30435933960E+03  0.00000000000E+00 0.  1.
         12    1    4    4    0    0  0.26215568129E+02  0.17130540317E+02  0.19838991294E+03  0.20084638154E+03  0.00000000000E+00 0. -1.
         -5    1    5    5    0  501 -0.35618493885E+01 -0.54385483990E+02  0.83984595556E+02  0.10022958610E+03  0.47000000000E+01 0.  1.
         13    1    6    6    0    0  0.38016506673E+02 -0.22712374173E+02  0.38917563511E+03  0.39168709665E+03  0.00000000000E+00 0. -1.
        -14    1    6    6    0    0 -0.37947659718E+02 -0.48062707039E+01  0.41089399462E+03  0.41267057071E+03  0.00000000000E+00 0.  1.
</event>
<event>
12    1  0.2685360E-002  0.2311754E+03  0.7818608E-02  0.1125815E+00
         -2   -1    0    0    0  501 -0.00000000000E+00  0.00000000000E+00  0.45901665970E+02  0.45901665970E+02  0.00000000000E+00 0. -1.
          2   -1    0    0  502    0  0.00000000000E+00 -0.00000000000E+00 -0.12238951773E+04  0.12238951773E+04  0.00000000000E+00 0.  1.
          6    2    1    2  502    0 -0.11202954417E+03 -0.10614436644E+03 -0.44993884084E+03  0.50605453035E+03  0.17271068841E+03 0.  0.
         24    2    3    3    0    0 -0.36750606493E+02 -0.12118968213E+03 -0.32972564925E+03  0.36334299818E+03  0.85214930715E+02 0.  0.
         -6    2    1    2    0  501  0.11202954417E+03  0.10614436644E+03 -0.72805467049E+03  0.76374231293E+03  0.17152688431E+03 0.  0.
        -24    2    5    5    0    0  0.35436573171E+02  0.12069741992E+03 -0.41254502598E+03  0.43870892948E+03  0.80302605551E+02 0.  0.
          5    1    3    3  502    0 -0.75278937674E+02  0.15045315694E+02 -0.12021319159E+03  0.14271153217E+03  0.47000000000E+01 0. -1.
        -11    1    4    4    0    0 -0.47295964136E+02 -0.31076510401E+02 -0.17562104688E+03  0.18451398275E+03  0.00000000000E+00 0.  1.
         12    1    4    4    0    0  0.10545357643E+02 -0.90113171730E+02 -0.15410460237E+03  0.17882901543E+03  0.00000000000E+00 0. -1.
         -5    1    5    5    0  501  0.76592970996E+02 -0.14553053479E+02 -0.31550964451E+03  0.32503338344E+03  0.47000000000E+01 0.  1.
         11    1    6    6    0    0  0.34984209564E+02  0.30872992632E+02 -0.66771668924E+02  0.81458531559E+02  0.00000000000E+00 0. -1.
        -12    1    6    6    0    0  0.45236360647E+00  0.89824427284E+02 -0.34577335705E+03  0.35725039792E+03  0.00000000000E+00 0.  1.
</event>
<event>
12    1  0.2685360E-002  0.1745472E+03  0.7818608E-02  0.1173187E+00
         -2   -1    0    0    0  501 -0.00000000000E+00  0.00000000000E+00  0.15571437461E+02  0.15571437461E+02  0.00000000000E+00 0.  1.
          2   -1    0    0  502    0  0.00000000000E+00 -0.00000000000E+00 -0.27030472650E+04  0.27030472650E+04  0.00000000000E+00 0. -1.
          6    2    1    2  502    0  0.69836318140E+01 -0.27597591116E+02 -0.20546570260E+04  0.20620063773E+04  0.17159372815E+03 0.  0.
         24    2    3    3    0    0  0.17832851775E+02 -0.61061253810E+02 -0.76422831391E+03  0.77108969789E+03  0.80547620004E+02 0.  0.
         -6    2    1    2    0  501 -0.69836318140E+01  0.27597591116E+02 -0.63281880162E+03  0.65661232520E+03  0.17282856181E+03 0.  0.
        -24    2    5    5    0    0  0.41637243795E+02  0.28228842462E+02 -0.56616202373E+03  0.57397090664E+03  0.79828797680E+02 0.  0.
          5    1    3    3  502    0 -0.10849219961E+02  0.33463662694E+02 -0.12904287121E+04  0.12909166794E+04  0.47000000000E+01 0. -1.
        -11    1    4    4    0    0 -0.18433358056E+02 -0.62590566299E+02 -0.54252078478E+03  0.54643038861E+03  0.00000000000E+00 0.  1.
         12    1    4    4    0    0  0.36266209831E+02  0.15293124886E+01 -0.22170752913E+03  0.22465930928E+03  0.00000000000E+00 0. -1.
         -5    1    5    5    0  501 -0.48620875609E+02 -0.63125134591E+00 -0.66656777888E+02  0.82641418561E+02  0.47000000000E+01 0.  1.
         13    1    6    6    0    0  0.19717957001E+02 -0.27478196507E+02 -0.17265435196E+03  0.17593571088E+03  0.00000000000E+00 0. -1.
        -14    1    6    6    0    0  0.21919286794E+02  0.55707038968E+02 -0.39350767177E+03  0.39803519576E+03  0.00000000000E+00 0.  1.
</event>
<event>
12    1  0.2685360E-002  0.1939796E+03  0.7818608E-02  0.1154920E+00
         -2   -1    0    0    0  501 -0.00000000000E+00  0.00000000000E+00  0.93941996916E+02  0.93941996916E+02  0.00000000000E+00 0. -1.
          2   -1    0    0  502    0  0.00000000000E+00 -0.00000000000E+00 -0.40283157896E+03  0.40283157896E+03  0.00000000000E+00 0.  1.
          6    2    1    2  502    0 -0.11699878461E+02 -0.85079793200E+02 -0.17402046169E+03  0.26147147915E+03  0.17523913647E+03 0.  0.
         24    2    3    3    0    0  0.59057115005E+02 -0.31464484026E+02 -0.10853706967E+03  0.15105717693E+03  0.80995176538E+02 0.  0.
         -6    2    1    2    0  501  0.11699878461E+02  0.85079793200E+02 -0.13486912035E+03  0.23530209673E+03  0.17263238032E+03 0.  0.
        -24    2    5    5    0    0  0.35393408317E+02  0.32886573255E+02 -0.14986166632E+03  0.17586825115E+03  0.78338385718E+02 0.  0.
          5    1    3    3  502    0 -0.70756993466E+02 -0.53615309174E+02 -0.65483392022E+02  0.11041430221E+03  0.47000000000E+01 0. -1.
        -13    1    4    4    0    0 -0.14612433798E+02 -0.76796583300E+01 -0.53723115040E+02  0.56202077036E+02  0.00000000000E+00 0.  1.
         14    1    4    4    0    0  0.73669548802E+02 -0.23784825696E+02 -0.54813954632E+02  0.94855099898E+02  0.00000000000E+00 0. -1.
         -5    1    5    5    0  501 -0.23693529856E+02  0.52193219945E+02  0.14992545975E+02  0.59433845577E+02  0.47000000000E+01 0.  1.
         11    1    6    6    0    0 -0.16714486241E+02  0.24875062501E+02 -0.95707311163E+02  0.10028974122E+03  0.00000000000E+00 0. -1.
        -12    1    6    6    0    0  0.52107894559E+02  0.80115107538E+01 -0.54154355159E+02  0.75578509926E+02  0.00000000000E+00 0.  1.
</event>
<event>
12    1  0.2685360E-002  0.1874391E+03  0.7818608E-02  0.1160792E+00
          1   -1    0    0  502    0  0.00000000000E+00  0.00000000000E+00  0.13563516811E+04  0.13563516811E+04  0.00000000000E+00 0.  1.
         -1   -1    0    0    0  501 -0.00000000000E+00 -0.00000000000E+00 -0.31263689516E+02  0.31263689516E+02  0.00000000000E+00 0. -1.
          6    2    1    2  502    0  0.69404520972E+02 -0.14810914279E+02  0.95443439425E+03  0.97297415186E+03  0.17520655391E+03 0.  0.
         24    2    3    3    0    0  0.10784204546E+03 -0.39875415516E+01  0.85923330358E+03  0.86963042272E+03  0.79557494196E+02 0.  0.
         -6    2    1    2    0  501 -0.69404520972E+02  0.14810914279E+02  0.37065359731E+03  0.41464121874E+03  0.17177572694E+03 0.  0.
        -24    2    5    5    0    0 -0.68025023291E+02 -0.37711159253E+02  0.14608073432E+03  0.18395629940E+03  0.80316896240E+02 0.  0.
          5    1    3    3  502    0 -0.38437524490E+02 -0.10823372728E+02  0.95201090677E+02  0.10334372914E+03  0.47000000000E+01 0. -1.
        -11    1    4    4    0    0  0.50017103760E+02  0.20309114206E+02  0.19166926819E+03  0.19912628947E+03  0.00000000000E+00 0.  1.
         12    1    4    4    0    0  0.57824941702E+02 -0.24296655757E+02  0.66756403539E+03  0.67050413325E+03  0.00000000000E+00 0. -1.
         -5    1    5    5    0  501 -0.13794976809E+01  0.52522073533E+02  0.22457286298E+03  0.23068491934E+03  0.47000000000E+01 0.  1.
         13    1    6    6    0    0 -0.79326002111E+02 -0.44950497351E+02  0.14390837034E+03  0.17036073749E+03  0.00000000000E+00 0. -1.
        -14    1    6    6    0    0  0.11300978819E+02  0.72393380977E+01  0.21723639809E+01  0.13595561909E+02  0.00000000000E+00 0.  1.
</event>
<event>
12    1  0.2685360E-002  0.1785387E+03  0.7818608E-02  0.1169225E+00
         -2   -1    0    0    0  501 -0.00000000000E+00  0.00000000000E+00  0.22674605890E+03  0.22674605890E+03  0.00000000000E+00 0. -1.
          2   -1    0    0  502    0  0.00000000000E+00 -0.00000000000E+00 -0.14360398108E+03  0.14360398108E+03  0.00000000000E+00 0.  1.
          6    2    1    2  502    0 -0.36553885010E+02 -0.31110913193E+02  0.15526312437E+02  0.18210936440E+03  0.17498193848E+03 0.  0.
         24    2    3    3    0    0  0.15715354573E+02 -0.55686183903E+02 -0.36113381965E+02  0.10449000228E+03  0.79158453581E+02 0.  0.
         -6    2    1    2    0  501  0.36553885010E+02  0.31110913193E+02  0.67615765384E+02  0.18824067558E+03  0.16899285424E+03 0.  0.
        -24    2    5    5    0    0  0.97758259370E+01  0.53358297928E+02  0.99195371558E+02  0.14100327407E+03  0.84258689933E+02 0.  0.
          5    1    3    3  502    0 -0.52269239583E+02  0.24575270710E+02  0.51639694402E+02  0.77619362114E+02  0.47000000000E+01 0. -1.
        -13    1    4    4    0    0  0.18436368917E+02  0.16813186953E+02 -0.45138423268E+01  0.25356611108E+02  0.00000000000E+00 0.  1.
         14    1    4    4    0    0 -0.27210143444E+01 -0.72499370856E+02 -0.31599539638E+02  0.79133391176E+02  0.00000000000E+00 0. -1.
         -5    1    5    5    0  501  0.26778059073E+02 -0.22247384735E+02 -0.31579606175E+02  0.47237401510E+02  0.47000000000E+01 0.  1.
         11    1    6    6    0    0 -0.29894792651E+02  0.26513788075E+02  0.79954669096E+02  0.89383604179E+02  0.00000000000E+00 0. -1.
        -12    1    6    6    0    0  0.39670618588E+02  0.26844509853E+02  0.19240702462E+02  0.51619669891E+02  0.00000000000E+00 0.  1.
</event>
<event>
12    1  0.2685360E-002  0.1847165E+03  0.7818608E-02  0.1163315E+00
          1   -1    0    0  502    0  0.00000000000E+00  0.00000000000E+00  0.12653241939E+03  0.12653241939E+03  0.00000000000E+00 0.  1.
         -1   -1    0    0    0  501 -0.00000000000E+00 -0.00000000000E+00 -0.78853210817E+03  0.78853210817E+03  0.00000000000E+00 0. -1.
          6    2    1    2  502    0 -0.10887357095E+02  0.57847863224E+02  0.42036439692E+02  0.18638402720E+03  0.17177611448E+03 0.  0.
         24    2    3    3    0    0  0.12784042662E+02  0.88478347036E+02 -0.13129506773E+02  0.11882713743E+03  0.77172890326E+02 0.  0.
         -6    2    1    2    0  501  0.10887357095E+02 -0.57847863224E+02 -0.70403612848E+03  0.72868050036E+03  0.17844744768E+03 0.  0.
        -24    2    5    5    0    0  0.16220947213E+02 -0.43500992358E+02 -0.70717156438E+03  0.71236483778E+03  0.72225931457E+02 0.  0.
          5    1    3    3  502    0 -0.23671399757E+02 -0.30630483812E+02  0.55165946465E+02  0.67556889763E+02  0.47000000000E+01 0. -1.
        -11    1    4    4    0    0 -0.17282136893E+02  0.56838634127E+02  0.21429874248E+02  0.63154905552E+02  0.00000000000E+00 0.  1.
         12    1    4    4    0    0  0.30066179555E+02  0.31639712909E+02 -0.34559381021E+02  0.55672231880E+02  0.00000000000E+00 0. -1.
         -5    1    5    5    0  501 -0.53335901180E+01 -0.14346870866E+02  0.31354359026E+01  0.16315662582E+02  0.47000000000E+01 0.  1.
         11    1    6    6    0    0  0.21830416222E+01 -0.59344252325E+02 -0.39082571027E+03  0.39531157555E+03  0.00000000000E+00 0. -1.
        -12    1    6    6    0    0  0.14037905591E+02  0.15843259967E+02 -0.31634585411E+03  0.31705326223E+03  0.00000000000E+00 0.  1.
</event>
<event>
12    1  0.2685360E-002  0.2051279E+03  0.7818608E-02  0.1145483E+00
         -2   -1    0    0    0  501 -0.00000000000E+00  0.00000000000E+00  0.41852456933E+02  0.41852456933E+02  0.00000000000E+00 0.  1.
          2   -1    0    0  502    0  0.00000000000E+00 -0.00000000000E+00 -0.14003720593E+04  0.14003720593E+04  0.00000000000E+00 0. -1.
          6    2    1    2  502    0 -0.98299199705E+02  0.53849705982E+02 -0.29586162023E+03  0.35991608140E+03  0.17158952133E+03 0.  0.
         24    2    3    3    0    0  0.36078216135E+01  0.62249242110E+02 -0.12801592350E+03  0.16332040212E+03  0.79984326961E+02 0.  0.
         -6    2    1    2    0  501  0.98299199705E+02 -0.53849705982E+02 -0.10626579821E+04  0.10823084348E+04  0.17200883002E+03 0.  0.
        -24    2    5    5    0    0  0.11899025233E+03 -0.85371463694E+02 -0.88562277370E+03  0.90124133153E+03  0.80382046593E+02 0.  0.
          5    1    3    3  502    0 -0.10190702132E+03 -0.83995361271E+01 -0.16784569673E+03  0.19659567928E+03  0.47000000000E+01 0. -1.
        -11    1    4    4    0    0 -0.31059186879E+02  0.12362520297E+02 -0.18818026884E+02  0.38361740491E+02  0.00000000000E+00 0.  1.
         12    1    4    4    0    0  0.34667008493E+02  0.49886721813E+02 -0.10919789661E+03  0.12495866163E+03  0.00000000000E+00 0. -1.
         -5    1    5    5    0  501 -0.20691052621E+02  0.31521757712E+02 -0.17703520840E+03  0.18106710326E+03  0.47000000000E+01 0.  1.
         11    1    6    6    0    0  0.62966070193E+02 -0.43348705849E+02 -0.24119926342E+03  0.25302355813E+03  0.00000000000E+00 0. -1.
        -12    1    6    6    0    0  0.56024182133E+02 -0.42022757845E+02 -0.64442351028E+03  0.64821777341E+03  0.00000000000E+00 0.  1.
</event>
<event>
12    1  0.2685360E-002  0.1709424E+03  0.7818608E-02  0.1176869E+00
          1   -1    0    0  502    0  0.00000000000E+00  0.00000000000E+00  0.38415704733E+03  0.38415704733E+03  0.00000000000E+00 0. -1.
         -1   -1    0    0    0  501 -0.00000000000E+00 -0.00000000000E+00 -0.84189999064E+02  0.84189999064E+02  0.00000000000E+00 0.  1.
          6    2    1    2  502    0 -0.60996778930E+01  0.20471386799E+02  0.22451899998E+03  0.28362750467E+03  0.17198690737E+03 0.  0.
         24    2    3    3    0    0  0.11927372125E+02  0.76876182604E+02  0.12384199634E+03  0.16673257500E+03  0.80066858624E+02 0.  0.
         -6    2    1    2    0  501  0.60996778930E+01 -0.20471386799E+02  0.75448048293E+02  0.18471954173E+03  0.16725016400E+03 0.  0.
        -24    2    5    5    0    0 -0.20884709984E+02 -0.89914366359E+01  0.11143219541E+03  0.13806233126E+03  0.78275514018E+02 0.  0.
          5    1    3    3  502    0 -0.18027050018E+02 -0.56404795804E+02  0.10067700364E+03  0.11689492967E+03  0.47000000000E+01 0. -1.
        -11    1    4    4    0    0 -0.17553161492E+02 -0.27858516449E+01  0.53727882009E+02  0.56591163205E+02  0.00000000000E+00 0.  1.
         12    1    4    4    0    0  0.29480533617E+02  0.79662034249E+02  0.70114114331E+02  0.11014141179E+03  0.00000000000E+00 0. -1.
         -5    1    5    5    0  501  0.26984387877E+02 -0.11479950163E+02 -0.35984147118E+02  0.46657210468E+02  0.47000000000E+01 0.  1.
         13    1    6    6    0    0  0.26130398821E+02 -0.64185161575E+01  0.15139159248E+02  0.30873762889E+02  0.00000000000E+00 0. -1.
        -14    1    6    6    0    0 -0.47015108805E+02 -0.25729204784E+01  0.96293036163E+02  0.10718856837E+03  0.00000000000E+00 0.  1.
</event>
<event>
12    1  0.2685360E-002  0.1794713E+03  0.7818608E-02  0.1168316E+00
          1   -1    0    0  502    0  0.00000000000E+00  0.00000000000E+00  0.14057612751E+02  0.14057612751E+02  0.00000000000E+00 0.  1.
         -1   -1    0    0    0  501 -0.00000000000E+00 -0.00000000000E+00 -0.23833323154E+04  0.23833323154E+04  0.00000000000E+00 0. -1.
          6    2    1    2  502    0  0.23658949543E+02 -0.47288349277E+02 -0.95012606701E+03  0.96695896970E+03  0.17168043569E+03 0.  0.
         24    2    3    3    0    0  0.20487002305E+02 -0.90997578821E+02 -0.46725636291E+03  0.48208187276E+03  0.73308572152E+02 0.  0.
         -6    2    1    2    0  501 -0.23658949543E+02  0.47288349277E+02 -0.14191486356E+04  0.14304309584E+04  0.17132992439E+03 0.  0.
        -24    2    5    5    0    0  0.49821447744E+02  0.48887451021E+02 -0.80392832774E+03  0.81081814131E+03  0.79076814664E+02 0.  0.
          5    1    3    3  502    0  0.31719472379E+01  0.43709229544E+02 -0.48286970410E+03  0.48487709694E+03  0.47000000000E+01 0. -1.
        -13    1    4    4    0    0  0.43149082442E+02 -0.40401561182E+02 -0.17793112303E+03  0.18749297055E+03  0.00000000000E+00 0.  1.
         14    1    4    4    0    0 -0.22662080137E+02 -0.50596017639E+02 -0.28932523988E+03  0.29458890221E+03  0.00000000000E+00 0. -1.
         -5    1    5    5    0  501 -0.73480397287E+02 -0.15991017436E+01 -0.61522030788E+03  0.61961281712E+03  0.47000000000E+01 0.  1.
         11    1    6    6    0    0  0.61506241801E+02  0.25438397049E+02 -0.35892267648E+03  0.36504193939E+03  0.00000000000E+00 0. -1.
        -12    1    6    6    0    0 -0.11684794057E+02  0.23449053971E+02 -0.44500565126E+03  0.44577620192E+03  0.00000000000E+00 0.  1.
</event>
<event>
12    1  0.2685360E-002  0.1999149E+03  0.7818608E-02  0.1149811E+00
          1   -1    0    0  502    0  0.00000000000E+00  0.00000000000E+00  0.13834858097E+04  0.13834858097E+04  0.00000000000E+00 0.  1.
         -1   -1    0    0    0  501 -0.00000000000E+00 -0.00000000000E+00 -0.30433068476E+02  0.30433068476E+02  0.00000000000E+00 0. -1.
          6    2    1    2  502    0  0.70703625966E+02 -0.68024511331E+02  0.51488013204E+03  0.55206325365E+03  0.17333767276E+03 0.  0.
         24    2    3    3    0    0  0.73817121152E+02  0.24169232807E+01  0.41851760167E+03  0.43256632138E+03  0.80633929554E+02 0.  0.
         -6    2    1    2    0  501 -0.70703625966E+02  0.68024511331E+02  0.83817260919E+03  0.86185562453E+03  0.17502987708E+03 0.  0.
        -24    2    5    5    0    0 -0.64171505917E+02 -0.18342843507E+02  0.50377400626E+03  0.51638999062E+03  0.91738383164E+02 0.  0.
          5    1    3    3  502    0 -0.31134951856E+01 -0.70441434612E+02  0.96362530373E+02  0.11949693227E+03  0.47000000000E+01 0. -1.
        -11    1    4    4    0    0  0.25486528149E+02 -0.20094022088E+02  0.30963180845E+03  0.31132810610E+03  0.00000000000E+00 0.  1.
         12    1    4    4    0    0  0.48330593002E+02  0.22510945369E+02  0.10888579322E+03  0.12123821529E+03  0.00000000000E+00 0. -1.
         -5    1    5    5    0  501 -0.65321200494E+01  0.86367354838E+02  0.33439860293E+03  0.34546563391E+03  0.47000000000E+01 0.  1.
         11    1    6    6    0    0 -0.82923686580E+02  0.54422292024E+01  0.37635842135E+03  0.38542394448E+03  0.00000000000E+00 0. -1.
        -12    1    6    6    0    0  0.18752180664E+02 -0.23785072709E+02  0.12741558491E+03  0.13096604614E+03  0.00000000000E+00 0.  1.
</event>
<event>
12    1  0.2685360E-002  0.4048363E+03  0.7818608E-02  0.1042118E+00
          1   -1    0    0  502    0  0.00000000000E+00  0.00000000000E+00  0.75340016863E+03  0.75340016863E+03  0.00000000000E+00 0.  1.
         -1   -1    0    0    0  501 -0.00000000000E+00 -0.00000000000E+00 -0.22154494523E+03  0.22154494523E+03  0.00000000000E+00 0. -1.
          6    2    1    2  502    0  0.47379832241E+02 -0.36334908243E+03  0.33133555873E+03  0.52295087452E+03  0.17154288231E+03 0.  0.
         24    2    3    3    0    0  0.42766942182E+02 -0.33268598086E+03  0.34570925997E+03  0.48845163047E+03  0.81000800438E+02 0.  0.
         -6    2    1    2    0  501 -0.47379832241E+02  0.36334908243E+03  0.20051966466E+03  0.45199423934E+03  0.17269410028E+03 0.  0.
        -24    2    5    5    0    0 -0.84394533187E+02  0.34009489424E+03  0.16432834787E+03  0.39504911869E+03  0.79202436487E+02 0.  0.
          5    1    3    3  502    0  0.46128900586E+01 -0.30663101575E+02 -0.14373701238E+02  0.34499244052E+02  0.47000000000E+01 0. -1.
        -11    1    4    4    0    0  0.12669488887E+02 -0.17804833662E+03  0.12768333327E+03  0.21946471178E+03  0.00000000000E+00 0.  1.
         12    1    4    4    0    0  0.30097453295E+02 -0.15463764424E+03  0.21802592670E+03  0.26898691869E+03  0.00000000000E+00 0. -1.
         -5    1    5    5    0  501  0.37014700946E+02  0.23254188193E+02  0.36191316791E+02  0.56945120649E+02  0.47000000000E+01 0.  1.
         13    1    6    6    0    0 -0.40487158204E+02  0.17574357897E+03  0.41044982427E+02  0.18495866054E+03  0.00000000000E+00 0. -1.
        -14    1    6    6    0    0 -0.43907374982E+02  0.16435131527E+03  0.12328336545E+03  0.21009045815E+03  0.00000000000E+00 0.  1.
</event>
<event>
12    1  0.2685360E-002  0.1797345E+03  0.7818608E-02  0.1168060E+00
          1   -1    0    0  502    0  0.00000000000E+00  0.00000000000E+00  0.16208817089E+04  0.16208817089E+04  0.00000000000E+00 0.  1.
         -1   -1    0    0    0  501 -0.00000000000E+00 -0.00000000000E+00 -0.26535116836E+02  0.26535116836E+02  0.00000000000E+00 0. -1.
          6    2    1    2  502    0 -0.34215127944E+02 -0.29847440148E+02  0.12006466309E+04  0.12137016467E+04  0.17163277742E+03 0.  0.
         24    2    3    3    0    0 -0.51981021805E+02  0.38660218869E+02  0.83964014538E+03  0.84579309977E+03  0.78573244387E+02 0.  0.
         -6    2    1    2    0  501  0.34215127944E+02  0.29847440148E+02  0.39369996115E+03  0.43371517900E+03  0.17620344045E+03 0.  0.
        -24    2    5    5    0    0  0.66703851834E+02  0.29684850295E+02  0.97058572679E+02  0.13526292659E+03  0.59540730545E+02 0.  0.
          5    1    3    3  502    0  0.17765893860E+02 -0.68507659017E+02  0.36100648555E+03  0.36790854698E+03  0.47000000000E+01 0. -1.
        -11    1    4    4    0    0 -0.16578463147E+02 -0.15128232362E+02  0.47364094681E+03  0.47417238991E+03  0.00000000000E+00 0.  1.
         12    1    4    4    0    0 -0.35402558658E+02  0.53788451231E+02  0.36599919857E+03  0.37162070986E+03  0.00000000000E+00 0. -1.
         -5    1    5    5    0  501 -0.32488723890E+02  0.16258985304E+00  0.29664138847E+03  0.29845225241E+03  0.47000000000E+01 0.  1.
         11    1    6    6    0    0  0.64766284282E+02  0.31229329271E+01  0.52847057288E+02  0.83649481491E+02  0.00000000000E+00 0. -1.
        -12    1    6    6    0    0  0.19375675526E+01  0.26561917368E+02  0.44211515391E+02  0.51613445103E+02  0.00000000000E+00 0.  1.
</event>
<event>
12    1  0.2685360E-002  0.1988638E+03  0.7818608E-02  0.1150701E+00
          1   -1    0    0  502    0  0.00000000000E+00  0.00000000000E+00  0.95424529000E+03  0.95424529000E+03  0.00000000000E+00 0.  1.
         -1   -1    0    0    0  501 -0.00000000000E+00 -0.00000000000E+00 -0.20164304906E+03  0.20164304906E+03  0.00000000000E+00 0. -1.
          6    2    1    2  502    0 -0.80033277494E+02 -0.56559680977E+02  0.89128286415E+03  0.91311042277E+03  0.17257223770E+03 0.  0.
         24    2    3    3    0    0 -0.42192735165E+01  0.15136186256E+02  0.30089794133E+03  0.31355683244E+03  0.86783694744E+02 0.  0.
         -6    2    1    2    0  501  0.80033277494E+02  0.56559680977E+02 -0.13868062321E+03  0.24277791628E+03  0.17350642168E+03 0.  0.
        -24    2    5    5    0    0  0.20773590340E+02  0.55863315135E+02 -0.14768672646E+03  0.18264975863E+03  0.89427697741E+02 0.  0.
          5    1    3    3  502    0 -0.75814003977E+02 -0.71695867233E+02  0.59038492283E+03  0.59955359033E+03  0.47000000000E+01 0. -1.
        -11    1    4    4    0    0  0.66105603345E+01  0.14493650833E+02  0.30220941388E+03  0.30262897294E+03  0.00000000000E+00 0.  1.
         12    1    4    4    0    0 -0.10829833851E+02  0.64253542324E+00 -0.13114725590E+01  0.10927859501E+02  0.00000000000E+00 0. -1.
         -5    1    5    5    0  501  0.59259687154E+02  0.69636584190E+00  0.90061032495E+01  0.60128157653E+02  0.47000000000E+01 0.  1.
         13    1    6    6    0    0  0.52069163710E+02  0.25404640280E+02 -0.11259674696E+03  0.12662788391E+03  0.00000000000E+00 0. -1.
        -14    1    6    6    0    0 -0.31295573370E+02  0.30458674855E+02 -0.35089979498E+02  0.56021874724E+02  0.00000000000E+00 0.  1.
</event>
<event>
12    1  0.2685360E-002  0.1885405E+03  0.7818608E-02  0.1159784E+00
         -1   -1    0    0    0  501 -0.00000000000E+00  0.00000000000E+00  0.74197428647E+02  0.74197428647E+02  0.00000000000E+00 0.  1.
          1   -1    0    0  502    0  0.00000000000E+00 -0.00000000000E+00 -0.47934728773E+03  0.47934728773E+03  0.00000000000E+00 0. -1.
          6    2    1    2  502    0  0.43300524306E+01 -0.79680201967E+02 -0.19627432823E+03  0.27220153680E+03  0.17088704098E+03 0.  0.
         24    2    3    3    0    0  0.40789370690E+02 -0.77629771730E+02 -0.61540025760E+02  0.13252724277E+03  0.78013723694E+02 0.  0.
         -6    2    1    2    0  501 -0.43300524306E+01  0.79680201967E+02 -0.20887553085E+03  0.28134317958E+03  0.17075512691E+03 0.  0.
        -24    2    5    5    0    0 -0.30413052587E+02  0.28721759158E+02 -0.20538525514E+03  0.22379878093E+03  0.78440411160E+02 0.  0.
          5    1    3    3  502    0 -0.36459318259E+02 -0.20504302370E+01 -0.13473430247E+03  0.13967429403E+03  0.47000000000E+01 0. -1.
        -13    1    4    4    0    0 -0.12783301299E+02 -0.24270837971E+02  0.92500113812E+01  0.28949077334E+02  0.00000000000E+00 0.  1.
         14    1    4    4    0    0  0.53572671989E+02 -0.53358933759E+02 -0.70790037142E+02  0.10357816543E+03  0.00000000000E+00 0. -1.
         -5    1    5    5    0  501  0.26083000157E+02  0.50958442810E+02 -0.34902757188E+01  0.57544398645E+02  0.47000000000E+01 0.  1.
         11    1    6    6    0    0 -0.41184676997E+02  0.49945832654E+02 -0.15872460791E+03  0.17141839159E+03  0.00000000000E+00 0. -1.
        -12    1    6    6    0    0  0.10771624409E+02 -0.21224073497E+02 -0.46660647223E+02  0.52380389340E+02  0.00000000000E+00 0.  1.
</event>
<event>
12    1  0.2685360E-002  0.1948887E+03  0.7818608E-02  0.1154125E+00
          1   -1    0    0  502    0  0.00000000000E+00  0.00000000000E+00  0.64405966704E+02  0.64405966704E+02  0.00000000000E+00 0. -1.
         -1   -1    0    0    0  501 -0.00000000000E+00 -0.00000000000E+00 -0.59233095820E+03  0.59233095820E+03  0.00000000000E+00 0.  1.
          6    2    1    2  502    0  0.21679181625E+02  0.93002493997E+02 -0.23951505630E+03  0.30740801780E+03  0.16737017778E+03 0.  0.
         24    2    3    3    0    0  0.74458198354E+02  0.78829985383E+02 -0.14342323835E+03  0.19676348750E+03  0.79921554158E+02 0.  0.
         -6    2    1    2    0  501 -0.21679181625E+02 -0.93002493997E+02 -0.28840993519E+03  0.34932890709E+03  0.17242663313E+03 0.  0.
        -24    2    5    5    0    0  0.11864005780E+02 -0.10229455265E+03 -0.11698444764E+03  0.17434240602E+03  0.78134393284E+02 0.  0.
          5    1    3    3  502    0 -0.52779016729E+02  0.14172508614E+02 -0.96091817957E+02  0.11064453030E+03  0.47000000000E+01 0. -1.
        -11    1    4    4    0    0  0.43369107254E+02  0.74255266212E+02 -0.14111900315E+03  0.16525524825E+03  0.00000000000E+00 0.  1.
         12    1    4    4    0    0  0.31089091100E+02  0.45747191709E+01 -0.23042351949E+01  0.31508239252E+02  0.00000000000E+00 0. -1.
         -5    1    5    5    0  501 -0.33543187405E+02  0.92920586544E+01 -0.17142548755E+03  0.17498650107E+03  0.47000000000E+01 0.  1.
         11    1    6    6    0    0 -0.24749141348E+02 -0.16020534141E+02 -0.78917427121E+01  0.30519782350E+02  0.00000000000E+00 0. -1.
        -12    1    6    6    0    0  0.36613147128E+02 -0.86274018510E+02 -0.10909270493E+03  0.14382262367E+03  0.00000000000E+00 0.  1.
</event>
<event>
12    1  0.2685360E-002  0.2009184E+03  0.7818608E-02  0.1148966E+00
          1   -1    0    0  502    0  0.00000000000E+00  0.00000000000E+00  0.15480674938E+04  0.15480674938E+04  0.00000000000E+00 0.  1.
         -1   -1    0    0    0  501 -0.00000000000E+00 -0.00000000000E+00 -0.35831402858E+02  0.35831402858E+02  0.00000000000E+00 0. -1.
          6    2    1    2  502    0  0.60659947799E+02  0.82696360467E+02  0.11709076777E+04  0.11881184326E+04  0.17344250611E+03 0.  0.
         24    2    3    3    0    0 -0.29210960612E+02  0.18657734928E+02  0.65364499188E+03  0.65919452326E+03  0.78001620516E+02 0.  0.
         -6    2    1    2    0  501 -0.60659947799E+02 -0.82696360467E+02  0.34132841329E+03  0.39578046409E+03  0.17210105384E+03 0.  0.
        -24    2    5    5    0    0  0.26900992069E+02 -0.40303199188E+02  0.10182158055E+03  0.13722735302E+03  0.78202946954E+02 0.  0.
          5    1    3    3  502    0  0.89870908411E+02  0.64038625539E+02  0.51726268583E+03  0.52892390936E+03  0.47000000000E+01 0. -1.
        -11    1    4    4    0    0  0.94847973644E+01  0.37303076313E+02  0.40902359028E+03  0.41083059561E+03  0.00000000000E+00 0.  1.
         12    1    4    4    0    0 -0.38695757976E+02 -0.18645341385E+02  0.24462140159E+03  0.24836392765E+03  0.00000000000E+00 0. -1.
         -5    1    5    5    0  501 -0.87560939868E+02 -0.42393161279E+02  0.23950683274E+03  0.25855311107E+03  0.47000000000E+01 0.  1.
         11    1    6    6    0    0 -0.21902445965E+02  0.62344082241E+01  0.14898506138E+02  0.27213056982E+02  0.00000000000E+00 0. -1.
        -12    1    6    6    0    0  0.48803438035E+02 -0.46537607412E+02  0.86923074408E+02  0.11001429604E+03  0.00000000000E+00 0.  1.
</event>
<event>
12    1  0.2685360E-002  0.1875423E+03  0.7818608E-02  0.1160697E+00
         -2   -1    0    0    0  501 -0.00000000000E+00  0.00000000000E+00  0.21282665576E+02  0.21282665576E+02  0.00000000000E+00 0. -1.
          2   -1    0    0  502    0  0.00000000000E+00 -0.00000000000E+00 -0.28494844972E+04  0.28494844972E+04  0.00000000000E+00 0.  1.
          6    2    1    2  502    0  0.17228820605E+02 -0.65635898230E+02 -0.23576154227E+04  0.23653116148E+04  0.17816747907E+03 0.  0.
         24    2    3    3    0    0 -0.21859887347E+02 -0.21680945508E+02 -0.20679201403E+04  0.20696675525E+04  0.79260034973E+02 0.  0.
         -6    2    1    2    0  501 -0.17228820605E+02  0.65635898230E+02 -0.47058640897E+03  0.50545554797E+03  0.17154835841E+03 0.  0.
        -24    2    5    5    0    0  0.48160706216E+02  0.59030790476E+02 -0.21521491271E+03  0.24172062657E+03  0.79418604923E+02 0.  0.
          5    1    3    3  502    0  0.39088707952E+02 -0.43954952722E+02 -0.28969528241E+03  0.29564406236E+03  0.47000000000E+01 0. -1.
        -11    1    4    4    0    0  0.14977566076E+02 -0.16355650431E+02 -0.16349839730E+04  0.16351343757E+04  0.00000000000E+00 0.  1.
         12    1    4    4    0    0 -0.36837453423E+02 -0.53252950769E+01 -0.43293616729E+03  0.43453317674E+03  0.00000000000E+00 0. -1.
         -5    1    5    5    0  501 -0.65389526820E+02  0.66051077543E+01 -0.25537149625E+03  0.26373492140E+03  0.47000000000E+01 0.  1.
         11    1    6    6    0    0  0.48007758921E+02  0.42981522419E+02 -0.68178359364E+02  0.93810686340E+02  0.00000000000E+00 0. -1.
        -12    1    6    6    0    0  0.15294729492E+00  0.16049268057E+02 -0.14703655335E+03  0.14790994023E+03  0.00000000000E+00 0.  1.
</event>
<event>
12    1  0.2685360E-002  0.2023620E+03  0.7818608E-02  0.1147761E+00
         -2   -1    0    0    0  501 -0.00000000000E+00  0.00000000000E+00  0.22599322397E+02  0.22599322397E+02  0.00000000000E+00 0.  1.
          2   -1    0    0  502    0  0.00000000000E+00 -0.00000000000E+00 -0.18631659922E+04  0.18631659922E+04  0.00000000000E+00 0. -1.
          6    2    1    2  502    0  0.10401006448E+03 -0.15218322705E+02 -0.75721354290E+03  0.78338063049E+03  0.17106481762E+03 0.  0.
         24    2    3    3    0    0  0.68019021060E+02  0.17408005960E+02 -0.22426628744E+03  0.24820337048E+03  0.79874398536E+02 0.  0.
         -6    2    1    2    0  501 -0.10401006448E+03  0.15218322705E+02 -0.10833531269E+04  0.11023846841E+04  0.17478072922E+03 0.  0.
        -24    2    5    5    0    0 -0.11343250730E+03  0.42496427580E+02 -0.56722039056E+03  0.58542436748E+03  0.79434491908E+02 0.  0.
          5    1    3    3  502    0  0.35991043421E+02 -0.32626328665E+02 -0.53294725546E+03  0.53517726001E+03  0.47000000000E+01 0. -1.
        -11    1    4    4    0    0  0.21263085120E+01  0.27559671175E+02 -0.22293661523E+02  0.35511463040E+02  0.00000000000E+00 0.  1.
         12    1    4    4    0    0  0.65892712548E+02 -0.10151665215E+02 -0.20197262591E+03  0.21269190744E+03  0.00000000000E+00 0. -1.
         -5    1    5    5    0  501  0.94224428163E+01 -0.27278104875E+02 -0.51613273631E+03  0.51696031658E+03  0.47000000000E+01 0.  1.
         11    1    6    6    0    0 -0.31094738326E+02  0.33985869693E+02 -0.34908776293E+03  0.35211388544E+03  0.00000000000E+00 0. -1.
        -12    1    6    6    0    0 -0.82337768971E+02  0.85105578871E+01 -0.21813262763E+03  0.23331048204E+03  0.00000000000E+00 0.  1.
</event>
<event>
12    1  0.2685360E-002  0.2211226E+03  0.7818608E-02  0.1133049E+00
         -2   -1    0    0    0  501 -0.00000000000E+00  0.00000000000E+00  0.26981605145E+02  0.26981605145E+02  0.00000000000E+00 0.  1.
          2   -1    0    0  502    0  0.00000000000E+00 -0.00000000000E+00 -0.20922339264E+04  0.20922339264E+04  0.00000000000E+00 0. -1.
          6    2    1    2  502    0  0.13871752843E+03 -0.17160755509E+02 -0.64871711137E+03  0.68566758401E+03  0.17253724510E+03 0.  0.
         24    2    3    3    0    0  0.14227723694E+03  0.28344390548E+02 -0.41324904663E+03  0.44577033651E+03  0.83007239109E+02 0.  0.
         -6    2    1    2    0  501 -0.13871752843E+03  0.17160755509E+02 -0.14165352099E+04  0.14335479475E+04  0.17014897246E+03 0.  0.
        -24    2    5    5    0    0 -0.44935132824E+01  0.19610802987E+02 -0.43896579528E+03  0.44679258812E+03  0.80795248105E+02 0.  0.
          5    1    3    3  502    0 -0.35597085108E+01 -0.45505146057E+02 -0.23546806474E+03  0.23989724749E+03  0.47000000000E+01 0. -1.
        -11    1    4    4    0    0  0.39778242824E+02 -0.23687375685E+02 -0.17824603442E+03  0.18416038976E+03  0.00000000000E+00 0.  1.
         12    1    4    4    0    0  0.10249899412E+03  0.52031766233E+02 -0.23500301221E+03  0.26160994676E+03  0.00000000000E+00 0. -1.
         -5    1    5    5    0  501 -0.13422401515E+03 -0.24500474779E+01 -0.97756941459E+03  0.98675535941E+03  0.47000000000E+01 0.  1.
         11    1    6    6    0    0  0.65132372688E+01  0.68031202567E+01 -0.42436186832E+03  0.42446637085E+03  0.00000000000E+00 0. -1.
        -12    1    6    6    0    0 -0.11006750551E+02  0.12807682730E+02 -0.14603926965E+02  0.22326217266E+02  0.00000000000E+00 0.  1.
</event>
<event>
12    1  0.2685360E-002  0.1764788E+03  0.7818608E-02  0.1171255E+00
          1   -1    0    0  502    0  0.00000000000E+00  0.00000000000E+00  0.84685488792E+03  0.84685488792E+03  0.00000000000E+00 0.  1.
         -1   -1    0    0    0  501 -0.00000000000E+00 -0.00000000000E+00 -0.52062531284E+02  0.52062531284E+02  0.00000000000E+00 0. -1.
          6    2    1    2  502    0 -0.15862848663E+01  0.36810552770E+02  0.64177347489E+03  0.66573673990E+03  0.17313197478E+03 0.  0.
         24    2    3    3    0    0  0.46726883094E+02  0.68469015770E+02  0.35357754958E+03  0.37177177287E+03  0.79534645355E+02 0.  0.
         -6    2    1    2    0  501  0.15862848663E+01 -0.36810552770E+02  0.15301888175E+03  0.23318067930E+03  0.17204917301E+03 0.  0.
        -24    2    5    5    0    0 -0.25536251552E+02 -0.68097881313E+02  0.44399110968E+02  0.11684120400E+03  0.79944757896E+02 0.  0.
          5    1    3    3  502    0 -0.48313167960E+02 -0.31658463000E+02  0.28819592531E+03  0.29396496703E+03  0.47000000000E+01 0. -1.
        -13    1    4    4    0    0  0.46577014297E+02  0.28549691553E+02  0.30013183706E+03  0.30506330944E+03  0.00000000000E+00 0.  1.
         14    1    4    4    0    0  0.14986879648E+00  0.39919324217E+02  0.53445712521E+02  0.66708463433E+02  0.00000000000E+00 0. -1.
         -5    1    5    5    0  501  0.27122536418E+02  0.31287328543E+02  0.10861977078E+03  0.11633947530E+03  0.47000000000E+01 0.  1.
         11    1    6    6    0    0  0.27869997043E+01 -0.53790505431E+02  0.60712559394E+02  0.81161571633E+02  0.00000000000E+00 0. -1.
        -12    1    6    6    0    0 -0.28323251256E+02 -0.14307375883E+02 -0.16313448426E+02  0.35679632368E+02  0.00000000000E+00 0.  1.
</event>
<event>
12    1  0.2685360E-002  0.3221140E+03  0.7818608E-02  0.1074680E+00
         -2   -1    0    0    0  501 -0.00000000000E+00  0.00000000000E+00  0.10398352466E+03  0.10398352466E+03  0.00000000000E+00 0.  1.
          2   -1    0    0  502    0  0.00000000000E+00 -0.00000000000E+00 -0.10007257663E+04  0.10007257663E+04  0.00000000000E+00 0. -1.
          6    2    1    2  502    0 -0.12125601969E+03 -0.24412878101E+03 -0.41854633564E+03  0.52810676478E+03  0.17150462356E+03 0.  0.
         24    2    3    3    0    0 -0.15257388966E+03 -0.22843268644E+03 -0.36821378648E+03  0.46660366023E+03  0.81714742554E+02 0.  0.
         -6    2    1    2    0  501  0.12125601969E+03  0.24412878101E+03 -0.47819590601E+03  0.57660252619E+03  0.17174767729E+03 0.  0.
        -24    2    5    5    0    0  0.11412323794E+03  0.19107956413E+03 -0.46726467884E+03  0.52176934541E+03  0.66116990682E+02 0.  0.
          5    1    3    3  502    0  0.31317869968E+02 -0.15696094569E+02 -0.50332549160E+02  0.61503104548E+02  0.47000000000E+01 0. -1.
        -13    1    4    4    0    0 -0.15556620918E+02  0.24031496556E+01 -0.88801712365E+01  0.18073212881E+02  0.00000000000E+00 0.  1.
         14    1    4    4    0    0 -0.13701726874E+03 -0.23083583610E+03 -0.35933361524E+03  0.44853044735E+03  0.00000000000E+00 0. -1.
         -5    1    5    5    0  501  0.71327817525E+01  0.53049216879E+02 -0.10931227180E+02  0.54833180782E+02  0.47000000000E+01 0.  1.
         13    1    6    6    0    0 -0.66443139479E+01  0.25048080367E+02 -0.68878912068E+02  0.73592511613E+02  0.00000000000E+00 0. -1.
        -14    1    6    6    0    0  0.12076755188E+03  0.16603148376E+03 -0.39838576677E+03  0.44817683380E+03  0.00000000000E+00 0.  1.
</event>
<event>
12    1  0.2685360E-002  0.2178195E+03  0.7818608E-02  0.1135519E+00
          2   -1    0    0  502    0  0.00000000000E+00  0.00000000000E+00  0.14625354642E+03  0.14625354642E+03  0.00000000000E+00 0. -1.
         -2   -1    0    0    0  501 -0.00000000000E+00 -0.00000000000E+00 -0.58663412841E+03  0.58663412841E+03  0.00000000000E+00 0.  1.
          6    2    1    2  502    0 -0.10356595018E+03  0.81527684852E+02 -0.46494105408E+03  0.51324761370E+03  0.17285907486E+03 0.  0.
         24    2    3    3    0    0 -0.16355275475E+02  0.32937204246E+02 -0.34751319318E+03  0.35904602777E+03  0.82439530328E+02 0.  0.
         -6    2    1    2    0  501  0.10356595018E+03 -0.81527684852E+02  0.24560472088E+02  0.21964006113E+03  0.17397088903E+03 0.  0.
        -24    2    5    5    0    0  0.15434826958E+02 -0.32204067086E+02  0.65988055914E+02  0.11037776731E+03  0.80953642121E+02 0.  0.
          5    1    3    3  502    0 -0.87210674707E+02  0.48590480606E+02 -0.11742786090E+03  0.15420158593E+03  0.47000000000E+01 0. -1.
        -11    1    4    4    0    0 -0.25527940675E+02 -0.12837350651E+02 -0.24181154156E+03  0.24349393207E+03  0.00000000000E+00 0.  1.
         12    1    4    4    0    0  0.91726652000E+01  0.45774554896E+02 -0.10570165163E+03  0.11555209569E+03  0.00000000000E+00 0. -1.
         -5    1    5    5    0  501  0.88131123223E+02 -0.49323617766E+02 -0.41427583826E+02  0.10926229382E+03  0.47000000000E+01 0.  1.
         11    1    6    6    0    0 -0.79828402320E+01  0.23214619631E+02  0.34866532011E+02  0.42641756029E+02  0.00000000000E+00 0. -1.
        -12    1    6    6    0    0  0.23417667190E+02 -0.55418686716E+02  0.31121523903E+02  0.67736011279E+02  0.00000000000E+00 0.  1.
</event>
<event>
12    1  0.2685360E-002  0.2065911E+03  0.7818608E-02  0.1144294E+00
         -2   -1    0    0    0  501 -0.00000000000E+00  0.00000000000E+00  0.39548068217E+02  0.39548068217E+02  0.00000000000E+00 0. -1.
          2   -1    0    0  502    0  0.00000000000E+00 -0.00000000000E+00 -0.18072602763E+04  0.18072602763E+04  0.00000000000E+00 0.  1.
          6    2    1    2  502    0 -0.11690633706E+03  0.10148509343E+02 -0.14665401753E+04  0.14808362196E+04  0.16842131550E+03 0.  0.
         24    2    3    3    0    0 -0.14086721502E+03 -0.20909016003E+02 -0.10670027039E+04  0.10793502614E+04  0.78876215853E+02 0.  0.
         -6    2    1    2    0  501  0.11690633706E+03 -0.10148509343E+02 -0.30117203282E+03  0.36597212499E+03  0.17164183356E+03 0.  0.
        -24    2    5    5    0    0  0.63957470260E+02  0.41098330603E+01 -0.59512440832E+02  0.11812472996E+03  0.79399448892E+02 0.  0.
          5    1    3    3  502    0  0.23960877958E+02  0.31057525346E+02 -0.39953747135E+03  0.40148595812E+03  0.47000000000E+01 0. -1.
        -11    1    4    4    0    0 -0.61607713560E+02  0.13322110437E+02 -0.25101433839E+03  0.25880723923E+03  0.00000000000E+00 0.  1.
         12    1    4    4    0    0 -0.79259501459E+02 -0.34231126440E+02 -0.81598836555E+03  0.82054302221E+03  0.00000000000E+00 0. -1.
         -5    1    5    5    0  501  0.52948866800E+02 -0.14258342404E+02 -0.24165959198E+03  0.24784739503E+03  0.47000000000E+01 0.  1.
         11    1    6    6    0    0 -0.81637432591E+01  0.23517677745E+02 -0.43412311611E+01  0.25270024902E+02  0.00000000000E+00 0. -1.
        -12    1    6    6    0    0  0.72121213519E+02 -0.19407844685E+02 -0.55171209671E+02  0.92854705058E+02  0.00000000000E+00 0.  1.
</event>
<event>
12    1  0.2685360E-002  0.1755256E+03  0.7818608E-02  0.1172205E+00
          1   -1    0    0  502    0  0.00000000000E+00  0.00000000000E+00  0.14914464767E+03  0.14914464767E+03  0.00000000000E+00 0.  1.
         -1   -1    0    0    0  501 -0.00000000000E+00 -0.00000000000E+00 -0.28601407612E+03  0.28601407612E+03  0.00000000000E+00 0. -1.
          6    2    1    2  502    0  0.63405966235E+02 -0.14206194865E+02  0.48051877675E+02  0.17466378839E+03  0.15484289941E+03 0.  0.
         24    2    3    3    0    0  0.87474501414E+02  0.10180742847E+02  0.65254009492E+02  0.13603710777E+03  0.80576504097E+02 0.  0.
         -6    2    1    2    0  501 -0.63405966235E+02  0.14206194865E+02 -0.18492130613E+03  0.26049493540E+03  0.17157968814E+03 0.  0.
        -24    2    5    5    0    0 -0.55915870674E+02 -0.33842383929E+02 -0.32545817769E+02  0.10047885212E+03  0.69028095192E+02 0.  0.
          5    1    3    3  502    0 -0.24068535178E+02 -0.24386937712E+02 -0.17202131817E+02  0.38626680619E+02  0.47000000000E+01 0. -1.
        -13    1    4    4    0    0  0.81166795517E+01 -0.23255773843E+02  0.38787291323E+02  0.45947420734E+02  0.00000000000E+00 0.  1.
         14    1    4    4    0    0  0.79357821862E+02  0.33436516690E+02  0.26466718169E+02  0.90089687033E+02  0.00000000000E+00 0. -1.
         -5    1    5    5    0  501 -0.74900955611E+01  0.48048578795E+02 -0.15237548836E+03  0.16001608328E+03  0.47000000000E+01 0.  1.
         11    1    6    6    0    0 -0.74286282408E+01 -0.40337721046E+02 -0.31210290466E+02  0.51540260843E+02  0.00000000000E+00 0. -1.
        -12    1    6    6    0    0 -0.48487242433E+02  0.64953371171E+01 -0.13355273029E+01  0.48938591278E+02  0.00000000000E+00 0.  1.
</event>
<event>
12    1  0.2685360E-002  0.1838116E+03  0.7818608E-02  0.1164164E+00
         -2   -1    0    0    0  501 -0.00000000000E+00  0.00000000000E+00  0.14277367639E+04  0.14277367639E+04  0.00000000000E+00 0. -1.
          2   -1    0    0  502    0  0.00000000000E+00 -0.00000000000E+00 -0.36175622422E+02  0.36175622422E+02  0.00000000000E+00 0.  1.
          6    2    1    2  502    0 -0.60770972905E+01 -0.65735933339E+02  0.26489818772E+03  0.32232572959E+03  0.17136126182E+03 0.  0.
         24    2    3    3    0    0  0.99109114096E-01 -0.43947167474E+02  0.40371480290E+02  0.96610802761E+02  0.75976492665E+02 0.  0.
         -6    2    1    2    0  501  0.60770972905E+01  0.65735933339E+02  0.11266629537E+04  0.11415866567E+04  0.17173392041E+03 0.  0.
        -24    2    5    5    0    0  0.44206121513E+02  0.10252650506E+03  0.83185993607E+03  0.84202317783E+03  0.67425613402E+02 0.  0.
          5    1    3    3  502    0 -0.61762064046E+01 -0.21788765865E+02  0.22452670743E+03  0.22571492682E+03  0.47000000000E+01 0. -1.
        -13    1    4    4    0    0  0.17666051941E+02 -0.48305950319E+02 -0.10092711381E+01  0.51444852567E+02  0.00000000000E+00 0.  1.
         14    1    4    4    0    0 -0.17566942827E+02  0.43587828452E+01  0.41380751428E+02  0.45165950194E+02  0.00000000000E+00 0. -1.
         -5    1    5    5    0  501 -0.38129024222E+02 -0.36790571722E+02  0.29480301766E+03  0.29956347888E+03  0.47000000000E+01 0.  1.
         11    1    6    6    0    0  0.16964932830E+02  0.43735363619E+01  0.29909606851E+03  0.29960873646E+03  0.00000000000E+00 0. -1.
        -12    1    6    6    0    0  0.27241188683E+02  0.98152968699E+02  0.53276386755E+03  0.54241444136E+03  0.00000000000E+00 0.  1.
</event>
<event>
12    1  0.2685360E-002  0.2018255E+03  0.7818608E-02  0.1148208E+00
          2   -1    0    0  502    0  0.00000000000E+00  0.00000000000E+00  0.13523317906E+04  0.13523317906E+04  0.00000000000E+00 0. -1.
         -2   -1    0    0    0  501 -0.00000000000E+00 -0.00000000000E+00 -0.30775055404E+02  0.30775055404E+02  0.00000000000E+00 0.  1.
          6    2    1    2  502    0  0.10491845781E+03 -0.22712320619E+01  0.55896507636E+03  0.59417989686E+03  0.17203125285E+03 0.  0.
         24    2    3    3    0    0  0.19794611833E+02  0.18250385871E+02  0.12034345100E+03  0.14687885037E+03  0.79786886427E+02 0.  0.
         -6    2    1    2    0  501 -0.10491845781E+03  0.22712320619E+01  0.76259165883E+03  0.78892694914E+03  0.17276183513E+03 0.  0.
        -24    2    5    5    0    0 -0.11402821652E+03 -0.39113198617E+02  0.69133747145E+03  0.70589136625E+03  0.76176407437E+02 0.  0.
          5    1    3    3  502    0  0.85123845973E+02 -0.20521617933E+02  0.43862162536E+03  0.44730104649E+03  0.47000000000E+01 0. -1.
        -11    1    4    4    0    0  0.37021329657E+02  0.36705891785E+02  0.10527831360E+03  0.11747946482E+03  0.00000000000E+00 0.  1.
         12    1    4    4    0    0 -0.17226717824E+02 -0.18455505915E+02  0.15065137399E+02  0.29399385544E+02  0.00000000000E+00 0. -1.
         -5    1    5    5    0  501  0.91097587102E+01  0.41384430679E+02  0.71254187387E+02  0.83035582894E+02  0.47000000000E+01 0.  1.
         11    1    6    6    0    0 -0.37161615624E+00  0.15240652925E+02  0.49050603704E+02  0.51365137242E+02  0.00000000000E+00 0. -1.
        -12    1    6    6    0    0 -0.11365660036E+03 -0.54353851542E+02  0.64228686774E+03  0.65452622901E+03  0.00000000000E+00 0.  1.
</event>
<event>
12    1  0.2685360E-002  0.2073508E+03  0.7818608E-02  0.1143681E+00
         -1   -1    0    0    0  501 -0.00000000000E+00  0.00000000000E+00  0.13094980188E+04  0.13094980188E+04  0.00000000000E+00 0. -1.
          1   -1    0    0  502    0  0.00000000000E+00 -0.00000000000E+00 -0.41875617398E+02  0.41875617398E+02  0.00000000000E+00 0.  1.
          6    2    1    2  502    0 -0.11127257782E+03 -0.33254681699E+02  0.32071770003E+03  0.38211209284E+03  0.17222760508E+03 0.  0.
         24    2    3    3    0    0 -0.10799325078E+03  0.34374225441E+02  0.19188398323E+03  0.23649396329E+03  0.79156819459E+02 0.  0.
         -6    2    1    2    0  501  0.11127257782E+03  0.33254681699E+02  0.94690470139E+03  0.96926154338E+03  0.17132415337E+03 0.  0.
        -24    2    5    5    0    0  0.14555458958E+03  0.13191631870E+02  0.75987518703E+03  0.77800278792E+03  0.80733391135E+02 0.  0.
          5    1    3    3  502    0 -0.32793270426E+01 -0.67628907140E+02  0.12883371680E+03  0.14561812954E+03  0.47000000000E+01 0. -1.
        -13    1    4    4    0    0 -0.48414924486E+02  0.53065127225E+02  0.13032441016E+03  0.14880982670E+03  0.00000000000E+00 0.  1.
         14    1    4    4    0    0 -0.59578326290E+02 -0.18690901784E+02  0.61559573071E+02  0.87684136591E+02  0.00000000000E+00 0. -1.
         -5    1    5    5    0  501 -0.34282011759E+02  0.20063049829E+02  0.18702951436E+03  0.19125875546E+03  0.47000000000E+01 0.  1.
         11    1    6    6    0    0  0.77957706128E+01 -0.38863229687E+01  0.23254596802E+03  0.23270905609E+03  0.00000000000E+00 0. -1.
        -12    1    6    6    0    0  0.13775881897E+03  0.17077954839E+02  0.52732921901E+03  0.54529373182E+03  0.00000000000E+00 0.  1.
</event>
<event>
12    1  0.2685360E-002  0.1766736E+03  0.7818608E-02  0.1171062E+00
         -1   -1    0    0    0  501 -0.00000000000E+00  0.00000000000E+00  0.35676972315E+02  0.35676972315E+02  0.00000000000E+00 0.  1.
          1   -1    0    0  502    0  0.00000000000E+00 -0.00000000000E+00 -0.88947252805E+03  0.88947252805E+03  0.00000000000E+00 0. -1.
          6    2    1    2  502    0 -0.39164581844E+02  0.19908114186E+02 -0.48339751040E+03  0.51429118307E+03  0.16997667617E+03 0.  0.
         24    2    3    3    0    0 -0.71044834764E+01 -0.50683281093E+02 -0.20275757977E+03  0.22310077173E+03  0.77743485403E+02 0.  0.
         -6    2    1    2    0  501  0.39164581844E+02 -0.19908114186E+02 -0.37039804534E+03  0.41085831730E+03  0.17227782046E+03 0.  0.
        -24    2    5    5    0    0  0.51505846467E+02 -0.69036137411E+02 -0.17567249396E+03  0.20959729316E+03  0.75175525783E+02 0.  0.
          5    1    3    3  502    0 -0.32060098367E+02  0.70591395279E+02 -0.28063993063E+03  0.29119041134E+03  0.47000000000E+01 0. -1.
        -13    1    4    4    0    0  0.12585328411E+01 -0.76337119540E+01  0.59974395111E+01  0.97891135348E+01  0.00000000000E+00 0.  1.
         14    1    4    4    0    0 -0.83630163174E+01 -0.43049569139E+02 -0.20875501928E+03  0.21331165819E+03  0.00000000000E+00 0. -1.
         -5    1    5    5    0  501 -0.12341264623E+02  0.49128023225E+02 -0.19472555137E+03  0.20126102414E+03  0.47000000000E+01 0.  1.
         11    1    6    6    0    0  0.40869613965E+02 -0.14100714588E+02 -0.13114324871E+03  0.13808586886E+03  0.00000000000E+00 0. -1.
        -12    1    6    6    0    0  0.10636232502E+02 -0.54935422823E+02 -0.44529245256E+02  0.71511424301E+02  0.00000000000E+00 0.  1.
</event>
<event>
12    1  0.2685360E-002  0.1974084E+03  0.7818608E-02  0.1151944E+00
          2   -1    0    0  502    0  0.00000000000E+00  0.00000000000E+00  0.17435997193E+03  0.17435997193E+03  0.00000000000E+00 0. -1.
         -2   -1    0    0    0  501 -0.00000000000E+00 -0.00000000000E+00 -0.29174851638E+03  0.29174851638E+03  0.00000000000E+00 0.  1.
          6    2    1    2  502    0 -0.94457971027E+01  0.96934716149E+02  0.53969779484E+02  0.20487432854E+03  0.17197439088E+03 0.  0.
         24    2    3    3    0    0  0.58217654832E+02  0.49410728256E+02  0.13657071706E+02  0.11276528142E+03  0.81846060903E+02 0.  0.
         -6    2    1    2    0  501  0.94457971027E+01 -0.96934716149E+02 -0.17135832393E+03  0.26123415977E+03  0.17144692699E+03 0.  0.
        -24    2    5    5    0    0  0.53434102484E+02 -0.10337401805E+03 -0.16319466611E+03  0.21579000802E+03  0.79946467093E+02 0.  0.
          5    1    3    3  502    0 -0.67663451935E+02  0.47523987893E+02  0.40312707778E+02  0.92109047120E+02  0.47000000000E+01 0. -1.
        -11    1    4    4    0    0  0.24730483267E+02 -0.10157422419E+02  0.32302954884E+02  0.41931502800E+02  0.00000000000E+00 0.  1.
         12    1    4    4    0    0  0.33487171565E+02  0.59568150675E+02 -0.18645883177E+02  0.70833778621E+02  0.00000000000E+00 0. -1.
         -5    1    5    5    0  501 -0.43988305381E+02  0.64393019030E+01 -0.81636578293E+01  0.45444151752E+02  0.47000000000E+01 0.  1.
         13    1    6    6    0    0 -0.11466013366E+02  0.39783956823E+01 -0.32226715971E+02  0.34436293601E+02  0.00000000000E+00 0. -1.
        -14    1    6    6    0    0  0.64900115850E+02 -0.10735241373E+03 -0.13096795013E+03  0.18135371442E+03  0.00000000000E+00 0.  1.
</event>
<event>
12    1  0.2685360E-002  0.1899349E+03  0.7818608E-02  0.1158520E+00
          2   -1    0    0  502    0  0.00000000000E+00  0.00000000000E+00  0.11994894312E+04  0.11994894312E+04  0.00000000000E+00 0.  1.
         -2   -1    0    0    0  501 -0.00000000000E+00 -0.00000000000E+00 -0.31522958897E+02  0.31522958897E+02  0.00000000000E+00 0. -1.
          6    2    1    2  502    0 -0.36646132620E+02 -0.71098656377E+02  0.44885930212E+03  0.48695735481E+03  0.17104044649E+03 0.  0.
         24    2    3    3    0    0 -0.40965984934E+01 -0.10521434797E+01  0.35690221184E+03  0.36677340167E+03  0.84413566627E+02 0.  0.
         -6    2    1    2    0  501  0.36646132620E+02  0.71098656377E+02  0.71910717021E+03  0.74405503531E+03  0.17350739276E+03 0.  0.
        -24    2    5    5    0    0  0.83920836425E+02  0.73060757453E+02  0.62643564457E+03  0.63989722655E+03  0.68310048271E+02 0.  0.
          5    1    3    3  502    0 -0.32549534127E+02 -0.70046512897E+02  0.91957090273E+02  0.12018395314E+03  0.47000000000E+01 0. -1.
        -13    1    4    4    0    0  0.37043046149E+01 -0.42163843075E+02  0.16283954088E+03  0.16825049067E+03  0.00000000000E+00 0.  1.
         14    1    4    4    0    0 -0.78009031083E+01  0.41111699595E+02  0.19406267096E+03  0.19852291101E+03  0.00000000000E+00 0. -1.
         -5    1    5    5    0  501 -0.47274703805E+02 -0.19621010756E+01  0.92671525647E+02  0.10415780876E+03  0.47000000000E+01 0.  1.
         13    1    6    6    0    0  0.75921948553E+02  0.86269253253E+02  0.53996442041E+03  0.55205806002E+03  0.00000000000E+00 0. -1.
        -14    1    6    6    0    0  0.79988878720E+01 -0.13208495800E+02  0.86471224158E+02  0.87839166525E+02  0.00000000000E+00 0.  1.
</event>
<event>
12    1  0.2685360E-002  0.2700431E+03  0.7818608E-02  0.1101255E+00
          2   -1    0    0  502    0  0.00000000000E+00  0.00000000000E+00  0.10118876920E+04  0.10118876920E+04  0.00000000000E+00 0.  1.
         -2   -1    0    0    0  501 -0.00000000000E+00 -0.00000000000E+00 -0.72143954035E+02  0.72143954035E+02  0.00000000000E+00 0. -1.
          6    2    1    2  502    0  0.12283452278E+03 -0.17279611274E+03  0.49256517074E+03  0.56361739607E+03  0.17348574915E+03 0.  0.
         24    2    3    3    0    0  0.37522199063E+02 -0.13495019804E+03  0.20562472768E+03  0.26184361706E+03  0.81615438392E+02 0.  0.
         -6    2    1    2    0  501 -0.12283452278E+03  0.17279611274E+03  0.44717856727E+03  0.52041425001E+03  0.16098293085E+03 0.  0.
        -24    2    5    5    0    0 -0.27022606240E+01  0.76416673553E+02  0.16153075072E+03  0.19585682550E+03  0.80130533856E+02 0.  0.
          5    1    3    3  502    0  0.85312323716E+02 -0.37845914700E+02  0.28694044306E+03  0.30177377901E+03  0.47000000000E+01 0. -1.
        -13    1    4    4    0    0 -0.15372529817E+02  0.14798347436E+00  0.10195075169E+02  0.18446575015E+02  0.00000000000E+00 0.  1.
         14    1    4    4    0    0  0.52894728879E+02 -0.13509818152E+03  0.19542965251E+03  0.24339704204E+03  0.00000000000E+00 0. -1.
         -5    1    5    5    0  501 -0.12013226215E+03  0.96379439189E+02  0.28564781655E+03  0.32455742451E+03  0.47000000000E+01 0.  1.
         11    1    6    6    0    0 -0.25670322300E+02  0.12276217817E+02  0.10783855640E+02  0.30429632159E+02  0.00000000000E+00 0. -1.
        -12    1    6    6    0    0  0.22968061676E+02  0.64140455736E+02  0.15074689508E+03  0.16542719334E+03  0.00000000000E+00 0.  1.
</event>
<event>
12    1  0.2685360E-002  0.1856036E+03  0.7818608E-02  0.1162487E+00
         -2   -1    0    0    0  501 -0.00000000000E+00  0.00000000000E+00  0.48673876414E+02  0.48673876414E+02  0.00000000000E+00 0. -1.
          2   -1    0    0  502    0  0.00000000000E+00 -0.00000000000E+00 -0.12583624279E+04  0.12583624279E+04  0.00000000000E+00 0.  1.
          6    2    1    2  502    0  0.71348355135E+02 -0.43655788068E+01 -0.17470564140E+03  0.25574777148E+03  0.17255496348E+03 0.  0.
         24    2    3    3    0    0  0.10459145547E+03  0.20918565630E+02 -0.88651549631E+02  0.15997831711E+03  0.79730833121E+02 0.  0.
         -6    2    1    2    0  501 -0.71348355135E+02  0.43655788068E+01 -0.10349829100E+04  0.10512885328E+04  0.17002443659E+03 0.  0.
        -24    2    5    5    0    0 -0.64995430662E+02 -0.59989634988E+02 -0.72084558483E+03  0.73052958547E+03  0.78942737287E+02 0.  0.
          5    1    3    3  502    0 -0.33243100330E+02 -0.25284144437E+02 -0.86054091766E+02  0.95769454364E+02  0.47000000000E+01 0. -1.
        -11    1    4    4    0    0  0.77351496226E+01 -0.20671108933E+02  0.27053307381E+00  0.22072618158E+02  0.00000000000E+00 0.  1.
         12    1    4    4    0    0  0.96856305843E+02  0.41589674563E+02 -0.88922082705E+02  0.13790569896E+03  0.00000000000E+00 0. -1.
         -5    1    5    5    0  501 -0.63529244734E+01  0.64355213794E+02 -0.31413732521E+03  0.32075894732E+03  0.47000000000E+01 0.  1.
         11    1    6    6    0    0 -0.41610343516E+02 -0.19403188165E+02 -0.13072710016E+03  0.13855496785E+03  0.00000000000E+00 0. -1.
        -12    1    6    6    0    0 -0.23385087146E+02 -0.40586446822E+02 -0.59011848467E+03  0.59197461762E+03  0.00000000000E+00 0.  1.
</event>
<event>
12    1  0.2685360E-002  0.3345783E+03  0.7818608E-02  0.1069129E+00
          2   -1    0    0  502    0  0.00000000000E+00  0.00000000000E+00  0.16697893611E+04  0.16697893611E+04  0.00000000000E+00 0.  1.
         -2   -1    0    0    0  501 -0.00000000000E+00 -0.00000000000E+00 -0.82358160907E+02  0.82358160907E+02  0.00000000000E+00 0. -1.
          6    2    1    2  502    0 -0.29386278667E+02  0.28653222242E+03  0.41786542677E+03  0.53594545173E+03  0.17222585311E+03 0.  0.
         24    2    3    3    0    0 -0.22973434043E+02  0.18943665200E+03  0.37730055777E+03  0.43041691072E+03  0.80554219921E+02 0.  0.
         -6    2    1    2    0  501  0.29386278667E+02 -0.28653222242E+03  0.11695657735E+04  0.12162020703E+04  0.16822339174E+03 0.  0.
        -24    2    5    5    0    0 -0.12160715448E+02 -0.24446589455E+03  0.76096797482E+03  0.80332196700E+03  0.79639609263E+02 0.  0.
          5    1    3    3  502    0 -0.64128446249E+01  0.97095570415E+02  0.40564869002E+02  0.10552854101E+03  0.47000000000E+01 0. -1.
        -11    1    4    4    0    0  0.11909237057E+02  0.55980348678E+01  0.56542183313E+01  0.14322643143E+02  0.00000000000E+00 0.  1.
         12    1    4    4    0    0 -0.34882671099E+02  0.18383861714E+03  0.37164633944E+03  0.41609426758E+03  0.00000000000E+00 0. -1.
         -5    1    5    5    0  501  0.41546994115E+02 -0.42066327872E+02  0.40859779863E+03  0.41288010331E+03  0.47000000000E+01 0.  1.
         13    1    6    6    0    0 -0.43840838432E+01  0.56001601442E+01  0.17641473733E+02  0.19021135094E+02  0.00000000000E+00 0. -1.
        -14    1    6    6    0    0 -0.77766316048E+01 -0.25006605469E+03  0.74332650109E+03  0.78430083190E+03  0.00000000000E+00 0.  1.
</event>
<event>
12    1  0.2685360E-002  0.2117952E+03  0.7818608E-02  0.1140152E+00
         -2   -1    0    0    0  501 -0.00000000000E+00  0.00000000000E+00  0.62224026941E+02  0.62224026941E+02  0.00000000000E+00 0. -1.
          2   -1    0    0  502    0  0.00000000000E+00 -0.00000000000E+00 -0.72247786470E+03  0.72247786470E+03  0.00000000000E+00 0.  1.
          6    2    1    2  502    0  0.12263752775E+03  0.31924883722E+02 -0.34660347464E+03  0.40560722490E+03  0.16829762580E+03 0.  0.
         24    2    3    3    0    0  0.26652494232E+02 -0.78258304000E+01 -0.68358077601E+02  0.10856204837E+03  0.79632232806E+02 0.  0.
         -6    2    1    2    0  501 -0.12263752775E+03 -0.31924883722E+02 -0.31365036313E+03  0.37909466674E+03  0.17110539047E+03 0.  0.
        -24    2    5    5    0    0 -0.24679773476E+02 -0.63975476910E+02 -0.14738838321E+03  0.18342121910E+03  0.84959138686E+02 0.  0.
          5    1    3    3  502    0  0.95985033518E+02  0.39750714122E+02 -0.27824539704E+03  0.29704517654E+03  0.47000000000E+01 0. -1.
        -11    1    4    4    0    0  0.20302321944E+01  0.74896337421E+01 -0.77708399539E+02  0.78094889815E+02  0.00000000000E+00 0.  1.
         12    1    4    4    0    0  0.24622262038E+02 -0.15315464142E+02  0.93503219382E+01  0.30467158550E+02  0.00000000000E+00 0. -1.
         -5    1    5    5    0  501 -0.97957754275E+02  0.32050593188E+02 -0.16626197991E+03  0.19567344764E+03  0.47000000000E+01 0.  1.
         11    1    6    6    0    0 -0.54665812833E+02 -0.26890861995E+02 -0.73321269130E+02  0.95328264741E+02  0.00000000000E+00 0. -1.
        -12    1    6    6    0    0  0.29986039358E+02 -0.37084614915E+02 -0.74067114083E+02  0.88092954362E+02  0.00000000000E+00 0.  1.
</event>
<event>
12    1  0.2685360E-002  0.1994924E+03  0.7818608E-02  0.1150168E+00
         -1   -1    0    0    0  501 -0.00000000000E+00  0.00000000000E+00  0.11086732820E+03  0.11086732820E+03  0.00000000000E+00 0.  1.
          1   -1    0    0  502    0  0.00000000000E+00 -0.00000000000E+00 -0.52524605762E+03  0.52524605762E+03  0.00000000000E+00 0. -1.
          6    2    1    2  502    0 -0.74049765500E+02  0.68592700634E+02 -0.28107768589E+02  0.20128825159E+03  0.17186793541E+03 0.  0.
         24    2    3    3    0    0 -0.11571118366E+03  0.37562024286E+02 -0.29663496405E+02  0.14910504618E+03  0.80946946120E+02 0.  0.
         -6    2    1    2    0  501  0.74049765500E+02 -0.68592700634E+02 -0.38627096083E+03  0.43482513422E+03  0.17227685805E+03 0.  0.
        -24    2    5    5    0    0 -0.11153648933E+02 -0.52434001696E+02 -0.11688171604E+03  0.15178206225E+03  0.80639509290E+02 0.  0.
          5    1    3    3  502    0  0.41661418160E+02  0.31030676348E+02  0.15557278155E+01  0.52183205409E+02  0.47000000000E+01 0. -1.
        -11    1    4    4    0    0 -0.10466688010E+01 -0.80224499557E+00  0.18796887329E+02  0.18843091197E+02  0.00000000000E+00 0.  1.
         12    1    4    4    0    0 -0.11466451486E+03  0.38364269281E+02 -0.48460383734E+02  0.13026195499E+03  0.00000000000E+00 0. -1.
         -5    1    5    5    0  501  0.85203414433E+02 -0.16158698938E+02 -0.26938924479E+03  0.28304307197E+03  0.47000000000E+01 0.  1.
         11    1    6    6    0    0  0.12305910042E+02 -0.54485526324E+02 -0.33488115847E+02  0.65127274653E+02  0.00000000000E+00 0. -1.
        -12    1    6    6    0    0 -0.23459558975E+02  0.20515246278E+01 -0.83393600193E+02  0.86654787599E+02  0.00000000000E+00 0.  1.
</event>
<event>
12    1  0.2685360E-002  0.1772293E+03  0.7818608E-02  0.1170512E+00
          2   -1    0    0  502    0  0.00000000000E+00  0.00000000000E+00  0.29774436360E+04  0.29774436360E+04  0.00000000000E+00 0.  1.
         -2   -1    0    0    0  501 -0.00000000000E+00 -0.00000000000E+00 -0.10765553581E+02  0.10765553581E+02  0.00000000000E+00 0. -1.
          6    2    1    2  502    0  0.64415086125E+01 -0.43086354531E+02  0.16783636359E+04  0.16874918640E+04  0.16978330250E+03 0.  0.
         24    2    3    3    0    0  0.65323029552E+02 -0.28370870923E+01  0.99185014645E+03  0.99726733661E+03  0.80624316358E+02 0.  0.
         -6    2    1    2    0  501 -0.64415086125E+01  0.43086354531E+02  0.12883144465E+04  0.13007173256E+04  0.17382036979E+03 0.  0.
        -24    2    5    5    0    0  0.33063147097E+02  0.50635994456E+02  0.11922313392E+04  0.11964500326E+04  0.80124518976E+02 0.  0.
          5    1    3    3  502    0 -0.58881520940E+02 -0.40249267439E+02  0.68651348942E+03  0.69022452738E+03  0.47000000000E+01 0. -1.
        -11    1    4    4    0    0  0.20042134104E+02 -0.38644518013E+02  0.53845545482E+03  0.54021233116E+03  0.00000000000E+00 0.  1.
         12    1    4    4    0    0  0.45280895448E+02  0.35807430921E+02  0.45339469163E+03  0.45705500544E+03  0.00000000000E+00 0. -1.
         -5    1    5    5    0  501 -0.39504655709E+02 -0.75496399257E+01  0.96083107292E+02  0.10426729301E+03  0.47000000000E+01 0.  1.
         13    1    6    6    0    0 -0.26239227911E+01  0.37818913104E+02  0.20406620251E+03  0.20755763095E+03  0.00000000000E+00 0. -1.
        -14    1    6    6    0    0  0.35687069888E+02  0.12817081352E+02  0.98816513673E+03  0.98889240162E+03  0.00000000000E+00 0.  1.
</event>
<event>
12    1  0.2685360E-002  0.1920739E+03  0.7818608E-02  0.1156604E+00
          1   -1    0    0  502    0  0.00000000000E+00  0.00000000000E+00  0.23176118139E+04  0.23176118139E+04  0.00000000000E+00 0.  1.
         -1   -1    0    0    0  501 -0.00000000000E+00 -0.00000000000E+00 -0.19598960378E+02  0.19598960378E+02  0.00000000000E+00 0. -1.
          6    2    1    2  502    0  0.16853987233E+02 -0.84409788428E+02  0.64442061491E+03  0.67254416240E+03  0.17212975390E+03 0.  0.
         24    2    3    3    0    0  0.84817521180E+00  0.22726005089E+02  0.21128464221E+03  0.22604318242E+03  0.77052771365E+02 0.  0.
         -6    2    1    2    0  501 -0.16853987233E+02  0.84409788428E+02  0.16535922386E+04  0.16646666119E+04  0.17128504858E+03 0.  0.
        -24    2    5    5    0    0 -0.26192714201E+02 -0.14670654622E+02  0.75424914397E+03  0.75982174236E+03  0.86810267884E+02 0.  0.
          5    1    3    3  502    0  0.16005812021E+02 -0.10713579352E+03  0.43313597270E+03  0.44650097998E+03  0.47000000000E+01 0. -1.
        -11    1    4    4    0    0  0.28882316357E+02  0.73975644033E+01  0.17573075597E+03  0.17824200052E+03  0.00000000000E+00 0.  1.
         12    1    4    4    0    0 -0.28034141146E+02  0.15328440686E+02  0.35553886243E+02  0.47801181896E+02  0.00000000000E+00 0. -1.
         -5    1    5    5    0  501  0.93387269680E+01  0.99080443050E+02  0.89934309467E+03  0.90484486955E+03  0.47000000000E+01 0.  1.
         13    1    6    6    0    0 -0.16290393075E+02 -0.27297634182E+02  0.73031263397E+03  0.73100415941E+03  0.00000000000E+00 0. -1.
        -14    1    6    6    0    0 -0.99023211252E+01  0.12626979561E+02  0.23936509997E+02  0.28817582955E+02  0.00000000000E+00 0.  1.
</event>
<event>
12    1  0.2685360E-002  0.1919907E+03  0.7818608E-02  0.1156678E+00
         -2   -1    0    0    0  501 -0.00000000000E+00  0.00000000000E+00  0.74201226781E+02  0.74201226781E+02  0.00000000000E+00 0. -1.
          2   -1    0    0  502    0  0.00000000000E+00 -0.00000000000E+00 -0.49677870230E+03  0.49677870230E+03  0.00000000000E+00 0.  1.
          6    2    1    2  502    0 -0.27757192867E+02  0.82526607645E+02 -0.21305600911E+03  0.28690177412E+03  0.17128532409E+03 0.  0.
         24    2    3    3    0    0 -0.52206770989E+02 -0.13912686382E+02 -0.11510303288E+03  0.14720497796E+03  0.74172013459E+02 0.  0.
         -6    2    1    2    0  501  0.27757192867E+02 -0.82526607645E+02 -0.20952146642E+03  0.28407815497E+03  0.17093873323E+03 0.  0.
        -24    2    5    5    0    0  0.17372216400E+02 -0.34101065985E+02 -0.11575628218E+02  0.79976401716E+02  0.69264370775E+02 0.  0.
          5    1    3    3  502    0  0.24449578122E+02  0.96439294027E+02 -0.97952976230E+02  0.13969679615E+03  0.47000000000E+01 0. -1.
        -11    1    4    4    0    0 -0.33763611829E+02  0.25936466773E+02 -0.81362061379E+02  0.91828464129E+02  0.00000000000E+00 0.  1.
         12    1    4    4    0    0 -0.18443159159E+02 -0.39849153155E+02 -0.33740971499E+02  0.55376513836E+02  0.00000000000E+00 0. -1.
         -5    1    5    5    0  501  0.10384976467E+02 -0.48425541660E+02 -0.19794583820E+03  0.20410175325E+03  0.47000000000E+01 0.  1.
         13    1    6    6    0    0  0.38783894322E+02 -0.26452659449E+02 -0.25389841127E+02  0.53372068380E+02  0.00000000000E+00 0. -1.
        -14    1    6    6    0    0 -0.21411677922E+02 -0.76484065352E+01  0.13814212909E+02  0.26604333336E+02  0.00000000000E+00 0.  1.
</event>
<event>
12    1  0.2685360E-002  0.1789579E+03  0.7818608E-02  0.1168815E+00
          1   -1    0    0  502    0  0.00000000000E+00  0.00000000000E+00  0.49562081278E+03  0.49562081278E+03  0.00000000000E+00 0. -1.
         -1   -1    0    0    0  501 -0.00000000000E+00 -0.00000000000E+00 -0.14531171338E+03  0.14531171338E+03  0.00000000000E+00 0.  1.
          6    2    1    2  502    0  0.29020706662E+02  0.39206608916E+02 -0.63680823043E+02  0.18989531228E+03  0.17212095399E+03 0.  0.
         24    2    3    3    0    0 -0.24777622072E+01 -0.42523635297E+02 -0.44426142807E+02  0.10009097457E+03  0.78931122891E+02 0.  0.
         -6    2    1    2    0  501 -0.29020706662E+02 -0.39206608916E+02  0.41398992245E+03  0.45103721388E+03  0.17224271485E+03 0.  0.
        -24    2    5    5    0    0 -0.21088682485E+02 -0.89529525378E+02  0.34385667648E+03  0.36422664357E+03  0.77222830037E+02 0.  0.
          5    1    3    3  502    0  0.31498468869E+02  0.81730244213E+02 -0.19254680235E+02  0.89804337708E+02  0.47000000000E+01 0. -1.
        -13    1    4    4    0    0  0.17066484344E+02 -0.11989855970E+02 -0.57801278455E+02  0.61449241859E+02  0.00000000000E+00 0.  1.
         14    1    4    4    0    0 -0.19544246551E+02 -0.30533779326E+02  0.13375135648E+02  0.38641732709E+02  0.00000000000E+00 0. -1.
         -5    1    5    5    0  501 -0.79320241763E+01  0.50322916461E+02  0.70133245962E+02  0.86810570312E+02  0.47000000000E+01 0.  1.
         11    1    6    6    0    0  0.14045643556E+02 -0.75853244076E+02  0.17560132124E+03  0.19179890187E+03  0.00000000000E+00 0. -1.
        -12    1    6    6    0    0 -0.35134326041E+02 -0.13676281302E+02  0.16825535525E+03  0.17242774169E+03  0.00000000000E+00 0.  1.
</event>
<event>
12    1  0.2685360E-002  0.2209690E+03  0.7818608E-02  0.1133163E+00
          4   -1    0    0  502    0  0.00000000000E+00  0.00000000000E+00  0.56602068281E+03  0.56602068281E+03  0.00000000000E+00 0. -1.
         -4   -1    0    0    0  501 -0.00000000000E+00 -0.00000000000E+00 -0.89421395434E+02  0.89421395434E+02  0.00000000000E+00 0.  1.
          6    2    1    2  502    0 -0.49040730932E+02 -0.12962144415E+03  0.17689713391E+03  0.28318737817E+03  0.17232464448E+03 0.  0.
         24    2    3    3    0    0 -0.86355777739E+02 -0.40697866735E+02  0.10736565122E+03  0.16420615098E+03  0.79515031613E+02 0.  0.
         -6    2    1    2    0  501  0.49040730932E+02  0.12962144415E+03  0.29970215346E+03  0.37225470007E+03  0.17188795437E+03 0.  0.
        -24    2    5    5    0    0  0.44409281168E+02  0.11599873539E+03  0.11447914533E+03  0.18641422745E+03  0.78847312033E+02 0.  0.
          5    1    3    3  502    0  0.37315046806E+02 -0.88923577417E+02  0.69531482692E+02  0.11898122719E+03  0.47000000000E+01 0. -1.
        -13    1    4    4    0    0 -0.30515886961E+02  0.21160855344E+02  0.52968940682E+02  0.64689333223E+02  0.00000000000E+00 0.  1.
         14    1    4    4    0    0 -0.55839890778E+02 -0.61858722078E+02  0.54396710537E+02  0.99516817757E+02  0.00000000000E+00 0. -1.
         -5    1    5    5    0  501  0.46314497641E+01  0.13622708764E+02  0.18522300813E+03  0.18584047262E+03  0.47000000000E+01 0.  1.
         13    1    6    6    0    0  0.65505660883E+02  0.10260003671E+03  0.99960031570E+02  0.15751116485E+03  0.00000000000E+00 0. -1.
        -14    1    6    6    0    0 -0.21096379715E+02  0.13398698679E+02  0.14519113758E+02  0.28903062600E+02  0.00000000000E+00 0.  1.
</event>
<event>
12    1  0.2685360E-002  0.2311772E+03  0.7818608E-02  0.1125814E+00
         -1   -1    0    0    0  501 -0.00000000000E+00  0.00000000000E+00  0.21699253959E+03  0.21699253959E+03  0.00000000000E+00 0. -1.
          1   -1    0    0  502    0  0.00000000000E+00 -0.00000000000E+00 -0.37049529027E+03  0.37049529027E+03  0.00000000000E+00 0.  1.
          6    2    1    2  502    0  0.73728275446E+02 -0.13706416418E+03  0.93159663365E+02  0.24993690970E+03  0.17195142410E+03 0.  0.
         24    2    3    3    0    0  0.20955009457E+02 -0.76430261771E+02  0.12206066102E+03  0.16438665903E+03  0.76442601747E+02 0.  0.
         -6    2    1    2    0  501 -0.73728275446E+02  0.13706416418E+03 -0.24666241404E+03  0.33755092015E+03  0.16992890717E+03 0.  0.
        -24    2    5    5    0    0 -0.50318965766E+02  0.10805684499E+03 -0.75644621767E+02  0.16245495898E+03  0.80381744370E+02 0.  0.
          5    1    3    3  502    0  0.52773265989E+02 -0.60633902412E+02 -0.28900997658E+02  0.85550250675E+02  0.47000000000E+01 0. -1.
        -11    1    4    4    0    0  0.32728377527E+02 -0.59596531453E+02  0.12627508144E+03  0.14341648946E+03  0.00000000000E+00 0.  1.
         12    1    4    4    0    0 -0.11773368070E+02 -0.16833730318E+02 -0.42144204200E+01  0.20970169566E+02  0.00000000000E+00 0. -1.
         -5    1    5    5    0  501 -0.23409309680E+02  0.29007319191E+02 -0.17101779228E+03  0.17509596118E+03  0.47000000000E+01 0.  1.
         11    1    6    6    0    0 -0.94294614003E+01 -0.51149381481E+01  0.10072105915E+02  0.14714776659E+02  0.00000000000E+00 0. -1.
        -12    1    6    6    0    0 -0.40889504366E+02  0.11317178314E+03 -0.85716727682E+02  0.14774018232E+03  0.00000000000E+00 0.  1.
</event>
<event>
12    1  0.2685360E-002  0.2201875E+03  0.7818608E-02  0.1133743E+00
          3   -1    0    0  502    0  0.00000000000E+00  0.00000000000E+00  0.46628686284E+03  0.46628686284E+03  0.00000000000E+00 0. -1.
         -3   -1    0    0    0  501 -0.00000000000E+00 -0.00000000000E+00 -0.10512059443E+03  0.10512059443E+03  0.00000000000E+00 0.  1.
          6    2    1    2  502    0 -0.76030825858E+02 -0.11361285041E+03  0.15041094206E+03  0.26628862082E+03  0.17203956471E+03 0.  0.
         24    2    3    3    0    0  0.11007242548E+02 -0.73540429821E+02  0.30119462761E+02  0.11242649346E+03  0.78760270360E+02 0.  0.
         -6    2    1    2    0  501  0.76030825858E+02  0.11361285041E+03  0.21075532635E+03  0.30511883645E+03  0.17317947486E+03 0.  0.
        -24    2    5    5    0    0  0.27649693550E+02 -0.12144848775E+02  0.80658046764E+02  0.11776055661E+03  0.80310804260E+02 0.  0.
          5    1    3    3  502    0 -0.87038068407E+02 -0.40072420585E+02  0.12029147930E+03  0.15386212736E+03  0.47000000000E+01 0. -1.
        -11    1    4    4    0    0  0.44840728074E+02 -0.34410318589E+02  0.13768720521E+02  0.58175068409E+02  0.00000000000E+00 0.  1.
         12    1    4    4    0    0 -0.33833485526E+02 -0.39130111232E+02  0.16350742239E+02  0.54251425048E+02  0.00000000000E+00 0. -1.
         -5    1    5    5    0  501  0.48381132308E+02  0.12575769918E+03  0.13009727959E+03  0.18735827984E+03  0.47000000000E+01 0.  1.
         13    1    6    6    0    0 -0.19437366459E+02 -0.17106213986E+02  0.20235070829E+01  0.25971683671E+02  0.00000000000E+00 0. -1.
        -14    1    6    6    0    0  0.47087060009E+02  0.49613652108E+01  0.78634539681E+02  0.91788872942E+02  0.00000000000E+00 0.  1.
</event>
<event>
12    1  0.2685360E-002  0.2010890E+03  0.7818608E-02  0.1148823E+00
         -3   -1    0    0    0  501 -0.00000000000E+00  0.00000000000E+00  0.14028090654E+04  0.14028090654E+04  0.00000000000E+00 0.  1.
          3   -1    0    0  502    0  0.00000000000E+00 -0.00000000000E+00 -0.29907349930E+02  0.29907349930E+02  0.00000000000E+00 0. -1.
          6    2    1    2  502    0  0.41404099072E+02 -0.94559474188E+02  0.55082953143E+03  0.58645171014E+03  0.17279074645E+03 0.  0.
         24    2    3    3    0    0  0.32402938971E+02 -0.11374790335E+03  0.26276728732E+03  0.29757256036E+03  0.74257965394E+02 0.  0.
         -6    2    1    2    0  501 -0.41404099072E+02  0.94559474188E+02  0.82207218406E+03  0.84626470520E+03  0.17235278324E+03 0.  0.
        -24    2    5    5    0    0  0.12987572492E+02  0.75004092339E+02  0.24440396323E+03  0.26569297815E+03  0.71170011175E+02 0.  0.
          5    1    3    3  502    0  0.90011601014E+01  0.19188429165E+02  0.28806224411E+03  0.28887914978E+03  0.47000000000E+01 0. -1.
        -13    1    4    4    0    0  0.30245715281E+02 -0.72651844206E+02  0.23525964990E+03  0.24807296635E+03  0.00000000000E+00 0.  1.
         14    1    4    4    0    0  0.21572236899E+01 -0.41096059147E+02  0.27507637414E+02  0.49499594014E+02  0.00000000000E+00 0. -1.
         -5    1    5    5    0  501 -0.54391671564E+02  0.19555381850E+02  0.57766822083E+03  0.58057172705E+03  0.47000000000E+01 0.  1.
         13    1    6    6    0    0  0.12812281996E+02  0.53500468192E+02  0.23644895863E+03  0.24276442224E+03  0.00000000000E+00 0. -1.
        -14    1    6    6    0    0  0.17529049567E+00  0.21503624147E+02  0.79550045989E+01  0.22928555916E+02  0.00000000000E+00 0.  1.
</event>
<event>
12    1  0.2685360E-002  0.2616001E+03  0.7818608E-02  0.1106186E+00
          1   -1    0    0  502    0  0.00000000000E+00  0.00000000000E+00  0.31231396658E+03  0.31231396658E+03  0.00000000000E+00 0.  1.
         -1   -1    0    0    0  501 -0.00000000000E+00 -0.00000000000E+00 -0.31145644503E+03  0.31145644503E+03  0.00000000000E+00 0. -1.
          6    2    1    2  502    0  0.18738610622E+03 -0.56690161386E+02 -0.16937987491E+03  0.31273059062E+03  0.17545242399E+03 0.  0.
         24    2    3    3    0    0  0.22937528396E+02 -0.13906636482E+02 -0.20640529335E+02  0.86856183762E+02  0.79990252277E+02 0.  0.
         -6    2    1    2    0  501 -0.18738610622E+03  0.56690161386E+02  0.17023739646E+03  0.31103982099E+03  0.17157410028E+03 0.  0.
        -24    2    5    5    0    0 -0.16282399705E+03  0.78507077813E+02  0.77902248939E+02  0.21292180778E+03  0.81190643281E+02 0.  0.
          5    1    3    3  502    0  0.16444857783E+03 -0.42783524904E+02 -0.14873934557E+03  0.22587440686E+03  0.47000000000E+01 0. -1.
        -11    1    4    4    0    0 -0.28714440194E+02 -0.26843106881E+01 -0.17868501141E+02  0.33926507816E+02  0.00000000000E+00 0.  1.
         12    1    4    4    0    0  0.51651968590E+02 -0.11222325793E+02 -0.27720281942E+01  0.52929675946E+02  0.00000000000E+00 0. -1.
         -5    1    5    5    0  501 -0.24562109171E+02 -0.21816916427E+02  0.92335147520E+02  0.98118013213E+02  0.47000000000E+01 0.  1.
         11    1    6    6    0    0 -0.64659379094E+01  0.84515931560E+01 -0.14712546956E+02  0.18157555393E+02  0.00000000000E+00 0. -1.
        -12    1    6    6    0    0 -0.15635805914E+03  0.70055484657E+02  0.92614795896E+02  0.19476425239E+03  0.00000000000E+00 0.  1.
</event>
<event>
12    1  0.2685360E-002  0.2737891E+03  0.7818608E-02  0.1099130E+00
          3   -1    0    0  502    0  0.00000000000E+00  0.00000000000E+00  0.10739912649E+04  0.10739912649E+04  0.00000000000E+00 0.  1.
         -3   -1    0    0    0  501 -0.00000000000E+00 -0.00000000000E+00 -0.76849335862E+02  0.76849335862E+02  0.00000000000E+00 0. -1.
          6    2    1    2  502    0 -0.12052578387E+03  0.17667269797E+03  0.32513264681E+03  0.42539896486E+03  0.17179445420E+03 0.  0.
         24    2    3    3    0    0 -0.12910746452E+03  0.18861315064E+03  0.32924076574E+03  0.40942441342E+03  0.83577571663E+02 0.  0.
         -6    2    1    2    0  501  0.12052578387E+03 -0.17667269797E+03  0.67200928222E+03  0.72544163590E+03  0.17008640427E+03 0.  0.
        -24    2    5    5    0    0  0.10269331099E+02 -0.23155474903E+02  0.16307274401E+03  0.18252127978E+03  0.77972190913E+02 0.  0.
          5    1    3    3  502    0  0.85816806497E+01 -0.11940452669E+02 -0.41081189286E+01  0.15974551444E+02  0.47000000000E+01 0. -1.
        -13    1    4    4    0    0 -0.40557595799E+02  0.13044650202E+03  0.20193002656E+03  0.24379693208E+03  0.00000000000E+00 0.  1.
         14    1    4    4    0    0 -0.88549868719E+02  0.58166648627E+02  0.12731073918E+03  0.16562748133E+03  0.00000000000E+00 0. -1.
         -5    1    5    5    0  501  0.11025645277E+03 -0.15351722307E+03  0.50893653822E+03  0.54292035612E+03  0.47000000000E+01 0.  1.
         13    1    6    6    0    0 -0.21484988293E+02 -0.28673381618E+02  0.33677954443E+02  0.49172880238E+02  0.00000000000E+00 0. -1.
        -14    1    6    6    0    0  0.31754319392E+02  0.55179067154E+01  0.12939478956E+03  0.13334839954E+03  0.00000000000E+00 0.  1.
</event>
<event>
12    1  0.2685360E-002  0.1805766E+03  0.7818608E-02  0.1167246E+00
          1   -1    0    0  502    0  0.00000000000E+00  0.00000000000E+00  0.54044393029E+02  0.54044393029E+02  0.00000000000E+00 0.  1.
         -1   -1    0    0    0  501 -0.00000000000E+00 -0.00000000000E+00 -0.62033819318E+03  0.62033819318E+03  0.00000000000E+00 0. -1.
          6    2    1    2  502    0  0.34042571733E+02 -0.47831799309E+02 -0.33770320908E+03  0.38257608271E+03  0.16992417108E+03 0.  0.
         24    2    3    3    0    0  0.49088364970E+02 -0.60715329120E+02 -0.34086693339E+03  0.36197364630E+03  0.93480669477E+02 0.  0.
         -6    2    1    2    0  501 -0.34042571733E+02  0.47831799309E+02 -0.22859059107E+03  0.29180650350E+03  0.17161176954E+03 0.  0.
        -24    2    5    5    0    0 -0.85898742233E+02  0.52331990055E+02 -0.15336038320E+03  0.20020416559E+03  0.80281191341E+02 0.  0.
          5    1    3    3  502    0 -0.15045793236E+02  0.12883529811E+02  0.31637243113E+01  0.20602436410E+02  0.47000000000E+01 0. -1.
        -11    1    4    4    0    0 -0.11061547244E+01  0.23583520736E+02 -0.61155670896E+02  0.65554726079E+02  0.00000000000E+00 0.  1.
         12    1    4    4    0    0  0.50194519694E+02 -0.84298849856E+02 -0.27971126250E+03  0.29641892022E+03  0.00000000000E+00 0. -1.
         -5    1    5    5    0  501  0.51856170500E+02 -0.45001907457E+01 -0.75230207872E+02  0.91602337918E+02  0.47000000000E+01 0.  1.
         13    1    6    6    0    0 -0.33717357403E+02  0.37831133688E+02 -0.13302989996E+03  0.14235522172E+03  0.00000000000E+00 0. -1.
        -14    1    6    6    0    0 -0.52181384830E+02  0.14500856367E+02 -0.20330483237E+02  0.57848943869E+02  0.00000000000E+00 0.  1.
</event>
<event>
12    1  0.2685360E-002  0.2095952E+03  0.7818608E-02  0.1141887E+00
          1   -1    0    0  502    0  0.00000000000E+00  0.00000000000E+00  0.10676447667E+04  0.10676447667E+04  0.00000000000E+00 0.  1.
         -1   -1    0    0    0  501 -0.00000000000E+00 -0.00000000000E+00 -0.41536227482E+02  0.41536227482E+02  0.00000000000E+00 0. -1.
          6    2    1    2  502    0  0.20560669860E+01 -0.11985652618E+03  0.45684557367E+03  0.50218916375E+03  0.17063488426E+03 0.  0.
         24    2    3    3    0    0 -0.92414517873E+01 -0.93617208088E+02  0.45661271117E+03  0.47323609881E+03  0.81287459869E+02 0.  0.
         -6    2    1    2    0  501 -0.20560669860E+01  0.11985652618E+03  0.56926296554E+03  0.60699183042E+03  0.17323089789E+03 0.  0.
        -24    2    5    5    0    0  0.59885045209E+02  0.37741137429E+02  0.28770994101E+03  0.30720218071E+03  0.81151448454E+02 0.  0.
          5    1    3    3  502    0  0.11297518773E+02 -0.26239318093E+02  0.23286249668E+00  0.28953064939E+02  0.47000000000E+01 0. -1.
        -13    1    4    4    0    0 -0.23562409686E+02 -0.25359844883E+02  0.50795367980E+02  0.61469328050E+02  0.00000000000E+00 0.  1.
         14    1    4    4    0    0  0.14320957899E+02 -0.68257363205E+02  0.40581734319E+03  0.41176677076E+03  0.00000000000E+00 0. -1.
         -5    1    5    5    0  501 -0.61941112196E+02  0.82115388752E+02  0.28155302453E+03  0.29978964971E+03  0.47000000000E+01 0.  1.
         13    1    6    6    0    0 -0.14896818326E+02  0.29138282274E-01  0.12235986765E+02  0.19277847841E+02  0.00000000000E+00 0. -1.
        -14    1    6    6    0    0  0.74781863536E+02  0.37711999147E+02  0.27547395424E+03  0.28792433287E+03  0.00000000000E+00 0.  1.
</event>
<event>
12    1  0.2685360E-002  0.1922491E+03  0.7818608E-02  0.1156448E+00
         -1   -1    0    0    0  501 -0.00000000000E+00  0.00000000000E+00  0.22083405087E+02  0.22083405087E+02  0.00000000000E+00 0.  1.
          1   -1    0    0  502    0  0.00000000000E+00 -0.00000000000E+00 -0.29399652948E+04  0.29399652948E+04  0.00000000000E+00 0. -1.
          6    2    1    2  502    0 -0.72137948101E+02  0.24442220965E+02 -0.24534300542E+04  0.24613822263E+04  0.18243389799E+03 0.  0.
         24    2    3    3    0    0 -0.10623862475E+03  0.24945307114E+02 -0.12750249142E+04  0.12824743107E+04  0.84515751076E+02 0.  0.
         -6    2    1    2    0  501  0.72137948101E+02 -0.24442220965E+02 -0.46445183549E+03  0.50066647361E+03  0.17073401707E+03 0.  0.
        -24    2    5    5    0    0 -0.12575600632E+01 -0.48543808227E+02 -0.35732605940E+03  0.36850820096E+03  0.75883454541E+02 0.  0.
          5    1    3    3  502    0  0.34100676645E+02 -0.50308614937E+00 -0.11784051401E+04  0.11789079156E+04  0.47000000000E+01 0. -1.
        -13    1    4    4    0    0 -0.95202828671E+02 -0.95291869931E+01 -0.72916508448E+03  0.73541559979E+03  0.00000000000E+00 0.  1.
         14    1    4    4    0    0 -0.11035796075E+02  0.34474494107E+02 -0.54585982969E+03  0.54705871093E+03  0.00000000000E+00 0. -1.
         -5    1    5    5    0  501  0.73395508164E+02  0.24101587263E+02 -0.10712577608E+03  0.13215827265E+03  0.47000000000E+01 0.  1.
         13    1    6    6    0    0 -0.15075410145E+02  0.72638866229E+01 -0.20518840290E+03  0.20586964984E+03  0.00000000000E+00 0. -1.
        -14    1    6    6    0    0  0.13817850082E+02 -0.55807694850E+02 -0.15213765651E+03  0.16263855113E+03  0.00000000000E+00 0.  1.
</event>
<event>
12    1  0.2685360E-002  0.2069981E+03  0.7818608E-02  0.1143965E+00
          2   -1    0    0  502    0  0.00000000000E+00  0.00000000000E+00  0.33429304854E+03  0.33429304854E+03  0.00000000000E+00 0. -1.
         -2   -1    0    0    0  501 -0.00000000000E+00 -0.00000000000E+00 -0.12958496624E+03  0.12958496624E+03  0.00000000000E+00 0.  1.
          6    2    1    2  502    0  0.12119102934E+02 -0.10122261644E+03  0.83633343012E+02  0.23066125673E+03  0.18925429601E+03 0.  0.
         24    2    3    3    0    0  0.12673480695E+02 -0.84376415010E+02 -0.24970277606E+02  0.12065699205E+03  0.81575722147E+02 0.  0.
         -6    2    1    2    0  501 -0.12119102934E+02  0.10122261644E+03  0.12107473929E+03  0.23321675804E+03  0.17128360401E+03 0.  0.
        -24    2    5    5    0    0 -0.39079830183E+02  0.30445432503E+02  0.68605540268E+01  0.96091776022E+02  0.82051232349E+02 0.  0.
          5    1    3    3  502    0 -0.55437776088E+00 -0.16846201429E+02  0.10860362062E+03  0.11000426468E+03  0.47000000000E+01 0. -1.
        -11    1    4    4    0    0 -0.33888595612E+02 -0.23844678617E+02 -0.12469465176E+02  0.43272314159E+02  0.00000000000E+00 0.  1.
         12    1    4    4    0    0  0.46562076307E+02 -0.60531736393E+02 -0.12500812431E+02  0.77384677890E+02  0.00000000000E+00 0. -1.
         -5    1    5    5    0  501  0.26960727248E+02  0.70777183936E+02  0.11421418526E+03  0.13712498202E+03  0.47000000000E+01 0.  1.
         13    1    6    6    0    0  0.24410143198E+02  0.18258045342E+02  0.76874321459E+01  0.31437365088E+02  0.00000000000E+00 0. -1.
        -14    1    6    6    0    0 -0.63489973381E+02  0.12187387161E+02 -0.82687811908E+00  0.64654410933E+02  0.00000000000E+00 0.  1.
</event>
<event>
12    1  0.2685360E-002  0.2007253E+03  0.7818608E-02  0.1149129E+00
         -1   -1    0    0    0  501 -0.00000000000E+00  0.00000000000E+00  0.62998329969E+02  0.62998329969E+02  0.00000000000E+00 0. -1.
          1   -1    0    0  502    0  0.00000000000E+00 -0.00000000000E+00 -0.74895163206E+03  0.74895163206E+03  0.00000000000E+00 0.  1.
          6    2    1    2  502    0  0.62378610965E+02  0.74296303519E+02 -0.18335839715E+03  0.26957235864E+03  0.17215668131E+03 0.  0.
         24    2    3    3    0    0  0.10304847050E+03  0.65372959844E+02 -0.17306229233E+03  0.22642420328E+03  0.80154548568E+02 0.  0.
         -6    2    1    2    0  501 -0.62378610965E+02 -0.74296303519E+02 -0.50259490495E+03  0.54237760339E+03  0.17933430891E+03 0.  0.
        -24    2    5    5    0    0 -0.86665100895E+02 -0.10041031209E+03 -0.30973000091E+03  0.34618704234E+03  0.79496693833E+02 0.  0.
          5    1    3    3  502    0 -0.40669859532E+02  0.89233436746E+01 -0.10296104817E+02  0.43148155361E+02  0.47000000000E+01 0. -1.
        -11    1    4    4    0    0  0.23872392285E+02 -0.18710540246E+02 -0.31562321825E+02  0.43773914478E+02  0.00000000000E+00 0.  1.
         12    1    4    4    0    0  0.79176078212E+02  0.84083500090E+02 -0.14149997050E+03  0.18265028881E+03  0.00000000000E+00 0. -1.
         -5    1    5    5    0  501  0.24286489930E+02  0.26114008567E+02 -0.19286490403E+03  0.19619056105E+03  0.47000000000E+01 0.  1.
         13    1    6    6    0    0 -0.90820313052E+01 -0.30124435593E+02 -0.18013884892E+02  0.36255550766E+02  0.00000000000E+00 0. -1.
        -14    1    6    6    0    0 -0.77583069590E+02 -0.70285876493E+02 -0.29171611602E+03  0.30993149157E+03  0.00000000000E+00 0.  1.
</event>
<event>
12    1  0.2685360E-002  0.2302661E+03  0.7818608E-02  0.1126453E+00
         -2   -1    0    0    0  501 -0.00000000000E+00  0.00000000000E+00  0.60263424799E+02  0.60263424799E+02  0.00000000000E+00 0.  1.
          2   -1    0    0  502    0  0.00000000000E+00 -0.00000000000E+00 -0.96079424181E+03  0.96079424181E+03  0.00000000000E+00 0. -1.
          6    2    1    2  502    0  0.11006239102E+02  0.15274104034E+03 -0.30195053464E+03  0.37968908627E+03  0.17186830469E+03 0.  0.
         24    2    3    3    0    0  0.39610546734E+02  0.84776822701E+02 -0.27496621843E+03  0.30102788481E+03  0.79090208452E+02 0.  0.
         -6    2    1    2    0  501 -0.11006239102E+02 -0.15274104034E+03 -0.59858028237E+03  0.64136858034E+03  0.17205911398E+03 0.  0.
        -24    2    5    5    0    0  0.43233084337E+02 -0.15047123475E+03 -0.45598270827E+03  0.48871467648E+03  0.80069424253E+02 0.  0.
          5    1    3    3  502    0 -0.28604307632E+02  0.67964217637E+02 -0.26984316211E+02  0.78661201462E+02  0.47000000000E+01 0. -1.
        -11    1    4    4    0    0 -0.48298719005E+01  0.46123206509E+02 -0.48811507820E+02  0.67329348258E+02  0.00000000000E+00 0.  1.
         12    1    4    4    0    0  0.44440418634E+02  0.38653616192E+02 -0.22615471061E+03  0.23369853655E+03  0.00000000000E+00 0. -1.
         -5    1    5    5    0  501 -0.54239323439E+02 -0.22698055919E+01 -0.14259757410E+03  0.15265390386E+03  0.47000000000E+01 0.  1.
         11    1    6    6    0    0 -0.99698535474E+01 -0.65588333134E+02 -0.26350179090E+03  0.27172489991E+03  0.00000000000E+00 0. -1.
        -12    1    6    6    0    0  0.53202937884E+02 -0.84882901612E+02 -0.19248091737E+03  0.21698977657E+03  0.00000000000E+00 0.  1.
</event>
<event>
12    1  0.2685360E-002  0.1850646E+03  0.7818608E-02  0.1162990E+00
         -2   -1    0    0    0  501 -0.00000000000E+00  0.00000000000E+00  0.35324037039E+02  0.35324037039E+02  0.00000000000E+00 0. -1.
          2   -1    0    0  502    0  0.00000000000E+00 -0.00000000000E+00 -0.31775287495E+04  0.31775287495E+04  0.00000000000E+00 0.  1.
          6    2    1    2  502    0 -0.27057801417E+02  0.25063854267E+02 -0.20594753091E+03  0.27005754470E+03  0.17075236617E+03 0.  0.
         24    2    3    3    0    0 -0.77156727838E+02  0.27051535215E+02 -0.94489978642E+02  0.14775166070E+03  0.78849546394E+02 0.  0.
         -6    2    1    2    0  501  0.27057801417E+02 -0.25063854267E+02 -0.29362571815E+04  0.29427952418E+04  0.19255460986E+03 0.  0.
        -24    2    5    5    0    0  0.95347321859E+02 -0.18389494425E+02 -0.19139796495E+04  0.19182068132E+04  0.82279973271E+02 0.  0.
          5    1    3    3  502    0  0.50098926421E+02 -0.19876809487E+01 -0.11145755227E+03  0.12230588400E+03  0.47000000000E+01 0. -1.
        -13    1    4    4    0    0 -0.60702071863E+02 -0.99318199439E+00 -0.97754684214E+02  0.11507261284E+03  0.00000000000E+00 0.  1.
         14    1    4    4    0    0 -0.16454655975E+02  0.28044717210E+02  0.32647055718E+01  0.32679047861E+02  0.00000000000E+00 0. -1.
         -5    1    5    5    0  501 -0.68289520441E+02 -0.66743598417E+01 -0.10222775320E+04  0.10245884286E+04  0.47000000000E+01 0.  1.
         13    1    6    6    0    0  0.43670005072E+02 -0.48806330083E+02 -0.11594413200E+04  0.11612894996E+04  0.00000000000E+00 0. -1.
        -14    1    6    6    0    0  0.51677316786E+02  0.30416835657E+02 -0.75453832952E+03  0.75691731363E+03  0.00000000000E+00 0.  1.
</event>
<event>
12    1  0.2685360E-002  0.2191839E+03  0.7818608E-02  0.1134493E+00
          1   -1    0    0  502    0  0.00000000000E+00  0.00000000000E+00  0.15934408554E+04  0.15934408554E+04  0.00000000000E+00 0. -1.
         -1   -1    0    0    0  501 -0.00000000000E+00 -0.00000000000E+00 -0.30171127466E+02  0.30171127466E+02  0.00000000000E+00 0.  1.
          6    2    1    2  502    0 -0.79726189310E+02 -0.10767199135E+03  0.80241064427E+03  0.83174174773E+03  0.17315302454E+03 0.  0.
         24    2    3    3    0    0 -0.78469587490E+02 -0.14348687604E+03  0.69414224981E+03  0.71759964221E+03  0.79811175785E+02 0.  0.
         -6    2    1    2    0  501  0.79726189310E+02  0.10767199135E+03  0.76085908367E+03  0.79187023513E+03  0.17378838024E+03 0.  0.
        -24    2    5    5    0    0  0.61028337511E+02 -0.84638197912E+01  0.36645803897E+03  0.38027406126E+03  0.80751304096E+02 0.  0.
          5    1    3    3  502    0 -0.12566018205E+01  0.35814884695E+02  0.10826839446E+03  0.11414210552E+03  0.47000000000E+01 0. -1.
        -13    1    4    4    0    0  0.46822104941E+01  0.31401278850E+01  0.33918359872E+01  0.65793654412E+01  0.00000000000E+00 0.  1.
         14    1    4    4    0    0 -0.83151797984E+02 -0.14662700393E+03  0.69075041382E+03  0.71102027677E+03  0.00000000000E+00 0. -1.
         -5    1    5    5    0  501  0.18697851799E+02  0.11613581114E+03  0.39440104469E+03  0.41159617387E+03  0.47000000000E+01 0.  1.
         11    1    6    6    0    0  0.69797856799E+02  0.15291421255E+02  0.31395685124E+03  0.32198520590E+03  0.00000000000E+00 0. -1.
        -12    1    6    6    0    0 -0.87695192872E+01 -0.23755241046E+02  0.52501187733E+02  0.58288855359E+02  0.00000000000E+00 0.  1.
</event>
<event>
12    1  0.2685360E-002  0.1847375E+03  0.7818608E-02  0.1163295E+00
         -1   -1    0    0    0  501 -0.00000000000E+00  0.00000000000E+00  0.18025135112E+02  0.18025135112E+02  0.00000000000E+00 0.  1.
          1   -1    0    0  502    0  0.00000000000E+00 -0.00000000000E+00 -0.22735225649E+04  0.22735225649E+04  0.00000000000E+00 0. -1.
          6    2    1    2  502    0  0.42850796165E+02  0.54780566268E+02 -0.65758623245E+03  0.68295599069E+03  0.17079850979E+03 0.  0.
         24    2    3    3    0    0  0.34243962082E+02 -0.33353624188E+02 -0.28016028996E+03  0.29525230851E+03  0.79993902401E+02 0.  0.
         -6    2    1    2    0  501 -0.42850796165E+02 -0.54780566268E+02 -0.15979111973E+04  0.16085917093E+04  0.17149341541E+03 0.  0.
        -24    2    5    5    0    0  0.24160019273E+02 -0.62762379745E+02 -0.12460238043E+04  0.12502608760E+04  0.77808189204E+02 0.  0.
          5    1    3    3  502    0  0.86068340825E+01  0.88134190455E+02 -0.37742594248E+03  0.38770368218E+03  0.47000000000E+01 0. -1.
        -11    1    4    4    0    0  0.45859360252E+02  0.27371030443E+01 -0.86779259599E+02  0.98189676404E+02  0.00000000000E+00 0.  1.
         12    1    4    4    0    0 -0.11615398170E+02 -0.36090727232E+02 -0.19338103037E+03  0.19706263210E+03  0.00000000000E+00 0. -1.
         -5    1    5    5    0  501 -0.67010815437E+02  0.79818134772E+01 -0.35188739297E+03  0.35833083326E+03  0.47000000000E+01 0.  1.
         13    1    6    6    0    0  0.32038799095E+02 -0.78743257895E+02 -0.10380986861E+04  0.10415737455E+04  0.00000000000E+00 0. -1.
        -14    1    6    6    0    0 -0.78787798222E+01  0.15980878150E+02 -0.20792511825E+03  0.20868713050E+03  0.00000000000E+00 0.  1.
</event>
<event>
12    1  0.2685360E-002  0.1872344E+03  0.7818608E-02  0.1160980E+00
         -2   -1    0    0    0  501 -0.00000000000E+00  0.00000000000E+00  0.10170013673E+03  0.10170013673E+03  0.00000000000E+00 0.  1.
          2   -1    0    0  502    0  0.00000000000E+00 -0.00000000000E+00 -0.49615417992E+03  0.49615417992E+03  0.00000000000E+00 0. -1.
          6    2    1    2  502    0  0.59940571776E+02  0.48036077137E+02 -0.36186247522E+03  0.40711030765E+03  0.16998239547E+03 0.  0.
         24    2    3    3    0    0  0.57855684025E+02  0.53871504059E+02 -0.12937551018E+03  0.17449328790E+03  0.86373987769E+02 0.  0.
         -6    2    1    2    0  501 -0.59940571776E+02 -0.48036077137E+02 -0.32591567972E+02  0.19074400900E+03  0.17152472071E+03 0.  0.
        -24    2    5    5    0    0 -0.34193902259E+02  0.40184049361E+01 -0.90439757973E+02  0.10864003113E+03  0.49375459609E+02 0.  0.
          5    1    3    3  502    0  0.20848877512E+01 -0.58354269214E+01 -0.23248696504E+03  0.23261701976E+03  0.47000000000E+01 0. -1.
        -13    1    4    4    0    0 -0.17559780442E+02  0.35291087838E+02 -0.43724713615E+02  0.58869833962E+02  0.00000000000E+00 0.  1.
         14    1    4    4    0    0  0.75415464467E+02  0.18580416221E+02 -0.85650796565E+02  0.11562345394E+03  0.00000000000E+00 0. -1.
         -5    1    5    5    0  501 -0.25746669517E+02 -0.52054482074E+02  0.57848190002E+02  0.82103977867E+02  0.47000000000E+01 0.  1.
         13    1    6    6    0    0 -0.39370371518E+01  0.23669737748E+02 -0.32794334749E+02  0.40635269634E+02  0.00000000000E+00 0. -1.
        -14    1    6    6    0    0 -0.30256865107E+02 -0.19651332811E+02 -0.57645423224E+02  0.68004761496E+02  0.00000000000E+00 0.  1.
</event>
<event>
12    1  0.2685360E-002  0.2551150E+03  0.7818608E-02  0.1110114E+00
         -2   -1    0    0    0  501 -0.00000000000E+00  0.00000000000E+00  0.16418430657E+04  0.16418430657E+04  0.00000000000E+00 0.  1.
          2   -1    0    0  502    0  0.00000000000E+00 -0.00000000000E+00 -0.43819293858E+02  0.43819293858E+02  0.00000000000E+00 0. -1.
          6    2    1    2  502    0  0.15152975781E+03  0.11274812257E+03  0.53850218176E+03  0.59584009396E+03  0.17136922467E+03 0.  0.
         24    2    3    3    0    0  0.33157143920E+01  0.50069247372E+02  0.20059705234E+03  0.22154340609E+03  0.79525969845E+02 0.  0.
         -6    2    1    2    0  501 -0.15152975781E+03 -0.11274812257E+03  0.10595215901E+04  0.10898222656E+04  0.17161924162E+03 0.  0.
        -24    2    5    5    0    0 -0.29857156992E+02 -0.85311299795E+02  0.67121776398E+03  0.68195102071E+03  0.79714743162E+02 0.  0.
          5    1    3    3  502    0  0.14821404342E+03  0.62678875201E+02  0.33790512943E+03  0.37429668788E+03  0.47000000000E+01 0. -1.
        -13    1    4    4    0    0  0.22737653202E+02 -0.59538633385E+01  0.18130272101E+02  0.29684274090E+02  0.00000000000E+00 0.  1.
         14    1    4    4    0    0 -0.19421938810E+02  0.56023110711E+02  0.18246678024E+03  0.19185913200E+03  0.00000000000E+00 0. -1.
         -5    1    5    5    0  501 -0.12167260082E+03 -0.27436822779E+02  0.38830382608E+03  0.40787124486E+03  0.47000000000E+01 0.  1.
         13    1    6    6    0    0  0.14008312630E+02 -0.51383870056E+02  0.47722436412E+03  0.48018707670E+03  0.00000000000E+00 0. -1.
        -14    1    6    6    0    0 -0.43865469622E+02 -0.33927429738E+02  0.19399339986E+03  0.20176394401E+03  0.00000000000E+00 0.  1.
</event>
<event>
12    1  0.2685360E-002  0.2222400E+03  0.7818608E-02  0.1132224E+00
          1   -1    0    0  502    0  0.00000000000E+00  0.00000000000E+00  0.21700606691E+03  0.21700606691E+03  0.00000000000E+00 0. -1.
         -1   -1    0    0    0  501 -0.00000000000E+00 -0.00000000000E+00 -0.22770487884E+03  0.22770487884E+03  0.00000000000E+00 0.  1.
          6    2    1    2  502    0 -0.63607500889E+01  0.13600840737E+03 -0.77584799206E+00  0.22349096992E+03  0.17722546566E+03 0.  0.
         24    2    3    3    0    0 -0.71890885928E+02  0.93066484239E+02 -0.21906958515E+02  0.14220861454E+03  0.76900619301E+02 0.  0.
         -6    2    1    2    0  501  0.63607500889E+01 -0.13600840737E+03 -0.99229639331E+01  0.22121997583E+03  0.17407201520E+03 0.  0.
        -24    2    5    5    0    0 -0.20472535827E+02 -0.71919083805E+02 -0.67950008079E+02  0.13057399147E+03  0.82709638573E+02 0.  0.
          5    1    3    3  502    0  0.65530135839E+02  0.42941923130E+02  0.21131110523E+02  0.81282355386E+02  0.47000000000E+01 0. -1.
        -13    1    4    4    0    0 -0.45215717682E+02  0.28069013788E+02  0.23896586698E+02  0.58338473724E+02  0.00000000000E+00 0.  1.
         14    1    4    4    0    0 -0.26675168246E+02  0.64997470451E+02 -0.45803545213E+02  0.83870140813E+02  0.00000000000E+00 0. -1.
         -5    1    5    5    0  501  0.26833285916E+02 -0.64089323564E+02  0.58027044146E+02  0.90645984358E+02  0.47000000000E+01 0.  1.
         11    1    6    6    0    0 -0.60895235771E+01 -0.66149507607E+02 -0.59824581432E+01  0.66698046894E+02  0.00000000000E+00 0. -1.
        -12    1    6    6    0    0 -0.14383012250E+02 -0.57695761981E+01 -0.61967549936E+02  0.63875944579E+02  0.00000000000E+00 0.  1.
</event>
<event>
12    1  0.2685360E-002  0.1944610E+03  0.7818608E-02  0.1154498E+00
         -2   -1    0    0    0  501 -0.00000000000E+00  0.00000000000E+00  0.47473392718E+03  0.47473392718E+03  0.00000000000E+00 0.  1.
          2   -1    0    0  502    0  0.00000000000E+00 -0.00000000000E+00 -0.84315514069E+02  0.84315514069E+02  0.00000000000E+00 0. -1.
          6    2    1    2  502    0 -0.52729486409E+02 -0.76544244943E+02  0.13105038745E+03  0.23583118479E+03  0.17263465323E+03 0.  0.
         24    2    3    3    0    0 -0.48098249936E+02 -0.11845189999E+03  0.12110881445E+03  0.19225797310E+03  0.77145894406E+02 0.  0.
         -6    2    1    2    0  501  0.52729486409E+02  0.76544244943E+02  0.25936802566E+03  0.32321825646E+03  0.16899363421E+03 0.  0.
        -24    2    5    5    0    0  0.71562149287E+02 -0.22050874391E+01  0.18219662932E+03  0.21126451175E+03  0.79442297100E+02 0.  0.
          5    1    3    3  502    0 -0.46312364734E+01  0.41907655050E+02  0.99415730044E+01  0.43573211689E+02  0.47000000000E+01 0. -1.
        -13    1    4    4    0    0 -0.55633400727E+02 -0.37548695975E+02  0.65609463426E+02  0.93859371066E+02  0.00000000000E+00 0.  1.
         14    1    4    4    0    0  0.75351507914E+01 -0.80903204018E+02  0.55499351020E+02  0.98398602030E+02  0.00000000000E+00 0. -1.
         -5    1    5    5    0  501 -0.18832662878E+02  0.78749332382E+02  0.77171396337E+02  0.11195374471E+03  0.47000000000E+01 0.  1.
         13    1    6    6    0    0  0.47401474105E+01 -0.17080502439E+02  0.12143025822E+01  0.17767585424E+02  0.00000000000E+00 0. -1.
        -14    1    6    6    0    0  0.66822001877E+02  0.14875415000E+02  0.18098232674E+03  0.19349692633E+03  0.00000000000E+00 0.  1.
</event>
<event>
12    1  0.2685360E-002  0.1927471E+03  0.7818608E-02  0.1156007E+00
          1   -1    0    0  502    0  0.00000000000E+00  0.00000000000E+00  0.29957902622E+04  0.29957902622E+04  0.00000000000E+00 0. -1.
         -1   -1    0    0    0  501 -0.00000000000E+00 -0.00000000000E+00 -0.14604808708E+02  0.14604808708E+02  0.00000000000E+00 0.  1.
          6    2    1    2  502    0  0.84296807699E+02 -0.19269121018E+02  0.20786749750E+04  0.20876404800E+04  0.17284638085E+03 0.  0.
         24    2    3    3    0    0 -0.21275040991E+01  0.25311254040E+02  0.59569331308E+03  0.60146644207E+03  0.79159155129E+02 0.  0.
         -6    2    1    2    0  501 -0.84296807699E+02  0.19269121018E+02  0.90251047850E+03  0.92275459088E+03  0.17167882915E+03 0.  0.
        -24    2    5    5    0    0 -0.50565834305E+02 -0.40909645754E+02  0.71418308681E+03  0.72213415574E+03  0.84792421143E+02 0.  0.
          5    1    3    3  502    0  0.86424311798E+02 -0.44580375058E+02  0.14829816619E+04  0.14861740380E+04  0.47000000000E+01 0. -1.
        -11    1    4    4    0    0  0.14624870104E+02  0.70901382099E+00  0.18911879178E+02  0.23917539593E+02  0.00000000000E+00 0.  1.
         12    1    4    4    0    0 -0.16752374203E+02  0.24602240219E+02  0.57678143390E+03  0.57754890248E+03  0.00000000000E+00 0. -1.
         -5    1    5    5    0  501 -0.33730973394E+02  0.60178766771E+02  0.18832739169E+03  0.20062043514E+03  0.47000000000E+01 0.  1.
         11    1    6    6    0    0  0.10221330344E+02  0.49241658399E+01  0.14943943913E+02  0.18762847942E+02  0.00000000000E+00 0. -1.
        -12    1    6    6    0    0 -0.60787164649E+02 -0.45833811593E+02  0.69923914290E+03  0.70337130779E+03  0.00000000000E+00 0.  1.
</event>
<event>
12    1  0.2685360E-002  0.2170713E+03  0.7818608E-02  0.1136086E+00
         -2   -1    0    0    0  501 -0.00000000000E+00  0.00000000000E+00  0.39845131840E+02  0.39845131840E+02  0.00000000000E+00 0.  1.
          2   -1    0    0  502    0  0.00000000000E+00 -0.00000000000E+00 -0.16215277379E+04  0.16215277379E+04  0.00000000000E+00 0. -1.
          6    2    1    2  502    0  0.12944768873E+03 -0.14238532592E+02 -0.35436841447E+03  0.41472511559E+03  0.17164063738E+03 0.  0.
         24    2    3    3    0    0  0.48390417482E+02 -0.38076631923E+02 -0.79348677226E+02  0.12698133707E+03  0.77695463091E+02 0.  0.
         -6    2    1    2    0  501 -0.12944768873E+03  0.14238532592E+02 -0.12273141916E+04  0.12466477542E+04  0.17570161672E+03 0.  0.
        -24    2    5    5    0    0 -0.38144586339E+02 -0.50503757804E+02 -0.46274677739E+03  0.47391672622E+03  0.80354491997E+02 0.  0.
          5    1    3    3  502    0  0.81057271248E+02  0.23838099331E+02 -0.27501973724E+03  0.28774377852E+03  0.47000000000E+01 0. -1.
        -13    1    4    4    0    0  0.62363123754E+02 -0.17765145537E+02 -0.79158608225E+02  0.10232714623E+03  0.00000000000E+00 0.  1.
         14    1    4    4    0    0 -0.13972706272E+02 -0.20311486386E+02 -0.19006900107E+00  0.24654190840E+02  0.00000000000E+00 0. -1.
         -5    1    5    5    0  501 -0.91303102392E+02  0.64742290396E+02 -0.76456741425E+03  0.77273102798E+03  0.47000000000E+01 0.  1.
         13    1    6    6    0    0 -0.46850443753E+02 -0.65842185870E+01 -0.33966481255E+03  0.34294387427E+03  0.00000000000E+00 0. -1.
        -14    1    6    6    0    0  0.87058574142E+01 -0.43919539217E+02 -0.12308196484E+03  0.13097285194E+03  0.00000000000E+00 0.  1.
</event>
<event>
12    1  0.2685360E-002  0.2668371E+03  0.7818608E-02  0.1103104E+00
         -2   -1    0    0    0  501 -0.00000000000E+00  0.00000000000E+00  0.17799833264E+03  0.17799833264E+03  0.00000000000E+00 0. -1.
          2   -1    0    0  502    0  0.00000000000E+00 -0.00000000000E+00 -0.44076993764E+03  0.44076993764E+03  0.00000000000E+00 0.  1.
          6    2    1    2  502    0  0.20265895662E+03 -0.18071625795E+02 -0.37075902075E+02  0.26887966156E+03  0.17182669621E+03 0.  0.
         24    2    3    3    0    0  0.79286951306E+02 -0.40118658265E+02  0.27400401712E+02  0.12786190705E+03  0.87760799183E+02 0.  0.
         -6    2    1    2    0  501 -0.20265895662E+03  0.18071625795E+02 -0.22569570292E+03  0.34988860872E+03  0.17345388967E+03 0.  0.
        -24    2    5    5    0    0 -0.40980193647E+02  0.43863848737E+02 -0.10693342974E+03  0.14757244849E+03  0.82094187737E+02 0.  0.
          5    1    3    3  502    0  0.12337200531E+03  0.22047032470E+02 -0.64476303787E+02  0.14101775450E+03  0.47000000000E+01 0. -1.
        -11    1    4    4    0    0  0.23780939996E+01  0.24030400209E+02  0.10342195891E+02  0.26269306826E+02  0.00000000000E+00 0.  1.
         12    1    4    4    0    0  0.76908857306E+02 -0.64149058474E+02  0.17058205821E+02  0.10159260023E+03  0.00000000000E+00 0. -1.
         -5    1    5    5    0  501 -0.16167876297E+03 -0.25792222942E+02 -0.11876227319E+03  0.20231616023E+03  0.47000000000E+01 0.  1.
         11    1    6    6    0    0 -0.21133487251E+02 -0.24065208563E+01  0.74995500323E+01  0.22553467066E+02  0.00000000000E+00 0. -1.
        -12    1    6    6    0    0 -0.19846706396E+02  0.46270369593E+02 -0.11443297977E+03  0.12501898142E+03  0.00000000000E+00 0.  1.
</event>
<event>
12    1  0.2685360E-002  0.2220478E+03  0.7818608E-02  0.1132365E+00
         -1   -1    0    0    0  501 -0.00000000000E+00  0.00000000000E+00  0.52715175732E+02  0.52715175732E+02  0.00000000000E+00 0.  1.
          1   -1    0    0  502    0  0.00000000000E+00 -0.00000000000E+00 -0.93709353710E+03  0.93709353710E+03  0.00000000000E+00 0. -1.
          6    2    1    2  502    0 -0.53257328711E+02  0.13099264498E+03 -0.46256166825E+03  0.51284593462E+03  0.17044717546E+03 0.  0.
         24    2    3    3    0    0 -0.25048876423E+02  0.31656091436E+02 -0.88123905423E+02  0.12440134928E+03  0.77976398097E+02 0.  0.
         -6    2    1    2    0  501  0.53257328711E+02 -0.13099264498E+03 -0.42181669312E+03  0.47696277821E+03  0.17195567192E+03 0.  0.
        -24    2    5    5    0    0  0.94158908821E+01  0.13504811585E+01 -0.17232763590E+03  0.19112426719E+03  0.82104741735E+02 0.  0.
          5    1    3    3  502    0 -0.28208452288E+02  0.99336553548E+02 -0.37443776283E+03  0.38844458535E+03  0.47000000000E+01 0. -1.
        -13    1    4    4    0    0 -0.66582128758E+01  0.36472964108E+02 -0.30184536786E+01  0.37198386687E+02  0.00000000000E+00 0.  1.
         14    1    4    4    0    0 -0.18390663548E+02 -0.48168726721E+01 -0.85105451744E+02  0.87202962591E+02  0.00000000000E+00 0. -1.
         -5    1    5    5    0  501  0.43841437829E+02 -0.13234312614E+03 -0.24948905722E+03  0.28583851102E+03  0.47000000000E+01 0.  1.
         11    1    6    6    0    0  0.29835669531E+02 -0.21976279145E+02 -0.14544229678E+03  0.15008859289E+03  0.00000000000E+00 0. -1.
        -12    1    6    6    0    0 -0.20419778649E+02  0.23326760303E+02 -0.26885339112E+02  0.41035674303E+02  0.00000000000E+00 0.  1.
</event>
<event>
12    1  0.2685360E-002  0.2179675E+03  0.7818608E-02  0.1135407E+00
          2   -1    0    0  502    0  0.00000000000E+00  0.00000000000E+00  0.34317125393E+03  0.34317125393E+03  0.00000000000E+00 0. -1.
         -2   -1    0    0    0  501 -0.00000000000E+00 -0.00000000000E+00 -0.15186914094E+03  0.15186914094E+03  0.00000000000E+00 0.  1.
          6    2    1    2  502    0  0.12666126334E+03  0.43086593714E+02  0.21872102567E+02  0.21859793177E+03  0.17148509182E+03 0.  0.
         24    2    3    3    0    0  0.10853198109E+03  0.59125387768E+02 -0.39409492007E+02  0.15254161018E+03  0.80254796592E+02 0.  0.
         -6    2    1    2    0  501 -0.12666126334E+03 -0.43086593714E+02  0.16943001043E+03  0.27644246310E+03  0.17266840123E+03 0.  0.
        -24    2    5    5    0    0  0.10180409339E+02 -0.21100030306E+02  0.66872652210E+02  0.10396303222E+03  0.76075675757E+02 0.  0.
          5    1    3    3  502    0  0.18129282244E+02 -0.16038794054E+02  0.61281594573E+02  0.66056321596E+02  0.47000000000E+01 0. -1.
        -11    1    4    4    0    0  0.50301695027E+02  0.22181251523E+02 -0.59207576555E+02  0.80794836241E+02  0.00000000000E+00 0.  1.
         12    1    4    4    0    0  0.58230286065E+02  0.36944136245E+02  0.19798084548E+02  0.71746773934E+02  0.00000000000E+00 0. -1.
         -5    1    5    5    0  501 -0.13684167267E+03 -0.21986563408E+02  0.10255735822E+03  0.17247943088E+03  0.47000000000E+01 0.  1.
         13    1    6    6    0    0 -0.12600753721E+02 -0.18317457590E+02  0.76059318636E+02  0.79242212225E+02  0.00000000000E+00 0. -1.
        -14    1    6    6    0    0  0.22781163060E+02 -0.27825727153E+01 -0.91866664264E+01  0.24720819996E+02  0.00000000000E+00 0.  1.
</event>
<event>
12    1  0.2685360E-002  0.1728385E+03  0.7818608E-02  0.1174920E+00
         -2   -1    0    0    0  501 -0.00000000000E+00  0.00000000000E+00  0.94515782629E+02  0.94515782629E+02  0.00000000000E+00 0.  1.
          2   -1    0    0  502    0  0.00000000000E+00 -0.00000000000E+00 -0.37902196954E+03  0.37902196954E+03  0.00000000000E+00 0. -1.
          6    2    1    2  502    0  0.88213222951E+01 -0.23755144901E+02 -0.46168610189E+02  0.17947554008E+03  0.17157449194E+03 0.  0.
         24    2    3    3    0    0  0.64525757636E+02 -0.22300032008E+02 -0.63566163284E+00  0.10736145772E+03  0.82856585209E+02 0.  0.
         -6    2    1    2    0  501 -0.88213222951E+01  0.23755144901E+02 -0.23833757673E+03  0.29406221209E+03  0.17036919166E+03 0.  0.
        -24    2    5    5    0    0  0.24381804470E+02 -0.23020570371E+02 -0.21546375502E+03  0.23212904743E+03  0.79591745068E+02 0.  0.
          5    1    3    3  502    0 -0.55704435341E+02 -0.14551128931E+01 -0.45532948556E+02  0.72114082358E+02  0.47000000000E+01 0. -1.
        -11    1    4    4    0    0  0.68589209943E+02  0.35628491399E+01  0.22654010312E+02  0.72321350913E+02  0.00000000000E+00 0.  1.
         12    1    4    4    0    0 -0.40634523068E+01 -0.25862881148E+02 -0.23289671945E+02  0.35040106809E+02  0.00000000000E+00 0. -1.
         -5    1    5    5    0  501 -0.33203126765E+02  0.46775715272E+02 -0.22873821708E+02  0.61933164668E+02  0.47000000000E+01 0.  1.
         11    1    6    6    0    0 -0.26507645518E+02  0.63389291164E+01 -0.78474857014E+02  0.83073103209E+02  0.00000000000E+00 0. -1.
        -12    1    6    6    0    0  0.50889449988E+02 -0.29359499488E+02 -0.13698889800E+03  0.14905594422E+03  0.00000000000E+00 0.  1.
</event>
<event>
12    1  0.2685360E-002  0.2805202E+03  0.7818608E-02  0.1095405E+00
         -2   -1    0    0    0  501 -0.00000000000E+00  0.00000000000E+00  0.90871624831E+02  0.90871624831E+02  0.00000000000E+00 0.  1.
          2   -1    0    0  502    0  0.00000000000E+00 -0.00000000000E+00 -0.87211553955E+03  0.87211553955E+03  0.00000000000E+00 0. -1.
          6    2    1    2  502    0  0.16789912497E+03  0.13720636601E+03 -0.35559641260E+03  0.45516113138E+03  0.18359505392E+03 0.  0.
         24    2    3    3    0    0  0.16174866099E+03  0.46209659900E+02 -0.18905172301E+03  0.26522047654E+03  0.79393861233E+02 0.  0.
         -6    2    1    2    0  501 -0.16789912497E+03 -0.13720636601E+03 -0.42564750212E+03  0.50782603300E+03  0.17232463751E+03 0.  0.
        -24    2    5    5    0    0 -0.53594871777E+02 -0.38838280778E+02 -0.27777544370E+03  0.29656794877E+03  0.80078266603E+02 0.  0.
          5    1    3    3  502    0  0.61504639789E+01  0.90996706113E+02 -0.16654468959E+03  0.18994065484E+03  0.47000000000E+01 0. -1.
        -11    1    4    4    0    0  0.11969969032E+03  0.47024551869E+02 -0.88181117000E+02  0.15593342726E+03  0.00000000000E+00 0.  1.
         12    1    4    4    0    0  0.42048970671E+02 -0.81489196895E+00 -0.10087060601E+03  0.10928704928E+03  0.00000000000E+00 0. -1.
         -5    1    5    5    0  501 -0.11430425319E+03 -0.98368085235E+02 -0.14787205842E+03  0.21125808423E+03  0.47000000000E+01 0.  1.
         11    1    6    6    0    0  0.34096566822E+00  0.16071071462E+02 -0.11943281258E+03  0.12050971876E+03  0.00000000000E+00 0. -1.
        -12    1    6    6    0    0 -0.53935837445E+02 -0.54909352241E+02 -0.15834263112E+03  0.17605823001E+03  0.00000000000E+00 0.  1.
</event>
<event>
12    1  0.2685360E-002  0.2098649E+03  0.7818608E-02  0.1141673E+00
         -2   -1    0    0    0  501 -0.00000000000E+00  0.00000000000E+00  0.25166189658E+03  0.25166189658E+03  0.00000000000E+00 0.  1.
          2   -1    0    0  502    0  0.00000000000E+00 -0.00000000000E+00 -0.19582186424E+03  0.19582186424E+03  0.00000000000E+00 0. -1.
          6    2    1    2  502    0  0.89344208566E+02 -0.78806917690E+02  0.10085030111E+03  0.23275489323E+03  0.17265902586E+03 0.  0.
         24    2    3    3    0    0  0.16098732332E+02  0.16676744192E+02  0.40908947884E+02  0.98229485589E+02  0.86245039525E+02 0.  0.
         -6    2    1    2    0  501 -0.89344208566E+02  0.78806917690E+02 -0.45010268763E+02  0.21472886759E+03  0.17288621808E+03 0.  0.
        -24    2    5    5    0    0 -0.16822136952E+02  0.94329522246E+02  0.76838864358E+01  0.12362910845E+03  0.77743625377E+02 0.  0.
          5    1    3    3  502    0  0.73245476233E+02 -0.95483661883E+02  0.59941353222E+02  0.13452540764E+03  0.47000000000E+01 0. -1.
        -11    1    4    4    0    0  0.41388661835E+02  0.24844377875E+01  0.52586456610E+02  0.66966627348E+02  0.00000000000E+00 0.  1.
         12    1    4    4    0    0 -0.25289929502E+02  0.14192306405E+02 -0.11677508727E+02  0.31262858241E+02  0.00000000000E+00 0. -1.
         -5    1    5    5    0  501 -0.72522071614E+02 -0.15522604556E+02 -0.52694155198E+02  0.91099759140E+02  0.47000000000E+01 0.  1.
         11    1    6    6    0    0 -0.46619882666E+02  0.40132396369E+02  0.51294579643E+01  0.61727903230E+02  0.00000000000E+00 0. -1.
        -12    1    6    6    0    0  0.29797745715E+02  0.54197125877E+02  0.25544284715E+01  0.61901205221E+02  0.00000000000E+00 0.  1.
</event>
<event>
12    1  0.2685360E-002  0.1836873E+03  0.7818608E-02  0.1164281E+00
         -1   -1    0    0    0  501 -0.00000000000E+00  0.00000000000E+00  0.58293609171E+03  0.58293609171E+03  0.00000000000E+00 0.  1.
          1   -1    0    0  502    0  0.00000000000E+00 -0.00000000000E+00 -0.67414687005E+02  0.67414687005E+02  0.00000000000E+00 0. -1.
          6    2    1    2  502    0  0.58138266348E+02  0.22191638285E+02  0.37919623132E+03  0.42104061084E+03  0.17208395424E+03 0.  0.
         24    2    3    3    0    0  0.75295909963E+02 -0.30698878645E+02  0.32694590789E+03  0.34459469654E+03  0.72387726768E+02 0.  0.
         -6    2    1    2    0  501 -0.58138266348E+02 -0.22191638285E+02  0.13632517339E+03  0.22931016787E+03  0.17356864166E+03 0.  0.
        -24    2    5    5    0    0  0.18546080198E+02  0.32663757697E+02  0.80033601999E+02  0.11939913802E+03  0.80248978525E+02 0.  0.
          5    1    3    3  502    0 -0.17157643615E+02  0.52890516931E+02  0.52250323428E+02  0.76445914305E+02  0.47000000000E+01 0. -1.
        -11    1    4    4    0    0  0.75073899567E+02 -0.67393206092E-01  0.19064743779E+03  0.20489641401E+03  0.00000000000E+00 0.  1.
         12    1    4    4    0    0  0.22201039561E+00 -0.30631485439E+02  0.13629847010E+03  0.13969828253E+03  0.00000000000E+00 0. -1.
         -5    1    5    5    0  501 -0.76684346546E+02 -0.54855395982E+02  0.56291571388E+02  0.10991102985E+03  0.47000000000E+01 0.  1.
         11    1    6    6    0    0  0.36583993353E+02 -0.13522965245E+02  0.36407614277E+02  0.53355164099E+02  0.00000000000E+00 0. -1.
        -12    1    6    6    0    0 -0.18037913155E+02  0.46186722942E+02  0.43625987721E+02  0.66043973925E+02  0.00000000000E+00 0.  1.
</event>
<event>
12    1  0.2685360E-002  0.1854258E+03  0.7818608E-02  0.1162653E+00
         -1   -1    0    0    0  501 -0.00000000000E+00  0.00000000000E+00  0.26281011888E+03  0.26281011888E+03  0.00000000000E+00 0. -1.
          1   -1    0    0  502    0  0.00000000000E+00 -0.00000000000E+00 -0.15048876860E+03  0.15048876860E+03  0.00000000000E+00 0.  1.
          6    2    1    2  502    0  0.29585958464E+02 -0.63822395740E+02 -0.18473431101E+02  0.18657202012E+03  0.17181159419E+03 0.  0.
         24    2    3    3    0    0  0.83321038848E+02 -0.57398936863E+02 -0.35763335871E+01  0.13024499994E+03  0.81938613482E+02 0.  0.
         -6    2    1    2    0  501 -0.29585958464E+02  0.63822395740E+02  0.13079478138E+03  0.22672686736E+03  0.17131599578E+03 0.  0.
        -24    2    5    5    0    0 -0.53819591657E+02  0.85547020328E+02  0.14257915530E+03  0.19179565267E+03  0.79005795502E+02 0.  0.
          5    1    3    3  502    0 -0.53735080384E+02 -0.64234588772E+01 -0.14897097514E+02  0.56327020179E+02  0.47000000000E+01 0. -1.
        -13    1    4    4    0    0  0.36888522364E+02 -0.59197084287E+02 -0.30956450533E+02  0.76310940892E+02  0.00000000000E+00 0.  1.
         14    1    4    4    0    0  0.46432516484E+02  0.17981474243E+01  0.27380116946E+02  0.53934059046E+02  0.00000000000E+00 0. -1.
         -5    1    5    5    0  501  0.24233633193E+02 -0.21724624588E+02 -0.11784373919E+02  0.34931214693E+02  0.47000000000E+01 0.  1.
         13    1    6    6    0    0  0.19966905742E+02  0.29484150875E+02  0.40432176820E+02  0.53877206685E+02  0.00000000000E+00 0. -1.
        -14    1    6    6    0    0 -0.73786497399E+02  0.56062869453E+02  0.10214697848E+03  0.13791844598E+03  0.00000000000E+00 0.  1.
</event>
<event>
12    1  0.2685360E-002  0.1857511E+03  0.7818608E-02  0.1162350E+00
         -1   -1    0    0    0  501 -0.00000000000E+00  0.00000000000E+00  0.18124369652E+03  0.18124369652E+03  0.00000000000E+00 0.  1.
          1   -1    0    0  502    0  0.00000000000E+00 -0.00000000000E+00 -0.34624352818E+03  0.34624352818E+03  0.00000000000E+00 0. -1.
          6    2    1    2  502    0 -0.53246229576E+02 -0.48015714607E+02  0.94328001143E+02  0.20880999311E+03  0.17193944170E+03 0.  0.
         24    2    3    3    0    0  0.23288969855E+02 -0.66542012239E+02  0.59148167590E+02  0.12243539531E+03  0.80757072675E+02 0.  0.
         -6    2    1    2    0  501  0.53246229576E+02  0.48015714607E+02 -0.25932783281E+03  0.31867723158E+03  0.17077348520E+03 0.  0.
        -24    2    5    5    0    0  0.27410041132E+02  0.59517315141E+02 -0.26924257730E+03  0.28834263736E+03  0.79726344013E+02 0.  0.
          5    1    3    3  502    0 -0.76535199431E+02  0.18526297632E+02  0.35179833554E+02  0.86374597798E+02  0.47000000000E+01 0. -1.
        -11    1    4    4    0    0 -0.54337379199E+01  0.16770667427E+02  0.17939013539E+02  0.25151322042E+02  0.00000000000E+00 0.  1.
         12    1    4    4    0    0  0.28722707775E+02 -0.83312679665E+02  0.41209154050E+02  0.97284073272E+02  0.00000000000E+00 0. -1.
         -5    1    5    5    0  501  0.25836188444E+02 -0.11501600534E+02  0.99147444966E+01  0.30334594222E+02  0.47000000000E+01 0.  1.
         11    1    6    6    0    0  0.25870966186E+02 -0.12915543042E+02 -0.10337181168E+03  0.10733987885E+03  0.00000000000E+00 0. -1.
        -12    1    6    6    0    0  0.15390749464E+01  0.72432858183E+02 -0.16587076563E+03  0.18100275850E+03  0.00000000000E+00 0.  1.
</event>
<event>
12    1  0.2685360E-002  0.2797201E+03  0.7818608E-02  0.1095842E+00
          2   -1    0    0  502    0  0.00000000000E+00  0.00000000000E+00  0.44362352403E+03  0.44362352403E+03  0.00000000000E+00 0. -1.
         -2   -1    0    0    0  501 -0.00000000000E+00 -0.00000000000E+00 -0.20447570133E+03  0.20447570133E+03  0.00000000000E+00 0.  1.
          6    2    1    2  502    0  0.74657827097E+02  0.20734011617E+03  0.23976793791E+03  0.36854436260E+03  0.17254729275E+03 0.  0.
         24    2    3    3    0    0  0.76773159225E+02  0.22710320940E+03  0.19732400817E+03  0.32144200963E+03  0.83175811734E+02 0.  0.
         -6    2    1    2    0  501 -0.74657827097E+02 -0.20734011617E+03 -0.62011520842E+00  0.27955486276E+03  0.17200820280E+03 0.  0.
        -24    2    5    5    0    0  0.11063380458E+01 -0.12507504650E+03  0.49598635401E+02  0.15686923475E+03  0.80640814334E+02 0.  0.
          5    1    3    3  502    0 -0.21153321284E+01 -0.19763093224E+02  0.42443929739E+02  0.47102352972E+02  0.47000000000E+01 0. -1.
        -13    1    4    4    0    0  0.72063367791E+00  0.13187649914E+03  0.10220755552E+03  0.16684817873E+03  0.00000000000E+00 0.  1.
         14    1    4    4    0    0  0.76052525547E+02  0.95226710254E+02  0.95116452653E+02  0.15459383090E+03  0.00000000000E+00 0. -1.
         -5    1    5    5    0  501 -0.75764165143E+02 -0.82265069674E+02 -0.50218750610E+02  0.12268562801E+03  0.47000000000E+01 0.  1.
         13    1    6    6    0    0 -0.38261756711E+02 -0.76854377552E+02  0.21106211659E+02  0.88408311522E+02  0.00000000000E+00 0. -1.
        -14    1    6    6    0    0  0.39368094757E+02 -0.48220668948E+02  0.28492423743E+02  0.68460923228E+02  0.00000000000E+00 0.  1.
</event>
<event>
12    1  0.2685360E-002  0.2733797E+03  0.7818608E-02  0.1099361E+00
          1   -1    0    0  502    0  0.00000000000E+00  0.00000000000E+00  0.81513945395E+03  0.81513945395E+03  0.00000000000E+00 0.  1.
         -1   -1    0    0    0  501 -0.00000000000E+00 -0.00000000000E+00 -0.91899042106E+02  0.91899042106E+02  0.00000000000E+00 0. -1.
          6    2    1    2  502    0  0.53281650154E+02  0.20523485239E+03  0.33967162589E+03  0.43597852533E+03  0.17245342048E+03 0.  0.
         24    2    3    3    0    0 -0.78375835384E+01  0.19497981168E+03  0.26587183394E+03  0.33949419562E+03  0.80560052758E+02 0.  0.
         -6    2    1    2    0  501 -0.53281650154E+02 -0.20523485239E+03  0.38356878596E+03  0.47105997073E+03  0.17266210812E+03 0.  0.
        -24    2    5    5    0    0 -0.77277505837E+02 -0.18837372068E+03  0.24382216278E+03  0.32819182332E+03  0.82487297705E+02 0.  0.
          5    1    3    3  502    0  0.61119233692E+02  0.10255040711E+02  0.73799791951E+02  0.96484329708E+02  0.47000000000E+01 0. -1.
        -13    1    4    4    0    0  0.13412345906E+02 -0.46071637917E+00  0.26798088877E+02  0.29970666488E+02  0.00000000000E+00 0.  1.
         14    1    4    4    0    0 -0.21249929444E+02  0.19544052806E+03  0.23907374506E+03  0.30952352913E+03  0.00000000000E+00 0. -1.
         -5    1    5    5    0  501  0.23995855684E+02 -0.16861131712E+02  0.13974662318E+03  0.14286814741E+03  0.47000000000E+01 0.  1.
         11    1    6    6    0    0  0.85247779450E+01 -0.80659013269E+02  0.10466442461E+03  0.13241295269E+03  0.00000000000E+00 0. -1.
        -12    1    6    6    0    0 -0.85802283782E+02 -0.10771470741E+03  0.13915773817E+03  0.19577887063E+03  0.00000000000E+00 0.  1.
</event>
<event>
12    1  0.2685360E-002  0.2643091E+03  0.7818608E-02  0.1104582E+00
          1   -1    0    0  502    0  0.00000000000E+00  0.00000000000E+00  0.49006259913E+03  0.49006259913E+03  0.00000000000E+00 0.  1.
         -1   -1    0    0    0  501 -0.00000000000E+00 -0.00000000000E+00 -0.16115082804E+03  0.16115082804E+03  0.00000000000E+00 0. -1.
          6    2    1    2  502    0 -0.18236717382E+03  0.82189208699E+02  0.53118708836E+02  0.26829343744E+03  0.17072468841E+03 0.  0.
         24    2    3    3    0    0 -0.17677561014E+03  0.14678941342E+02  0.48456008078E+02  0.20022925772E+03  0.79238142750E+02 0.  0.
         -6    2    1    2    0  501  0.18236717382E+03 -0.82189208699E+02  0.27579306225E+03  0.38291998973E+03  0.17479431695E+03 0.  0.
        -24    2    5    5    0    0  0.11833019646E+03  0.20633722419E+02  0.14358629636E+03  0.20354884217E+03  0.79920715383E+02 0.  0.
          5    1    3    3  502    0 -0.55915636727E+01  0.67510267357E+02  0.46627007581E+01  0.68064179722E+02  0.47000000000E+01 0. -1.
        -11    1    4    4    0    0 -0.29310387557E+02  0.17245710679E+02 -0.17981242011E+02  0.38468668028E+02  0.00000000000E+00 0.  1.
         12    1    4    4    0    0 -0.14746522259E+03 -0.25667693371E+01  0.66437250088E+02  0.16176058969E+03  0.00000000000E+00 0. -1.
         -5    1    5    5    0  501  0.64036977353E+02 -0.10282293112E+03  0.13220676589E+03  0.17937114757E+03  0.47000000000E+01 0.  1.
         13    1    6    6    0    0  0.55696303420E+02  0.45403635678E+02  0.47245020297E+02  0.85998024921E+02  0.00000000000E+00 0. -1.
        -14    1    6    6    0    0  0.62633893045E+02 -0.24769913259E+02  0.96341276068E+02  0.11755081725E+03  0.00000000000E+00 0.  1.
</event>
<event>
12    1  0.2685360E-002  0.1802171E+03  0.7818608E-02  0.1167593E+00
         -2   -1    0    0    0  501 -0.00000000000E+00  0.00000000000E+00  0.24148558975E+02  0.24148558975E+02  0.00000000000E+00 0. -1.
          2   -1    0    0  502    0  0.00000000000E+00 -0.00000000000E+00 -0.15859963463E+04  0.15859963463E+04  0.00000000000E+00 0.  1.
          6    2    1    2  502    0 -0.49364292112E+02  0.13242472611E+02 -0.47225872167E+03  0.50597915678E+03  0.17428255934E+03 0.  0.
         24    2    3    3    0    0 -0.10039591787E+03  0.19031537935E+02 -0.34199178659E+03  0.36587453702E+03  0.80400590683E+02 0.  0.
         -6    2    1    2    0  501  0.49364292112E+02 -0.13242472611E+02 -0.10895890656E+04  0.11041657485E+04  0.17136356594E+03 0.  0.
        -24    2    5    5    0    0 -0.13837098012E+02 -0.57229827320E+02 -0.65366685416E+03  0.66146995275E+03  0.82434360280E+02 0.  0.
          5    1    3    3  502    0  0.51031625755E+02 -0.57890653242E+01 -0.13026693508E+03  0.14010461976E+03  0.47000000000E+01 0. -1.
        -11    1    4    4    0    0 -0.51797142146E+02  0.11011993981E+01 -0.28152784947E+03  0.28625528223E+03  0.00000000000E+00 0.  1.
         12    1    4    4    0    0 -0.48598775721E+02  0.17930338537E+02 -0.60463937121E+02  0.79619254793E+02  0.00000000000E+00 0. -1.
         -5    1    5    5    0  501  0.63201390124E+02  0.43987354709E+02 -0.43592221148E+03  0.44269579572E+03  0.47000000000E+01 0.  1.
         13    1    6    6    0    0 -0.23578919489E+02  0.12616239897E+02 -0.10784576995E+03  0.11111185828E+03  0.00000000000E+00 0. -1.
        -14    1    6    6    0    0  0.97418214768E+01 -0.69846067218E+02 -0.54582108421E+03  0.55035809448E+03  0.00000000000E+00 0.  1.
</event>
<event>
12    1  0.2685360E-002  0.1875183E+03  0.7818608E-02  0.1160719E+00
         -2   -1    0    0    0  501 -0.00000000000E+00  0.00000000000E+00  0.15509494739E+02  0.15509494739E+02  0.00000000000E+00 0. -1.
          2   -1    0    0  502    0  0.00000000000E+00 -0.00000000000E+00 -0.25482944533E+04  0.25482944533E+04  0.00000000000E+00 0.  1.
          6    2    1    2  502    0  0.63259902916E+02 -0.23753416057E+01 -0.81628621003E+03  0.83662509643E+03  0.17207823138E+03 0.  0.
         24    2    3    3    0    0  0.51676535230E+02 -0.66537412322E+01 -0.81767611747E+03  0.82333973030E+03  0.81113142253E+02 0.  0.
         -6    2    1    2    0  501 -0.63259902916E+02  0.23753416057E+01 -0.17164987485E+04  0.17271788516E+04  0.18102865573E+03 0.  0.
        -24    2    5    5    0    0 -0.60910260650E+02 -0.43314625934E+02 -0.60510220629E+03  0.61483112808E+03  0.79261714119E+02 0.  0.
          5    1    3    3  502    0  0.11583367686E+02  0.42783996264E+01  0.13899074395E+01  0.13285366122E+02  0.47000000000E+01 0. -1.
        -11    1    4    4    0    0 -0.19392236857E+02  0.47800448918E+01 -0.94355593611E+02  0.96446284144E+02  0.00000000000E+00 0.  1.
         12    1    4    4    0    0  0.71068772087E+02 -0.11433786124E+02 -0.72332052386E+03  0.72689344616E+03  0.00000000000E+00 0. -1.
         -5    1    5    5    0  501 -0.23496422666E+01  0.45689967540E+02 -0.11113965422E+04  0.11123477235E+04  0.47000000000E+01 0.  1.
         11    1    6    6    0    0 -0.12577155333E+02 -0.40269198274E+02 -0.11776481318E+03  0.12509334271E+03  0.00000000000E+00 0. -1.
        -12    1    6    6    0    0 -0.48333105317E+02 -0.30454276607E+01 -0.48733739311E+03  0.48973778537E+03  0.00000000000E+00 0.  1.
</event>
<event>
12    1  0.2685360E-002  0.2154510E+03  0.7818608E-02  0.1137321E+00
         -1   -1    0    0    0  501 -0.00000000000E+00  0.00000000000E+00  0.28100245258E+02  0.28100245258E+02  0.00000000000E+00 0.  1.
          1   -1    0    0  502    0  0.00000000000E+00 -0.00000000000E+00 -0.17301301678E+04  0.17301301678E+04  0.00000000000E+00 0. -1.
          6    2    1    2  502    0  0.32980772904E+02 -0.12671641805E+03 -0.10376490078E+04  0.10597649015E+04  0.17100117275E+03 0.  0.
         24    2    3    3    0    0  0.33377449247E+02 -0.14785554024E+03 -0.75635802856E+03  0.77764130299E+03  0.98352497903E+02 0.  0.
         -6    2    1    2    0  501 -0.32980772904E+02  0.12671641805E+03 -0.66438091477E+03  0.69846551158E+03  0.17119371768E+03 0.  0.
        -24    2    5    5    0    0  0.19160639907E+02  0.13869817395E+03 -0.47888497228E+03  0.50535123432E+03  0.80279136579E+02 0.  0.
          5    1    3    3  502    0 -0.39667634268E+00  0.21139122186E+02 -0.28129097921E+03  0.28212359849E+03  0.47000000000E+01 0. -1.
        -13    1    4    4    0    0  0.65388029670E+02 -0.97727907864E+02 -0.57075576200E+03  0.58274220566E+03  0.00000000000E+00 0.  1.
         14    1    4    4    0    0 -0.32010580423E+02 -0.50127632374E+02 -0.18560226656E+03  0.19489909732E+03  0.00000000000E+00 0. -1.
         -5    1    5    5    0  501 -0.52141412812E+02 -0.11981755895E+02 -0.18549594249E+03  0.19311427726E+03  0.47000000000E+01 0.  1.
         13    1    6    6    0    0  0.35874328802E+02  0.96819746853E+02 -0.41161210549E+03  0.42436488572E+03  0.00000000000E+00 0. -1.
        -14    1    6    6    0    0 -0.16713688895E+02  0.41878427095E+02 -0.67272866794E+02  0.80986348597E+02  0.00000000000E+00 0.  1.
</event>
<event>
12    1  0.2685360E-002  0.2223890E+03  0.7818608E-02  0.1132114E+00
         -2   -1    0    0    0  501 -0.00000000000E+00  0.00000000000E+00  0.33410957003E+02  0.33410957003E+02  0.00000000000E+00 0. -1.
          2   -1    0    0  502    0  0.00000000000E+00 -0.00000000000E+00 -0.15282357729E+04  0.15282357729E+04  0.00000000000E+00 0.  1.
          6    2    1    2  502    0  0.13485218031E+03 -0.39043828846E+02 -0.61091189010E+03  0.65032403248E+03  0.17320068896E+03 0.  0.
         24    2    3    3    0    0  0.24443249757E+02 -0.24812361725E+02 -0.41844608212E+03  0.42793283697E+03  0.82560665930E+02 0.  0.
         -6    2    1    2    0  501 -0.13485218031E+03  0.39043828846E+02 -0.88391292584E+03  0.91132269746E+03  0.17174826734E+03 0.  0.
        -24    2    5    5    0    0 -0.13844726768E+03 -0.17254031483E+02 -0.72145853610E+03  0.73928812978E+03  0.81112095235E+02 0.  0.
          5    1    3    3  502    0  0.11040893055E+03 -0.14231467121E+02 -0.19246580798E+03  0.22239119551E+03  0.47000000000E+01 0. -1.
        -13    1    4    4    0    0  0.22418645757E+02 -0.54418881222E+02 -0.24529062703E+03  0.25225285334E+03  0.00000000000E+00 0.  1.
         14    1    4    4    0    0  0.20246039999E+01  0.29606519498E+02 -0.17315545509E+03  0.17567998363E+03  0.00000000000E+00 0. -1.
         -5    1    5    5    0  501  0.35950873683E+01  0.56297860329E+02 -0.16245438974E+03  0.17203456768E+03  0.47000000000E+01 0.  1.
         13    1    6    6    0    0 -0.55401273243E+02 -0.11316622699E+02 -0.12689355648E+03  0.13892207061E+03  0.00000000000E+00 0. -1.
        -14    1    6    6    0    0 -0.83045994437E+02 -0.59374087843E+01 -0.59456497962E+03  0.60036605917E+03  0.00000000000E+00 0.  1.
</event>
<event>
12    1  0.2685360E-002  0.2027824E+03  0.7818608E-02  0.1147412E+00
         -2   -1    0    0    0  501 -0.00000000000E+00  0.00000000000E+00  0.35633673038E+02  0.35633673038E+02  0.00000000000E+00 0.  1.
          2   -1    0    0  502    0  0.00000000000E+00 -0.00000000000E+00 -0.11573597450E+04  0.11573597450E+04  0.00000000000E+00 0. -1.
          6    2    1    2  502    0  0.87847710409E+02 -0.66994118066E+02 -0.58588698356E+03  0.61923119284E+03  0.16726709361E+03 0.  0.
         24    2    3    3    0    0 -0.18046817560E+01 -0.49832542306E+02 -0.18515277930E+03  0.20820556886E+03  0.81126247750E+02 0.  0.
         -6    2    1    2    0  501 -0.87847710409E+02  0.66994118066E+02 -0.53583908839E+03  0.57376222518E+03  0.17284134436E+03 0.  0.
        -24    2    5    5    0    0 -0.31140141929E+02  0.44880118124E+02 -0.12560009549E+03  0.15900579231E+03  0.80768338834E+02 0.  0.
          5    1    3    3  502    0  0.89652392165E+02 -0.17161575760E+02 -0.40073420426E+03  0.41102562398E+03  0.47000000000E+01 0. -1.
        -13    1    4    4    0    0 -0.91430815588E+01  0.20309631124E+02 -0.26724442274E+02  0.34788976295E+02  0.00000000000E+00 0.  1.
         14    1    4    4    0    0  0.73383998029E+01 -0.70142173430E+02 -0.15842833702E+03  0.17341659257E+03  0.00000000000E+00 0. -1.
         -5    1    5    5    0  501 -0.56707568479E+02  0.22113999941E+02 -0.41023899290E+03  0.41475643288E+03  0.47000000000E+01 0.  1.
         11    1    6    6    0    0 -0.52522300966E+02  0.98494933320E+01 -0.90034873484E+02  0.10469901175E+03  0.00000000000E+00 0. -1.
        -12    1    6    6    0    0  0.21382159037E+02  0.35030624792E+02 -0.35565222004E+02  0.54306780558E+02  0.00000000000E+00 0.  1.
</event>
<event>
12    1  0.2685360E-002  0.2741764E+03  0.7818608E-02  0.1098913E+00
          1   -1    0    0  502    0  0.00000000000E+00  0.00000000000E+00  0.15342158903E+03  0.15342158903E+03  0.00000000000E+00 0.  1.
         -1   -1    0    0    0  501 -0.00000000000E+00 -0.00000000000E+00 -0.53658475204E+03  0.53658475204E+03  0.00000000000E+00 0. -1.
          6    2    1    2  502    0  0.20953359620E+03 -0.31217596348E+02 -0.29386505666E+03  0.40255956485E+03  0.17555245789E+03 0.  0.
         24    2    3    3    0    0  0.15723746432E+03  0.30093239366E+02 -0.25907791493E+03  0.31466110517E+03  0.79126619162E+02 0.  0.
         -6    2    1    2    0  501 -0.20953359620E+03  0.31217596348E+02 -0.89298106341E+02  0.28744677622E+03  0.17254747493E+03 0.  0.
        -24    2    5    5    0    0 -0.12564840135E+03 -0.14926771043E+02 -0.11429994285E+03  0.18838512680E+03  0.80088387477E+02 0.  0.
          5    1    3    3  502    0  0.52296131874E+02 -0.61310835714E+02 -0.34787141733E+02  0.87898459684E+02  0.47000000000E+01 0. -1.
        -11    1    4    4    0    0  0.11638616814E+03  0.65471066378E+01 -0.11781886583E+03  0.16574042925E+03  0.00000000000E+00 0.  1.
         12    1    4    4    0    0  0.40851296179E+02  0.23546132729E+02 -0.14125904910E+03  0.14892067592E+03  0.00000000000E+00 0. -1.
         -5    1    5    5    0  501 -0.83885194842E+02  0.46144367390E+02  0.25001836510E+02  0.99061649413E+02  0.47000000000E+01 0.  1.
         11    1    6    6    0    0 -0.10879866340E+03 -0.26552408706E+02 -0.53274326831E+02  0.12401747242E+03  0.00000000000E+00 0. -1.
        -12    1    6    6    0    0 -0.16849737950E+02  0.11625637663E+02 -0.61025616020E+02  0.64367654383E+02  0.00000000000E+00 0.  1.
</event>
<event>
12    1  0.2685360E-002  0.1737021E+03  0.7818608E-02  0.1174041E+00
          2   -1    0    0  502    0  0.00000000000E+00  0.00000000000E+00  0.47147392161E+02  0.47147392161E+02  0.00000000000E+00 0. -1.
         -2   -1    0    0    0  501 -0.00000000000E+00 -0.00000000000E+00 -0.87885569067E+03  0.87885569067E+03  0.00000000000E+00 0.  1.
          6    2    1    2  502    0  0.24871988897E+02 -0.23143790290E+02 -0.17634143676E+03  0.24828011534E+03  0.17144230078E+03 0.  0.
         24    2    3    3    0    0  0.68647324519E+02  0.25789873874E+02 -0.12076774658E+03  0.16213309834E+03  0.79528109540E+02 0.  0.
         -6    2    1    2    0  501 -0.24871988897E+02  0.23143790290E+02 -0.65536686175E+03  0.67772296749E+03  0.16925851919E+03 0.  0.
        -24    2    5    5    0    0  0.95517814330E+01  0.52158042074E+02 -0.21352815090E+03  0.23357168788E+03  0.78420432740E+02 0.  0.
          5    1    3    3  502    0 -0.43775335623E+02 -0.48933664164E+02 -0.55573690178E+02  0.86147016997E+02  0.47000000000E+01 0. -1.
        -11    1    4    4    0    0 -0.11814427377E+02  0.14751198162E+02 -0.53294350350E+02  0.56546143287E+02  0.00000000000E+00 0.  1.
         12    1    4    4    0    0  0.80461751896E+02  0.11038675713E+02 -0.67473396229E+02  0.10558695506E+03  0.00000000000E+00 0. -1.
         -5    1    5    5    0  501 -0.34423770330E+02 -0.29014251784E+02 -0.44183871085E+03  0.44415127960E+03  0.47000000000E+01 0.  1.
         11    1    6    6    0    0 -0.47881140472E+01  0.59476196751E+01  0.54055819211E+01  0.93552408753E+01  0.00000000000E+00 0. -1.
        -12    1    6    6    0    0  0.14339895480E+02  0.46210422398E+02 -0.21893373282E+03  0.22421644701E+03  0.00000000000E+00 0.  1.
</event>
<event>
12    1  0.2685360E-002  0.2783676E+03  0.7818608E-02  0.1096584E+00
          2   -1    0    0  502    0  0.00000000000E+00  0.00000000000E+00  0.30025564790E+04  0.30025564790E+04  0.00000000000E+00 0.  1.
         -2   -1    0    0    0  501 -0.00000000000E+00 -0.00000000000E+00 -0.34848976502E+02  0.34848976502E+02  0.00000000000E+00 0. -1.
          6    2    1    2  502    0  0.69073062064E+02 -0.20753683672E+03  0.22579511162E+04  0.22750619583E+04  0.17239792409E+03 0.  0.
         24    2    3    3    0    0  0.26834111623E+02 -0.10604287517E+03  0.67304460758E+03  0.68634049612E+03  0.78160552082E+02 0.  0.
         -6    2    1    2    0  501 -0.69073062064E+02  0.20753683672E+03  0.70975638626E+03  0.76234349721E+03  0.17196177892E+03 0.  0.
        -24    2    5    5    0    0 -0.73245981539E+02  0.13108616326E+03  0.63548365665E+03  0.65556968445E+03  0.58168524874E+02 0.  0.
          5    1    3    3  502    0  0.42238950441E+02 -0.10149396155E+03  0.15849065086E+04  0.15887214622E+04  0.47000000000E+01 0. -1.
        -13    1    4    4    0    0  0.47736411497E+02 -0.51436679869E+02  0.46385279907E+03  0.46913102245E+03  0.00000000000E+00 0.  1.
         14    1    4    4    0    0 -0.20902299874E+02 -0.54606195300E+02  0.20919180851E+03  0.21720947367E+03  0.00000000000E+00 0. -1.
         -5    1    5    5    0  501  0.41729194746E+01  0.76450673456E+02  0.74272729606E+02  0.10677381276E+03  0.47000000000E+01 0.  1.
         13    1    6    6    0    0 -0.52084140575E+02  0.37923961240E+02  0.21974097806E+03  0.22899144520E+03  0.00000000000E+00 0. -1.
        -14    1    6    6    0    0 -0.21161840964E+02  0.93162202022E+02  0.41574267859E+03  0.42657823924E+03  0.00000000000E+00 0.  1.
</event>
<event>
12    1  0.2685360E-002  0.1719323E+03  0.7818608E-02  0.1175848E+00
         -1   -1    0    0    0  501 -0.00000000000E+00  0.00000000000E+00  0.26323121133E+02  0.26323121133E+02  0.00000000000E+00 0.  1.
          1   -1    0    0  502    0  0.00000000000E+00 -0.00000000000E+00 -0.11661606203E+04  0.11661606203E+04  0.00000000000E+00 0. -1.
          6    2    1    2  502    0  0.18220715825E+01 -0.41554110847E+01 -0.45259278695E+03  0.48385645733E+03  0.17104459393E+03 0.  0.
         24    2    3    3    0    0 -0.46353514152E+02  0.18546453067E+02 -0.39312072909E+03  0.40388597926E+03  0.78021518850E+02 0.  0.
         -6    2    1    2    0  501 -0.18220715825E+01  0.41554110847E+01 -0.68724471218E+03  0.70862728407E+03  0.17270421512E+03 0.  0.
        -24    2    5    5    0    0 -0.12760511208E+02  0.25610691280E+02 -0.67606507802E+03  0.68166336874E+03  0.82354237408E+02 0.  0.
          5    1    3    3  502    0  0.48175585735E+02 -0.22701864152E+02 -0.59472057862E+02  0.79970478073E+02  0.47000000000E+01 0. -1.
        -11    1    4    4    0    0 -0.53747966449E+02 -0.29738043420E+01 -0.14407380295E+03  0.15380165184E+03  0.00000000000E+00 0.  1.
         12    1    4    4    0    0  0.73944522962E+01  0.21520257409E+02 -0.24904692614E+03  0.25008432742E+03  0.00000000000E+00 0. -1.
         -5    1    5    5    0  501  0.10938439625E+02 -0.21455280195E+02 -0.11179634165E+02  0.26963915327E+02  0.47000000000E+01 0.  1.
         11    1    6    6    0    0  0.18246624486E+02 -0.20917755904E+02 -0.32389477131E+03  0.32508201227E+03  0.00000000000E+00 0. -1.
        -12    1    6    6    0    0 -0.31007135694E+02  0.46528447184E+02 -0.35217030670E+03  0.35658135647E+03  0.00000000000E+00 0.  1.
</event>
<event>
12    1  0.2685360E-002  0.2356334E+03  0.7818608E-02  0.1122736E+00
          2   -1    0    0  502    0  0.00000000000E+00  0.00000000000E+00  0.72035179453E+03  0.72035179453E+03  0.00000000000E+00 0. -1.
         -2   -1    0    0    0  501 -0.00000000000E+00 -0.00000000000E+00 -0.80852354545E+02  0.80852354545E+02  0.00000000000E+00 0.  1.
          6    2    1    2  502    0 -0.11107212654E+03  0.11694033896E+03  0.40672281023E+03  0.47021151076E+03  0.17223054411E+03 0.  0.
         24    2    3    3    0    0 -0.34151483965E+02  0.11394871905E+03  0.17661017552E+03  0.22751901047E+03  0.80144317322E+02 0.  0.
         -6    2    1    2    0  501  0.11107212654E+03 -0.11694033896E+03  0.23277662975E+03  0.33099263831E+03  0.17134499434E+03 0.  0.
        -24    2    5    5    0    0  0.11618064533E+03 -0.22833522903E+02  0.13350181172E+03  0.19402633118E+03  0.76185112337E+02 0.  0.
          5    1    3    3  502    0 -0.76920642577E+02  0.29916199068E+01  0.23011263471E+03  0.24269250029E+03  0.47000000000E+01 0. -1.
        -13    1    4    4    0    0 -0.16222091440E+02  0.11057431483E+03  0.17693200873E+03  0.20927200258E+03  0.00000000000E+00 0.  1.
         14    1    4    4    0    0 -0.17929392525E+02  0.33744042195E+01 -0.32183321749E+00  0.18247007886E+02  0.00000000000E+00 0. -1.
         -5    1    5    5    0  501 -0.51085187887E+01 -0.94106816054E+02  0.99274818033E+02  0.13696630713E+03  0.47000000000E+01 0.  1.
         11    1    6    6    0    0  0.57024687653E+02  0.17614319456E+02  0.96269900825E+02  0.11326947098E+03  0.00000000000E+00 0. -1.
        -12    1    6    6    0    0  0.59155957678E+02 -0.40447842360E+02  0.37231910893E+02  0.80756860198E+02  0.00000000000E+00 0.  1.
</event>
<event>
12    1  0.2685360E-002  0.1846900E+03  0.7818608E-02  0.1163340E+00
          1   -1    0    0  502    0  0.00000000000E+00  0.00000000000E+00  0.94335438890E+03  0.94335438890E+03  0.00000000000E+00 0.  1.
         -1   -1    0    0    0  501 -0.00000000000E+00 -0.00000000000E+00 -0.41448695538E+02  0.41448695538E+02  0.00000000000E+00 0. -1.
          6    2    1    2  502    0  0.20100935476E+02  0.68363498639E+02  0.62485047319E+03  0.65130941278E+03  0.16937597757E+03 0.  0.
         24    2    3    3    0    0  0.65379508876E+02  0.18473670622E+02  0.26626776238E+03  0.28642204024E+03  0.80766993042E+02 0.  0.
         -6    2    1    2    0  501 -0.20100935476E+02 -0.68363498639E+02  0.27705522018E+03  0.33349367166E+03  0.17140833836E+03 0.  0.
        -24    2    5    5    0    0 -0.13417854956E+02 -0.10754140714E+03  0.15967994465E+03  0.20948311814E+03  0.81488029671E+02 0.  0.
          5    1    3    3  502    0 -0.45278573399E+02  0.49889828017E+02  0.35858271081E+03  0.36488737254E+03  0.47000000000E+01 0. -1.
        -13    1    4    4    0    0  0.49755377060E+02 -0.17895903097E+02  0.79312573527E+02  0.95322322745E+02  0.00000000000E+00 0.  1.
         14    1    4    4    0    0  0.15624131816E+02  0.36369573719E+02  0.18695518885E+03  0.19109971750E+03  0.00000000000E+00 0. -1.
         -5    1    5    5    0  501 -0.66830805202E+01  0.39177908504E+02  0.11737527553E+03  0.12401055353E+03  0.47000000000E+01 0.  1.
         11    1    6    6    0    0 -0.38769764633E+02 -0.63418474727E+02  0.53009495928E+02  0.91296244419E+02  0.00000000000E+00 0. -1.
        -12    1    6    6    0    0  0.25351909677E+02 -0.44122932416E+02  0.10667044872E+03  0.11818687372E+03  0.00000000000E+00 0.  1.
</event>
<event>
12    1  0.2685360E-002  0.1865246E+03  0.7818608E-02  0.1161634E+00
         -2   -1    0    0    0  501 -0.00000000000E+00  0.00000000000E+00  0.96434988475E+02  0.96434988475E+02  0.00000000000E+00 0. -1.
          2   -1    0    0  502    0  0.00000000000E+00 -0.00000000000E+00 -0.56701893084E+03  0.56701893084E+03  0.00000000000E+00 0.  1.
          6    2    1    2  502    0  0.70983958247E+02  0.17124847958E+02 -0.35524867743E+02  0.19024155483E+03  0.17204025752E+03 0.  0.
         24    2    3    3    0    0  0.11106775419E+01  0.15375673221E+02 -0.75068726069E+02  0.10979814801E+03  0.78629986274E+02 0.  0.
         -6    2    1    2    0  501 -0.70983958247E+02 -0.17124847958E+02 -0.43505907462E+03  0.47321236449E+03  0.17123539572E+03 0.  0.
        -24    2    5    5    0    0  0.25792992236E+02 -0.26621082555E+02 -0.18308027430E+03  0.20308024417E+03  0.79682107462E+02 0.  0.
          5    1    3    3  502    0  0.69873280705E+02  0.17491747374E+01  0.39543858326E+02  0.80443406816E+02  0.47000000000E+01 0. -1.
        -11    1    4    4    0    0 -0.11547174891E+02 -0.27673508625E+02 -0.11780949138E+02  0.32217248334E+02  0.00000000000E+00 0.  1.
         12    1    4    4    0    0  0.12657852433E+02  0.43049181846E+02 -0.63287776931E+02  0.77580899677E+02  0.00000000000E+00 0. -1.
         -5    1    5    5    0  501 -0.96776950483E+02  0.94962345972E+01 -0.25197880033E+03  0.27013212032E+03  0.47000000000E+01 0.  1.
         11    1    6    6    0    0 -0.13144105016E+01 -0.30670164196E+02 -0.17682190453E+02  0.35426635544E+02  0.00000000000E+00 0. -1.
        -12    1    6    6    0    0  0.27107402738E+02  0.40490816405E+01 -0.16539808384E+03  0.16765360862E+03  0.00000000000E+00 0.  1.
</event>
<event>
12    1  0.2685360E-002  0.2065697E+03  0.7818608E-02  0.1144312E+00
          2   -1    0    0  502    0  0.00000000000E+00  0.00000000000E+00  0.45572239527E+03  0.45572239527E+03  0.00000000000E+00 0. -1.
         -2   -1    0    0    0  501 -0.00000000000E+00 -0.00000000000E+00 -0.93889057417E+02  0.93889057417E+02  0.00000000000E+00 0.  1.
          6    2    1    2  502    0 -0.95134683046E+02  0.41009588645E+02  0.18539820900E+03  0.27238209919E+03  0.17054945846E+03 0.  0.
         24    2    3    3    0    0 -0.38883641514E+02  0.68734363967E+02  0.17513020457E+03  0.20866110772E+03  0.81440278437E+02 0.  0.
         -6    2    1    2    0  501  0.95134683046E+02 -0.41009588645E+02  0.17643512886E+03  0.27722935350E+03  0.18706780981E+03 0.  0.
        -24    2    5    5    0    0  0.13015946835E+03 -0.61205396013E+02  0.16387265173E+03  0.23463226378E+03  0.86662942027E+02 0.  0.
          5    1    3    3  502    0 -0.56251041532E+02 -0.27724775323E+02  0.10268004427E+02  0.63720991479E+02  0.47000000000E+01 0. -1.
        -11    1    4    4    0    0  0.68624389036E+01  0.40834446975E+02  0.22990660487E+02  0.47361541330E+02  0.00000000000E+00 0.  1.
         12    1    4    4    0    0 -0.45746080417E+02  0.27899916992E+02  0.15213954409E+03  0.16129956639E+03  0.00000000000E+00 0. -1.
         -5    1    5    5    0  501 -0.35024785299E+02  0.20195807369E+02  0.12562477125E+02  0.42597089713E+02  0.47000000000E+01 0.  1.
         11    1    6    6    0    0  0.35267759096E+01  0.14364857101E+01  0.57900320566E+02  0.58025414787E+02  0.00000000000E+00 0. -1.
        -12    1    6    6    0    0  0.12663269244E+03 -0.62641881723E+02  0.10597233117E+03  0.17660684900E+03  0.00000000000E+00 0.  1.
</event>
<event>
12    1  0.2685360E-002  0.1729294E+03  0.7818608E-02  0.1174827E+00
         -1   -1    0    0    0  501 -0.00000000000E+00  0.00000000000E+00  0.76880918722E+03  0.76880918722E+03  0.00000000000E+00 0.  1.
          1   -1    0    0  502    0  0.00000000000E+00 -0.00000000000E+00 -0.53981018524E+02  0.53981018524E+02  0.00000000000E+00 0. -1.
          6    2    1    2  502    0 -0.30899505886E+02  0.50180635333E+01  0.57135506459E+03  0.59628698638E+03  0.16772477418E+03 0.  0.
         24    2    3    3    0    0 -0.53941347743E+02  0.34525972702E+02  0.53096962960E+03  0.54101749626E+03  0.81666834817E+02 0.  0.
         -6    2    1    2    0  501  0.30899505886E+02 -0.50180635333E+01  0.14347310411E+03  0.22650321937E+03  0.17245062005E+03 0.  0.
        -24    2    5    5    0    0  0.18337918295E+00 -0.66686859522E+02  0.78220342728E+02  0.13149514757E+03  0.82008420037E+02 0.  0.
          5    1    3    3  502    0  0.23041841857E+02 -0.29507909169E+02  0.40385434986E+02  0.55269490125E+02  0.47000000000E+01 0. -1.
        -11    1    4    4    0    0 -0.60078000137E+02 -0.28407335826E+01  0.23242239729E+03  0.24007833436E+03  0.00000000000E+00 0.  1.
         12    1    4    4    0    0  0.61366523939E+01  0.37366706285E+02  0.29854723231E+03  0.30093916190E+03  0.00000000000E+00 0. -1.
         -5    1    5    5    0  501  0.30716126703E+02  0.61668795989E+02  0.65252761386E+02  0.95008071798E+02  0.47000000000E+01 0.  1.
         13    1    6    6    0    0  0.37626157094E+01 -0.10303413808E+02 -0.17319448075E+02  0.20500753515E+02  0.00000000000E+00 0. -1.
        -14    1    6    6    0    0 -0.35792365264E+01 -0.56383445714E+02  0.95539790803E+02  0.11099439405E+03  0.00000000000E+00 0.  1.
</event>
<event>
12    1  0.2685360E-002  0.5882175E+03  0.7818608E-02  0.9930157E-01
         -1   -1    0    0    0  501 -0.00000000000E+00  0.00000000000E+00  0.73698887220E+03  0.73698887220E+03  0.00000000000E+00 0. -1.
          1   -1    0    0  502    0  0.00000000000E+00 -0.00000000000E+00 -0.50333011851E+03  0.50333011851E+03  0.00000000000E+00 0.  1.
          6    2    1    2  502    0  0.39992897743E+03 -0.39518961493E+03 -0.44375149677E+02  0.58780477075E+03  0.16561182285E+03 0.  0.
         24    2    3    3    0    0  0.31302725899E+03 -0.28415525083E+03  0.24069971140E+02  0.43100118902E+03  0.80326770013E+02 0.  0.
         -6    2    1    2    0  501 -0.39992897743E+03  0.39518961493E+03  0.27803390336E+03  0.65251421996E+03  0.17987200198E+03 0.  0.
        -24    2    5    5    0    0 -0.23777819549E+03  0.31703481748E+03  0.23422204379E+03  0.46719660750E+03  0.79769408413E+02 0.  0.
          5    1    3    3  502    0  0.86901718440E+02 -0.11103436410E+03 -0.68445120818E+02  0.15680358173E+03  0.47000000000E+01 0. -1.
        -11    1    4    4    0    0  0.56263420728E+01 -0.18305759446E+01 -0.10650654340E+02  0.12183725673E+02  0.00000000000E+00 0.  1.
         12    1    4    4    0    0  0.30740091692E+03 -0.28232467489E+03  0.34720625480E+02  0.41881746335E+03  0.00000000000E+00 0. -1.
         -5    1    5    5    0  501 -0.16215078194E+03  0.78154797451E+02  0.43811859572E+02  0.18531761246E+03  0.47000000000E+01 0.  1.
         11    1    6    6    0    0 -0.32275397051E+02  0.12029461851E+02  0.78233357903E+01  0.35321576835E+02  0.00000000000E+00 0. -1.
        -12    1    6    6    0    0 -0.20550279843E+03  0.30500535563E+03  0.22639870800E+03  0.43187503066E+03  0.00000000000E+00 0.  1.
</event>
<event>
12    1  0.2685360E-002  0.1783977E+03  0.7818608E-02  0.1169363E+00
          1   -1    0    0  502    0  0.00000000000E+00  0.00000000000E+00  0.28937668849E+04  0.28937668849E+04  0.00000000000E+00 0. -1.
         -1   -1    0    0    0  501 -0.00000000000E+00 -0.00000000000E+00 -0.21675145046E+02  0.21675145046E+02  0.00000000000E+00 0.  1.
          6    2    1    2  502    0  0.19592256382E+02  0.44270715875E+02  0.41356383943E+03  0.45046114025E+03  0.17186167925E+03 0.  0.
         24    2    3    3    0    0  0.64384847576E+02 -0.16271481285E+02  0.24487228298E+03  0.26566215464E+03  0.78764051042E+02 0.  0.
         -6    2    1    2    0  501 -0.19592256382E+02 -0.44270715875E+02  0.24585279004E+04  0.24649808897E+04  0.17154473654E+03 0.  0.
        -24    2    5    5    0    0 -0.74897396541E+02 -0.55076505009E+01  0.15688935635E+04  0.15727743120E+04  0.80944850597E+02 0.  0.
          5    1    3    3  502    0 -0.44792591194E+02  0.60542197160E+02  0.16869155645E+03  0.18479898561E+03  0.47000000000E+01 0. -1.
        -11    1    4    4    0    0  0.44150399437E+02 -0.93354910481E+01  0.41942980789E+02  0.61608626028E+02  0.00000000000E+00 0.  1.
         12    1    4    4    0    0  0.20234448138E+02 -0.69359902370E+01  0.20292930219E+03  0.20405352862E+03  0.00000000000E+00 0. -1.
         -5    1    5    5    0  501  0.55305140159E+02 -0.38763065374E+02  0.88963433695E+03  0.89220657767E+03  0.47000000000E+01 0.  1.
         11    1    6    6    0    0 -0.52425636346E+02  0.68676932326E+01  0.14577454348E+04  0.14587040019E+04  0.00000000000E+00 0. -1.
        -12    1    6    6    0    0 -0.22471760195E+02 -0.12375343733E+02  0.11114812871E+03  0.11407031013E+03  0.00000000000E+00 0.  1.
</event>
<event>
12    1  0.2685360E-002  0.2013478E+03  0.7818608E-02  0.1148607E+00
         -1   -1    0    0    0  501 -0.00000000000E+00  0.00000000000E+00  0.27440629891E+02  0.27440629891E+02  0.00000000000E+00 0.  1.
          1   -1    0    0  502    0  0.00000000000E+00 -0.00000000000E+00 -0.15345942572E+04  0.15345942572E+04  0.00000000000E+00 0. -1.
          6    2    1    2  502    0  0.10569503177E+03 -0.82162266632E+01 -0.60319599365E+03  0.63594803759E+03  0.17130543958E+03 0.  0.
         24    2    3    3    0    0  0.57896109116E+02 -0.42062505427E+02 -0.53504493650E+03  0.54596490481E+03  0.81751938203E+02 0.  0.
         -6    2    1    2    0  501 -0.10569503177E+03  0.82162266632E+01 -0.90395763367E+03  0.92608684952E+03  0.17105117147E+03 0.  0.
        -24    2    5    5    0    0 -0.27037603967E+02 -0.30129253568E+02 -0.23986993275E+03  0.25624214265E+03  0.80521097145E+02 0.  0.
          5    1    3    3  502    0  0.47798922650E+02  0.33846278764E+02 -0.68151057155E+02  0.89983132775E+02  0.47000000000E+01 0. -1.
        -11    1    4    4    0    0  0.10495827383E+02 -0.41982899859E+01 -0.48340919695E+01  0.12294571014E+02  0.00000000000E+00 0.  1.
         12    1    4    4    0    0  0.47400281732E+02 -0.37864215441E+02 -0.53021084453E+03  0.53367033380E+03  0.00000000000E+00 0. -1.
         -5    1    5    5    0  501 -0.78657427798E+02  0.38345480232E+02 -0.66408770092E+03  0.66984470687E+03  0.47000000000E+01 0.  1.
         13    1    6    6    0    0 -0.76995835793E+01  0.21686554137E+02 -0.14177168281E+03  0.14362729638E+03  0.00000000000E+00 0. -1.
        -14    1    6    6    0    0 -0.19338020388E+02 -0.51815807705E+02 -0.98098249934E+02  0.11261484627E+03  0.00000000000E+00 0.  1.
</event>
<event>
12    1  0.2685360E-002  0.1884747E+03  0.7818608E-02  0.1159844E+00
          1   -1    0    0  502    0  0.00000000000E+00  0.00000000000E+00  0.14261258891E+02  0.14261258891E+02  0.00000000000E+00 0. -1.
         -1   -1    0    0    0  501 -0.00000000000E+00 -0.00000000000E+00 -0.27447794502E+04  0.27447794502E+04  0.00000000000E+00 0.  1.
          6    2    1    2  502    0 -0.75168443939E+02  0.55136671235E+01 -0.17854036873E+04  0.17953330494E+04  0.17284020345E+03 0.  0.
         24    2    3    3    0    0 -0.43174275377E+02 -0.47779908643E+02 -0.15078807020E+04  0.15108951309E+04  0.70377180819E+02 0.  0.
         -6    2    1    2    0  501  0.75168443939E+02 -0.55136671235E+01 -0.94511450395E+03  0.96370765970E+03  0.17265668909E+03 0.  0.
        -24    2    5    5    0    0  0.11583624069E+03 -0.25912589203E+02 -0.72102825868E+03  0.73500103313E+03  0.79090277237E+02 0.  0.
          5    1    3    3  502    0 -0.31994168562E+02  0.53293575767E+02 -0.27752298536E+03  0.28443791843E+03  0.47000000000E+01 0. -1.
        -11    1    4    4    0    0 -0.44204638249E+02 -0.10149065153E+02 -0.11781096354E+04  0.11789823436E+04  0.00000000000E+00 0.  1.
         12    1    4    4    0    0  0.10303628722E+01 -0.37630843491E+02 -0.32977106656E+03  0.33191278729E+03  0.00000000000E+00 0. -1.
         -5    1    5    5    0  501 -0.40667796751E+02  0.20398922080E+02 -0.22408624527E+03  0.22870662656E+03  0.47000000000E+01 0.  1.
         11    1    6    6    0    0  0.22970779449E+02 -0.24673447250E+02 -0.38191532612E+03  0.38340025043E+03  0.00000000000E+00 0. -1.
        -12    1    6    6    0    0  0.92865461240E+02 -0.12391419533E+01 -0.33911293256E+03  0.35160078270E+03  0.00000000000E+00 0.  1.
</event>
<event>
12    1  0.2685360E-002  0.2284787E+03  0.7818608E-02  0.1127715E+00
         -2   -1    0    0    0  501 -0.00000000000E+00  0.00000000000E+00  0.19189418568E+03  0.19189418568E+03  0.00000000000E+00 0. -1.
          2   -1    0    0  502    0  0.00000000000E+00 -0.00000000000E+00 -0.28262415699E+03  0.28262415699E+03  0.00000000000E+00 0.  1.
          6    2    1    2  502    0  0.94219970371E+02  0.11730178344E+03  0.61583930136E+00  0.22814585674E+03  0.17150230750E+03 0.  0.
         24    2    3    3    0    0  0.43621895104E+02 -0.78394674751E+00 -0.30997494716E+02  0.95760442961E+02  0.79408648474E+02 0.  0.
         -6    2    1    2    0  501 -0.94219970371E+02 -0.11730178344E+03 -0.91345810611E+02  0.24637248593E+03  0.17238977200E+03 0.  0.
        -24    2    5    5    0    0 -0.11405444587E+03 -0.10721148571E+03 -0.11350470730E+03  0.21461831724E+03  0.93139595356E+02 0.  0.
          5    1    3    3  502    0  0.50598075267E+02  0.11808573019E+03  0.31613334017E+02  0.13238541378E+03  0.47000000000E+01 0. -1.
        -11    1    4    4    0    0  0.62773492866E+02  0.16106763906E+02 -0.18918319208E+02  0.67511791946E+02  0.00000000000E+00 0.  1.
         12    1    4    4    0    0 -0.19151597762E+02 -0.16890710653E+02 -0.12079175508E+02  0.28248651015E+02  0.00000000000E+00 0. -1.
         -5    1    5    5    0  501  0.19834475499E+02 -0.10090297734E+02  0.22158896694E+02  0.31754168693E+02  0.47000000000E+01 0.  1.
         11    1    6    6    0    0 -0.44614956227E+02 -0.79603772032E+02 -0.17429184030E+02  0.92903343841E+02  0.00000000000E+00 0. -1.
        -12    1    6    6    0    0 -0.69439489642E+02 -0.27607713675E+02 -0.96075523275E+02  0.12171497340E+03  0.00000000000E+00 0.  1.
</event>
<event>
12    1  0.2685360E-002  0.1734121E+03  0.7818608E-02  0.1174336E+00
         -2   -1    0    0    0  501 -0.00000000000E+00  0.00000000000E+00  0.38853770065E+02  0.38853770065E+02  0.00000000000E+00 0. -1.
          2   -1    0    0  502    0  0.00000000000E+00 -0.00000000000E+00 -0.85360724616E+03  0.85360724616E+03  0.00000000000E+00 0.  1.
          6    2    1    2  502    0 -0.23824195661E+02  0.84187007352E+00 -0.54223847257E+03  0.56909004666E+03  0.17109242834E+03 0.  0.
         24    2    3    3    0    0 -0.48303107735E+02 -0.15315162339E+02 -0.16046098545E+03  0.18615871274E+03  0.79621567820E+02 0.  0.
         -6    2    1    2    0  501  0.23824195661E+02 -0.84187007352E+00 -0.27251500353E+03  0.32337096957E+03  0.17244145605E+03 0.  0.
        -24    2    5    5    0    0 -0.18084386601E+02 -0.58161656435E+02 -0.12550797553E+03  0.16004600681E+03  0.78438823662E+02 0.  0.
          5    1    3    3  502    0  0.24478912074E+02  0.16157032413E+02 -0.38177748711E+03  0.38293133392E+03  0.47000000000E+01 0. -1.
        -11    1    4    4    0    0 -0.47148065397E+02 -0.38333211823E+02 -0.14793315440E+03  0.15992683756E+03  0.00000000000E+00 0.  1.
         12    1    4    4    0    0 -0.11550423386E+01  0.23018049483E+02 -0.12527831050E+02  0.26231875184E+02  0.00000000000E+00 0. -1.
         -5    1    5    5    0  501  0.41908582262E+02  0.57319786362E+02 -0.14700702800E+03  0.16332496275E+03  0.47000000000E+01 0.  1.
         11    1    6    6    0    0 -0.19923016235E+02 -0.37676444551E+02 -0.11425918843E+02  0.44124739901E+02  0.00000000000E+00 0. -1.
        -12    1    6    6    0    0  0.18386296340E+01 -0.20485211884E+02 -0.11408205669E+03  0.11592126691E+03  0.00000000000E+00 0.  1.
</event>
<event>
12    1  0.2685360E-002  0.2671593E+03  0.7818608E-02  0.1102916E+00
          2   -1    0    0  502    0  0.00000000000E+00  0.00000000000E+00  0.10228770685E+04  0.10228770685E+04  0.00000000000E+00 0.  1.
         -2   -1    0    0    0  501 -0.00000000000E+00 -0.00000000000E+00 -0.69786018102E+02  0.69786018102E+02  0.00000000000E+00 0. -1.
          6    2    1    2  502    0  0.18660339623E+03 -0.81767549318E+02  0.48243324308E+03  0.55145450206E+03  0.17278157946E+03 0.  0.
         24    2    3    3    0    0  0.35255287056E+02 -0.11936564459E+02  0.25045669645E+03  0.26576616701E+03  0.80732161441E+02 0.  0.
         -6    2    1    2    0  501 -0.18660339623E+03  0.81767549318E+02  0.47065780729E+03  0.54120858453E+03  0.17286179680E+03 0.  0.
        -24    2    5    5    0    0 -0.11390365513E+03  0.78265098966E+02  0.17684802348E+03  0.23848131688E+03  0.80614184371E+02 0.  0.
          5    1    3    3  502    0  0.15134810917E+03 -0.69830984859E+02  0.23197654663E+03  0.28568833505E+03  0.47000000000E+01 0. -1.
        -11    1    4    4    0    0  0.38898236184E+02  0.28547265176E+02  0.13691343693E+03  0.14516648490E+03  0.00000000000E+00 0.  1.
         12    1    4    4    0    0 -0.36429491286E+01 -0.40483829635E+02  0.11354325952E+03  0.12059968210E+03  0.00000000000E+00 0. -1.
         -5    1    5    5    0  501 -0.72699741095E+02  0.35024503513E+01  0.29380978381E+03  0.30272726765E+03  0.47000000000E+01 0.  1.
         11    1    6    6    0    0 -0.12390224935E+03  0.82792734709E+02  0.16475289113E+03  0.22214841762E+03  0.00000000000E+00 0. -1.
        -12    1    6    6    0    0  0.99985942144E+01 -0.45276357429E+01  0.12095132344E+02  0.16332899256E+02  0.00000000000E+00 0.  1.
</event>
<event>
12    1  0.2685360E-002  0.2002739E+03  0.7818608E-02  0.1149508E+00
         -1   -1    0    0    0  501 -0.00000000000E+00  0.00000000000E+00  0.58006340030E+02  0.58006340030E+02  0.00000000000E+00 0.  1.
          1   -1    0    0  502    0  0.00000000000E+00 -0.00000000000E+00 -0.69147312963E+03  0.69147312963E+03  0.00000000000E+00 0. -1.
          6    2    1    2  502    0 -0.53561193685E+02  0.85717233087E+02 -0.31783542318E+03  0.37579544633E+03  0.17316643941E+03 0.  0.
         24    2    3    3    0    0 -0.22693806943E+02 -0.21053925549E+02 -0.11179678328E+03  0.14164402735E+03  0.81278736925E+02 0.  0.
         -6    2    1    2    0  501  0.53561193685E+02 -0.85717233087E+02 -0.31563136642E+03  0.37368402333E+03  0.17262776227E+03 0.  0.
        -24    2    5    5    0    0  0.72822394336E+02 -0.10203020420E+03 -0.31448507196E+03  0.34798361734E+03  0.80488966741E+02 0.  0.
          5    1    3    3  502    0 -0.30867386742E+02  0.10677115864E+03 -0.20603863990E+03  0.23415141898E+03  0.47000000000E+01 0. -1.
        -13    1    4    4    0    0 -0.40858972188E+02 -0.15380614257E+01 -0.18988398982E+02  0.45081931382E+02  0.00000000000E+00 0.  1.
         14    1    4    4    0    0  0.18165165245E+02 -0.19515864123E+02 -0.92808384298E+02  0.96562095964E+02  0.00000000000E+00 0. -1.
         -5    1    5    5    0  501 -0.19261200650E+02  0.16312971112E+02 -0.11462944601E+01  0.25700405989E+02  0.47000000000E+01 0.  1.
         13    1    6    6    0    0  0.23172760450E+02  0.67086116502E+01 -0.95465982127E+02  0.98466928664E+02  0.00000000000E+00 0. -1.
        -14    1    6    6    0    0  0.49649633885E+02 -0.10873881585E+03 -0.21901908983E+03  0.24951668868E+03  0.00000000000E+00 0.  1.
</event>
<event>
12    1  0.2685360E-002  0.2917204E+03  0.7818608E-02  0.1089454E+00
         -3   -1    0    0    0  501 -0.00000000000E+00  0.00000000000E+00  0.43662280340E+03  0.43662280340E+03  0.00000000000E+00 0.  1.
          3   -1    0    0  502    0  0.00000000000E+00 -0.00000000000E+00 -0.19937798661E+03  0.19937798661E+03  0.00000000000E+00 0. -1.
          6    2    1    2  502    0 -0.42923489818E+02  0.22377731420E+03  0.16825058302E+03  0.34229334035E+03  0.19219198690E+03 0.  0.
         24    2    3    3    0    0  0.48657673026E+02  0.11535172758E+03  0.12158210824E+03  0.19281674097E+03  0.81990830925E+02 0.  0.
         -6    2    1    2    0  501  0.42923489818E+02 -0.22377731420E+03  0.68994233770E+02  0.29370744965E+03  0.17200334113E+03 0.  0.
        -24    2    5    5    0    0  0.87359816041E+02 -0.15580945783E+03  0.17341639833E+02  0.19735239245E+03  0.82090862627E+02 0.  0.
          5    1    3    3  502    0 -0.91581162843E+02  0.10842558663E+03  0.46668474782E+02  0.14947659938E+03  0.47000000000E+01 0. -1.
        -13    1    4    4    0    0  0.41195388063E+02  0.59137950465E+02  0.17308570881E+02  0.74121142792E+02  0.00000000000E+00 0.  1.
         14    1    4    4    0    0  0.74622849630E+01  0.56213777111E+02  0.10427353736E+03  0.11869559818E+03  0.00000000000E+00 0. -1.
         -5    1    5    5    0  501 -0.44436326223E+02 -0.67967856373E+02  0.51652593937E+02  0.96355057203E+02  0.47000000000E+01 0.  1.
         13    1    6    6    0    0  0.73262912988E+02 -0.13893246986E+03  0.43694134044E+02  0.16303025164E+03  0.00000000000E+00 0. -1.
        -14    1    6    6    0    0  0.14096903052E+02 -0.16876987967E+02 -0.26352494210E+02  0.34322140807E+02  0.00000000000E+00 0.  1.
</event>
<event>
12    1  0.2685360E-002  0.2070236E+03  0.7818608E-02  0.1143945E+00
         -2   -1    0    0    0  501 -0.00000000000E+00  0.00000000000E+00  0.86379098507E+02  0.86379098507E+02  0.00000000000E+00 0.  1.
          2   -1    0    0  502    0  0.00000000000E+00 -0.00000000000E+00 -0.78520843011E+03  0.78520843011E+03  0.00000000000E+00 0. -1.
          6    2    1    2  502    0 -0.57562271922E+02  0.10218744187E+03 -0.61489346291E+03  0.64913442543E+03  0.17183085617E+03 0.  0.
         24    2    3    3    0    0 -0.77161700966E+01  0.13429769454E+02 -0.43558884039E+03  0.44289476888E+03  0.78601783942E+02 0.  0.
         -6    2    1    2    0  501  0.57562271922E+02 -0.10218744187E+03 -0.83935868695E+02  0.22245310318E+03  0.16936488608E+03 0.  0.
        -24    2    5    5    0    0  0.21854301101E+02  0.11057425609E+02 -0.15847856630E+02  0.85494983385E+02  0.80363925281E+02 0.  0.
          5    1    3    3  502    0 -0.49846101825E+02  0.88757672419E+02 -0.17930462251E+03  0.20623965655E+03  0.47000000000E+01 0. -1.
        -11    1    4    4    0    0 -0.31378555790E+02  0.33403041722E+02 -0.19455358580E+03  0.19987864996E+03  0.00000000000E+00 0.  1.
         12    1    4    4    0    0  0.23662385693E+02 -0.19973272268E+02 -0.24103525459E+03  0.24301611893E+03  0.00000000000E+00 0. -1.
         -5    1    5    5    0  501  0.35707970820E+02 -0.11324486748E+03 -0.68088012064E+02  0.13695811980E+03  0.47000000000E+01 0.  1.
         13    1    6    6    0    0 -0.19884769559E+02  0.95547121387E+01  0.20508820597E+02  0.30121558836E+02  0.00000000000E+00 0. -1.
        -14    1    6    6    0    0  0.41739070660E+02  0.15027134707E+01 -0.36356677227E+02  0.55373424549E+02  0.00000000000E+00 0.  1.
</event>
<event>
12    1  0.2685360E-002  0.1930531E+03  0.7818608E-02  0.1155736E+00
         -2   -1    0    0    0  501 -0.00000000000E+00  0.00000000000E+00  0.12277737733E+02  0.12277737733E+02  0.00000000000E+00 0.  1.
          2   -1    0    0  502    0  0.00000000000E+00 -0.00000000000E+00 -0.30804519295E+04  0.30804519295E+04  0.00000000000E+00 0. -1.
          6    2    1    2  502    0  0.50991714686E+02 -0.66860589353E+02 -0.13564358628E+04  0.13702653602E+04  0.17503832168E+03 0.  0.
         24    2    3    3    0    0  0.58633435882E+02 -0.24471246418E+02 -0.12652620256E+04  0.12693197764E+04  0.79044162405E+02 0.  0.
         -6    2    1    2    0  501 -0.50991714686E+02  0.66860589353E+02 -0.17117383290E+04  0.17224643071E+04  0.17252445864E+03 0.  0.
        -24    2    5    5    0    0  0.25662549995E+02  0.46531237695E+02 -0.12701424410E+04  0.12737793651E+04  0.80176854872E+02 0.  0.
          5    1    3    3  502    0 -0.76417211962E+01 -0.42389342935E+02 -0.91173837195E+02  0.10094558379E+03  0.47000000000E+01 0. -1.
        -11    1    4    4    0    0 -0.12703524779E+02 -0.24672480040E+02 -0.48898124458E+03  0.48976807610E+03  0.00000000000E+00 0.  1.
         12    1    4    4    0    0  0.71336960662E+02  0.20123362197E+00 -0.77628078099E+03  0.77955170027E+03  0.00000000000E+00 0. -1.
         -5    1    5    5    0  501 -0.76654264681E+02  0.20329351658E+02 -0.44159588800E+03  0.44868494195E+03  0.47000000000E+01 0.  1.
         13    1    6    6    0    0 -0.14099899602E+02  0.35215031839E+02 -0.97700145947E+03  0.97773757085E+03  0.00000000000E+00 0. -1.
        -14    1    6    6    0    0  0.39762449598E+02  0.11316205856E+02 -0.29314098152E+03  0.29604179428E+03  0.00000000000E+00 0.  1.
</event>
<event>
12    1  0.2685360E-002  0.2349933E+03  0.7818608E-02  0.1123174E+00
         -2   -1    0    0    0  501 -0.00000000000E+00  0.00000000000E+00  0.86556071828E+02  0.86556071828E+02  0.00000000000E+00 0. -1.
          2   -1    0    0  502    0  0.00000000000E+00 -0.00000000000E+00 -0.64212243830E+03  0.64212243830E+03  0.00000000000E+00 0.  1.
          6    2    1    2  502    0 -0.66322774413E+02  0.14598682044E+03 -0.30724870233E+03  0.38693479865E+03  0.17206368349E+03 0.  0.
         24    2    3    3    0    0 -0.50949120704E+02  0.17301813643E+03 -0.22443413608E+03  0.29834933903E+03  0.78170059676E+02 0.  0.
         -6    2    1    2    0  501  0.66322774413E+02 -0.14598682044E+03 -0.24831766414E+03  0.34174371148E+03  0.17151163185E+03 0.  0.
        -24    2    5    5    0    0  0.38873835239E+02 -0.10660435102E+03 -0.69092086743E+02  0.15614112326E+03  0.82040667958E+02 0.  0.
          5    1    3    3  502    0 -0.15373653708E+02 -0.27031315990E+02 -0.82814566253E+02  0.88585459620E+02  0.47000000000E+01 0. -1.
        -11    1    4    4    0    0 -0.65310437144E+00  0.12174442726E+03 -0.11514976774E+03  0.16757565791E+03  0.00000000000E+00 0.  1.
         12    1    4    4    0    0 -0.50296016333E+02  0.51273709171E+02 -0.10928436833E+03  0.13077368112E+03  0.00000000000E+00 0. -1.
         -5    1    5    5    0  501  0.27448939173E+02 -0.39382469417E+02 -0.17922557740E+03  0.18560258822E+03  0.47000000000E+01 0.  1.
         13    1    6    6    0    0 -0.20033553560E+02 -0.36205541670E+02 -0.45218980609E+02  0.61293888139E+02  0.00000000000E+00 0. -1.
        -14    1    6    6    0    0  0.58907388800E+02 -0.70398809352E+02 -0.23873106134E+02  0.94847235120E+02  0.00000000000E+00 0.  1.
</event>
<event>
12    1  0.2685360E-002  0.1757344E+03  0.7818608E-02  0.1171996E+00
          2   -1    0    0  502    0  0.00000000000E+00  0.00000000000E+00  0.30671370818E+04  0.30671370818E+04  0.00000000000E+00 0. -1.
         -2   -1    0    0    0  501 -0.00000000000E+00 -0.00000000000E+00 -0.15916306787E+02  0.15916306787E+02  0.00000000000E+00 0.  1.
          6    2    1    2  502    0  0.34697097669E+02  0.28022972924E+02  0.24482404343E+04  0.24543904149E+04  0.16781510392E+03 0.  0.
         24    2    3    3    0    0 -0.29771283129E+01  0.31987732478E+02  0.22858097959E+04  0.22875345822E+04  0.82800745144E+02 0.  0.
         -6    2    1    2    0  501 -0.34697097669E+02 -0.28022972924E+02  0.60298034079E+03  0.62866297375E+03  0.17217046083E+03 0.  0.
        -24    2    5    5    0    0 -0.59362473958E+02  0.10215973294E+02  0.35990623088E+03  0.38132168988E+03  0.11065923695E+03 0.  0.
          5    1    3    3  502    0  0.37674225982E+02 -0.39647595539E+01  0.16243063838E+03  0.16685583270E+03  0.47000000000E+01 0. -1.
        -13    1    4    4    0    0 -0.85877475769E+01  0.45662811299E+02  0.65021025361E+03  0.65186825022E+03  0.00000000000E+00 0.  1.
         14    1    4    4    0    0  0.56106192639E+01 -0.13675078821E+02  0.16355995423E+04  0.16356663320E+04  0.00000000000E+00 0. -1.
         -5    1    5    5    0  501  0.24665376288E+02 -0.38238946219E+02  0.24307410991E+03  0.24734128387E+03  0.47000000000E+01 0.  1.
         13    1    6    6    0    0 -0.12602654533E+02  0.10804652109E+02  0.31828782177E+03  0.31872041807E+03  0.00000000000E+00 0. -1.
        -14    1    6    6    0    0 -0.46759819425E+02 -0.58867881470E+00  0.41618409114E+02  0.62601271813E+02  0.00000000000E+00 0.  1.
</event>
<event>
12    1  0.2685360E-002  0.1984569E+03  0.7818608E-02  0.1151048E+00
          2   -1    0    0  502    0  0.00000000000E+00  0.00000000000E+00  0.50820268883E+03  0.50820268883E+03  0.00000000000E+00 0.  1.
         -2   -1    0    0    0  501 -0.00000000000E+00 -0.00000000000E+00 -0.77539632039E+02  0.77539632039E+02  0.00000000000E+00 0. -1.
          6    2    1    2  502    0 -0.84574826667E+02 -0.50834317770E+02  0.20931773126E+03  0.28885175932E+03  0.17287104174E+03 0.  0.
         24    2    3    3    0    0  0.14655377307E+02 -0.25289537325E+02  0.13841852443E+03  0.16416031327E+03  0.83274124227E+02 0.  0.
         -6    2    1    2    0  501  0.84574826667E+02  0.50834317770E+02  0.22134532552E+03  0.29689056154E+03  0.17150283739E+03 0.  0.
        -24    2    5    5    0    0  0.99528537926E+01 -0.88963406906E+01  0.16860364004E+03  0.18762041108E+03  0.81215928491E+02 0.  0.
          5    1    3    3  502    0 -0.99230203974E+02 -0.25544780444E+02  0.70899206833E+02  0.12469144605E+03  0.47000000000E+01 0. -1.
        -13    1    4    4    0    0  0.17199922653E+02 -0.29584759925E+02  0.14877674910E+03  0.15266177135E+03  0.00000000000E+00 0.  1.
         14    1    4    4    0    0 -0.25445453456E+01  0.42952225994E+01 -0.10358224665E+02  0.11498541925E+02  0.00000000000E+00 0. -1.
         -5    1    5    5    0  501  0.74621972874E+02  0.59730658460E+02  0.52741685482E+02  0.10927015047E+03  0.47000000000E+01 0.  1.
         13    1    6    6    0    0 -0.17430070377E+02 -0.25214402530E+02  0.22355458378E+02  0.37938634235E+02  0.00000000000E+00 0. -1.
        -14    1    6    6    0    0  0.27382924170E+02  0.16318061840E+02  0.14624818166E+03  0.14968177684E+03  0.00000000000E+00 0.  1.
</event>
<event>
12    1  0.2685360E-002  0.1776862E+03  0.7818608E-02  0.1170061E+00
          1   -1    0    0  502    0  0.00000000000E+00  0.00000000000E+00  0.25547797441E+03  0.25547797441E+03  0.00000000000E+00 0.  1.
         -1   -1    0    0    0  501 -0.00000000000E+00 -0.00000000000E+00 -0.12582032841E+03  0.12582032841E+03  0.00000000000E+00 0. -1.
          6    2    1    2  502    0 -0.37904391314E+02  0.28363615947E+02  0.90828999913E+02  0.20116214005E+03  0.17313307533E+03 0.  0.
         24    2    3    3    0    0  0.15456147044E+02  0.75505629626E+02  0.53465267393E+02  0.12061491778E+03  0.75825002380E+02 0.  0.
         -6    2    1    2    0  501  0.37904391314E+02 -0.28363615947E+02  0.38828646087E+02  0.18013616278E+03  0.16941114424E+03 0.  0.
        -24    2    5    5    0    0  0.78853153092E+02 -0.30246149099E+02  0.62768052567E+02  0.13243364498E+03  0.80412639619E+02 0.  0.
          5    1    3    3  502    0 -0.53360538358E+02 -0.47142013679E+02  0.37363732520E+02  0.80547222270E+02  0.47000000000E+01 0. -1.
        -13    1    4    4    0    0  0.44258827445E+02  0.35838676409E+02  0.40580734599E+02  0.69928896418E+02  0.00000000000E+00 0.  1.
         14    1    4    4    0    0 -0.28802680401E+02  0.39666953217E+02  0.12884532794E+02  0.50686021358E+02  0.00000000000E+00 0. -1.
         -5    1    5    5    0  501 -0.40948761778E+02  0.18825331523E+01 -0.23939406480E+02  0.47702517804E+02  0.47000000000E+01 0.  1.
         13    1    6    6    0    0  0.62521844826E+02  0.17826463952E+02  0.43015074344E+02  0.77955503451E+02  0.00000000000E+00 0. -1.
        -14    1    6    6    0    0  0.16331308266E+02 -0.48072613051E+02  0.19752978223E+02  0.54478141524E+02  0.00000000000E+00 0.  1.
</event>
<event>
12    1  0.2685360E-002  0.2906108E+03  0.7818608E-02  0.1090031E+00
          2   -1    0    0  502    0  0.00000000000E+00  0.00000000000E+00  0.15921371687E+04  0.15921371687E+04  0.00000000000E+00 0.  1.
         -2   -1    0    0    0  501 -0.00000000000E+00 -0.00000000000E+00 -0.54352048887E+02  0.54352048887E+02  0.00000000000E+00 0. -1.
          6    2    1    2  502    0 -0.18933216103E+03 -0.13194303467E+03  0.64649012541E+03  0.70962678761E+03  0.17990292894E+03 0.  0.
         24    2    3    3    0    0 -0.86941481238E+01 -0.45519975966E+02  0.22157589385E+03  0.23986809321E+03  0.79329496285E+02 0.  0.
         -6    2    1    2    0  501  0.18933216103E+03  0.13194303467E+03  0.89129499442E+03  0.93686242999E+03  0.17334593752E+03 0.  0.
        -24    2    5    5    0    0  0.20323836592E+03  0.97940253527E+02  0.64078859837E+03  0.68363305547E+03  0.76459139996E+02 0.  0.
          5    1    3    3  502    0 -0.18063801291E+03 -0.86423058707E+02  0.42491423156E+03  0.46975869440E+03  0.47000000000E+01 0. -1.
        -11    1    4    4    0    0 -0.12108908833E+02  0.90108788376E+01  0.14508154439E+03  0.14586458149E+03  0.00000000000E+00 0.  1.
         12    1    4    4    0    0  0.34147607092E+01 -0.54530854803E+02  0.76494349459E+02  0.94003511719E+02  0.00000000000E+00 0. -1.
         -5    1    5    5    0  501 -0.13906204884E+02  0.34002781145E+02  0.25050639604E+03  0.25322937452E+03  0.47000000000E+01 0.  1.
         13    1    6    6    0    0  0.48208281166E+02  0.49646251837E+02  0.12485063057E+03  0.14274616859E+03  0.00000000000E+00 0. -1.
        -14    1    6    6    0    0  0.15503008475E+03  0.48294001690E+02  0.51593796781E+03  0.54088688688E+03  0.00000000000E+00 0.  1.
</event>
<event>
12    1  0.2685360E-002  0.2472157E+03  0.7818608E-02  0.1115077E+00
         -1   -1    0    0    0  501 -0.00000000000E+00  0.00000000000E+00  0.14243223968E+03  0.14243223968E+03  0.00000000000E+00 0.  1.
          1   -1    0    0  502    0  0.00000000000E+00 -0.00000000000E+00 -0.50938998077E+03  0.50938998077E+03  0.00000000000E+00 0. -1.
          6    2    1    2  502    0 -0.16878470561E+03 -0.53807834227E+02 -0.31269468288E+03  0.39842976019E+03  0.17200217798E+03 0.  0.
         24    2    3    3    0    0 -0.18541535138E+02 -0.19601221267E+02 -0.16760900269E+03  0.18673411252E+03  0.77774382653E+02 0.  0.
         -6    2    1    2    0  501  0.16878470561E+03  0.53807834227E+02 -0.54263058213E+02  0.25339246026E+03  0.17285745444E+03 0.  0.
        -24    2    5    5    0    0  0.68287368802E+02  0.95385451348E+02 -0.26873819738E+02  0.14113973942E+03  0.73733810352E+02 0.  0.
          5    1    3    3  502    0 -0.15024317047E+03 -0.34206612960E+02 -0.14508568019E+03  0.21169564767E+03  0.47000000000E+01 0. -1.
        -11    1    4    4    0    0  0.19254477036E+02  0.12371450513E+02 -0.17908548600E+02  0.29060347326E+02  0.00000000000E+00 0.  1.
         12    1    4    4    0    0 -0.37796012174E+02 -0.31972671780E+02 -0.14970045409E+03  0.15767376520E+03  0.00000000000E+00 0. -1.
         -5    1    5    5    0  501  0.10049733681E+03 -0.41577617121E+02 -0.27389238476E+02  0.11225272084E+03  0.47000000000E+01 0.  1.
         13    1    6    6    0    0 -0.13252209645E+02  0.32602175757E+02 -0.19053683598E+01  0.35244196021E+02  0.00000000000E+00 0. -1.
        -14    1    6    6    0    0  0.81539578447E+02  0.62783275591E+02 -0.24968451378E+02  0.10589554340E+03  0.00000000000E+00 0.  1.
</event>
<event>
12    1  0.2685360E-002  0.1742404E+03  0.7818608E-02  0.1173497E+00
         -2   -1    0    0    0  501 -0.00000000000E+00  0.00000000000E+00  0.16456396515E+02  0.16456396515E+02  0.00000000000E+00 0.  1.
          2   -1    0    0  502    0  0.00000000000E+00 -0.00000000000E+00 -0.19650007615E+04  0.19650007615E+04  0.00000000000E+00 0. -1.
          6    2    1    2  502    0 -0.97481795554E+01  0.19282407727E+02 -0.12165473932E+04  0.12288895989E+04  0.17238111312E+03 0.  0.
         24    2    3    3    0    0 -0.46512430894E+02  0.47255935595E+02 -0.58246727399E+03  0.59311148038E+03  0.90092026302E+02 0.  0.
         -6    2    1    2    0  501  0.97481795554E+01 -0.19282407727E+02 -0.73199697181E+03  0.75256755913E+03  0.17341143578E+03 0.  0.
        -24    2    5    5    0    0  0.34942568657E+02 -0.62145700101E+02 -0.63106529771E+03  0.63995622794E+03  0.78851078365E+02 0.  0.
          5    1    3    3  502    0  0.36764251339E+02 -0.27973527868E+02 -0.63408011919E+03  0.63577811852E+03  0.47000000000E+01 0. -1.
        -11    1    4    4    0    0 -0.21367312587E+02 -0.26282094818E+02 -0.19636443666E+03  0.19926440360E+03  0.00000000000E+00 0.  1.
         12    1    4    4    0    0 -0.25145118307E+02  0.73538030413E+02 -0.38610283733E+03  0.39384707678E+03  0.00000000000E+00 0. -1.
         -5    1    5    5    0  501 -0.25194389102E+02  0.42863292374E+02 -0.10093167411E+03  0.11261133119E+03  0.47000000000E+01 0.  1.
         13    1    6    6    0    0  0.32641340909E+02 -0.55418145507E+01 -0.42370933493E+03  0.42500090512E+03  0.00000000000E+00 0. -1.
        -14    1    6    6    0    0  0.23012277482E+01 -0.56603885550E+02 -0.20735596278E+03  0.21495532282E+03  0.00000000000E+00 0.  1.
</event>
<event>
12    1  0.2685360E-002  0.1829731E+03  0.7818608E-02  0.1164956E+00
         -2   -1    0    0    0  501 -0.00000000000E+00  0.00000000000E+00  0.75528423064E+02  0.75528423064E+02  0.00000000000E+00 0. -1.
          2   -1    0    0  502    0  0.00000000000E+00 -0.00000000000E+00 -0.60431410360E+03  0.60431410360E+03  0.00000000000E+00 0.  1.
          6    2    1    2  502    0  0.55559886402E+02 -0.36532169052E+02 -0.85549360669E+02  0.19905759277E+03  0.16698422613E+03 0.  0.
         24    2    3    3    0    0  0.32176568344E+02 -0.47764047330E+02 -0.12045806607E+03  0.15531239456E+03  0.79341404416E+02 0.  0.
         -6    2    1    2    0  501 -0.55559886402E+02  0.36532169052E+02 -0.44323631987E+03  0.48078493390E+03  0.17399487653E+03 0.  0.
        -24    2    5    5    0    0 -0.56069704101E+02  0.38629277662E+02 -0.12612860148E+03  0.16363504372E+03  0.78942831286E+02 0.  0.
          5    1    3    3  502    0  0.23383318058E+02  0.11231878278E+02  0.34908705405E+02  0.43745198206E+02  0.47000000000E+01 0. -1.
        -11    1    4    4    0    0  0.94110798589E+01 -0.61809373400E+02 -0.50351779906E+02  0.80276203223E+02  0.00000000000E+00 0.  1.
         12    1    4    4    0    0  0.22765488485E+02  0.14045326070E+02 -0.70106286168E+02  0.75036191339E+02  0.00000000000E+00 0. -1.
         -5    1    5    5    0  501  0.50981769974E+00 -0.20971086100E+01 -0.31710771838E+03  0.31714989017E+03  0.47000000000E+01 0.  1.
         11    1    6    6    0    0 -0.10824040508E+02  0.75804236641E+00  0.10320677381E+02  0.14975007938E+02  0.00000000000E+00 0. -1.
        -12    1    6    6    0    0 -0.45245663594E+02  0.37871235296E+02 -0.13644927887E+03  0.14866003579E+03  0.00000000000E+00 0.  1.
</event>
<event>
12    1  0.2685360E-002  0.1939382E+03  0.7818608E-02  0.1154957E+00
          4   -1    0    0  502    0  0.00000000000E+00  0.00000000000E+00  0.94523525572E+03  0.94523525572E+03  0.00000000000E+00 0. -1.
         -4   -1    0    0    0  501 -0.00000000000E+00 -0.00000000000E+00 -0.63105585975E+02  0.63105585975E+02  0.00000000000E+00 0.  1.
          6    2    1    2  502    0 -0.40969307364E+02 -0.83425560570E+02  0.13690937405E+03  0.23869357371E+03  0.17202365281E+03 0.  0.
         24    2    3    3    0    0 -0.48342839002E+02  0.36975400094E+01  0.86018332101E+01  0.83356138884E+02  0.67257359970E+02 0.  0.
         -6    2    1    2    0  501  0.40969307364E+02  0.83425560570E+02  0.74522029570E+03  0.76964726799E+03  0.16842006915E+03 0.  0.
        -24    2    5    5    0    0  0.63989320023E+02  0.28035231268E+02  0.26045550157E+03  0.28116287193E+03  0.79591990702E+02 0.  0.
          5    1    3    3  502    0  0.73735316384E+01 -0.87123100579E+02  0.12830754084E+03  0.15533743483E+03  0.47000000000E+01 0. -1.
        -11    1    4    4    0    0 -0.83660735205E+01 -0.18570288023E+02 -0.20682495456E+02  0.29027786717E+02  0.00000000000E+00 0.  1.
         12    1    4    4    0    0 -0.39976765482E+02  0.22267828032E+02  0.29284328667E+02  0.54328352166E+02  0.00000000000E+00 0. -1.
         -5    1    5    5    0  501 -0.23020012660E+02  0.55390329302E+02  0.48476479413E+03  0.48848439606E+03  0.47000000000E+01 0.  1.
         11    1    6    6    0    0  0.14435300005E+02 -0.37117291015E+01  0.18437778604E+03  0.18497924966E+03  0.00000000000E+00 0. -1.
        -12    1    6    6    0    0  0.49554020018E+02  0.31746960370E+02  0.76077715526E+02  0.96183622266E+02  0.00000000000E+00 0.  1.
</event>
<event>
12    1  0.2685360E-002  0.1750872E+03  0.7818608E-02  0.1172644E+00
          1   -1    0    0  502    0  0.00000000000E+00  0.00000000000E+00  0.33231452975E+03  0.33231452975E+03  0.00000000000E+00 0.  1.
         -1   -1    0    0    0  501 -0.00000000000E+00 -0.00000000000E+00 -0.92678187396E+02  0.92678187396E+02  0.00000000000E+00 0. -1.
          6    2    1    2  502    0 -0.21347763058E+02 -0.18975598671E+02  0.13477908788E+03  0.22156298486E+03  0.17351931707E+03 0.  0.
         24    2    3    3    0    0 -0.14571330243E+02  0.32714049009E+02  0.14480479620E+03  0.16826810194E+03  0.77866504094E+02 0.  0.
         -6    2    1    2    0  501  0.21347763058E+02  0.18975598671E+02  0.10485725447E+03  0.20342973229E+03  0.17196747317E+03 0.  0.
        -24    2    5    5    0    0  0.31160855219E+02 -0.13973288374E+02 -0.85905418182E+01  0.84794078207E+02  0.77136156272E+02 0.  0.
          5    1    3    3  502    0 -0.67764328152E+01 -0.51689647680E+02 -0.10025708314E+02  0.53294882926E+02  0.47000000000E+01 0. -1.
        -13    1    4    4    0    0  0.12729276550E+02  0.47330605533E+02  0.57065434998E+02  0.75224228631E+02  0.00000000000E+00 0.  1.
         14    1    4    4    0    0 -0.27300606793E+02 -0.14616556525E+02  0.87739361200E+02  0.93043873306E+02  0.00000000000E+00 0. -1.
         -5    1    5    5    0  501 -0.98130921611E+01  0.32948887045E+02  0.11344779629E+03  0.11863565408E+03  0.47000000000E+01 0.  1.
         13    1    6    6    0    0  0.19495940362E+02  0.23640042672E+02 -0.27441909151E+02  0.41133948097E+02  0.00000000000E+00 0. -1.
        -14    1    6    6    0    0  0.11664914857E+02 -0.37613331046E+02  0.18851367333E+02  0.43660130111E+02  0.00000000000E+00 0.  1.
</event>
<event>
12    1  0.2685360E-002  0.2620543E+03  0.7818608E-02  0.1105915E+00
         -1   -1    0    0    0  501 -0.00000000000E+00  0.00000000000E+00  0.35261440141E+03  0.35261440141E+03  0.00000000000E+00 0.  1.
          1   -1    0    0  502    0  0.00000000000E+00 -0.00000000000E+00 -0.24200884659E+03  0.24200884659E+03  0.00000000000E+00 0. -1.
          6    2    1    2  502    0 -0.12883899518E+03 -0.14926411172E+03 -0.76198325658E+02  0.27220708035E+03  0.17149707879E+03 0.  0.
         24    2    3    3    0    0 -0.10009356745E+03 -0.14834613622E+03 -0.59743470875E+01  0.19617656371E+03  0.80151437604E+02 0.  0.
         -6    2    1    2    0  501  0.12883899518E+03  0.14926411172E+03  0.18680388047E+03  0.32241616764E+03  0.17371595687E+03 0.  0.
        -24    2    5    5    0    0  0.41236868500E+02  0.13870686302E+03  0.79688772216E+02  0.18355895855E+03  0.80021982459E+02 0.  0.
          5    1    3    3  502    0 -0.28745427732E+02 -0.91797550244E+00 -0.70223978571E+02  0.76030516642E+02  0.47000000000E+01 0. -1.
        -13    1    4    4    0    0 -0.13846914144E+02 -0.61851318270E+02 -0.32430750991E+02  0.71197445269E+02  0.00000000000E+00 0.  1.
         14    1    4    4    0    0 -0.86246653309E+02 -0.86494817949E+02  0.26456403903E+02  0.12497911844E+03  0.00000000000E+00 0. -1.
         -5    1    5    5    0  501  0.87602126685E+02  0.10557248706E+02  0.10711510826E+03  0.13885720909E+03  0.47000000000E+01 0.  1.
         13    1    6    6    0    0  0.43497564285E+02  0.28338923378E+02  0.95931788991E+01  0.52793576866E+02  0.00000000000E+00 0. -1.
        -14    1    6    6    0    0 -0.22606957855E+01  0.11036793964E+03  0.70095593317E+02  0.13076538169E+03  0.00000000000E+00 0.  1.
</event>
<event>
12    1  0.2685360E-002  0.2783223E+03  0.7818608E-02  0.1096609E+00
         -2   -1    0    0    0  501 -0.00000000000E+00  0.00000000000E+00  0.26786108014E+03  0.26786108014E+03  0.00000000000E+00 0. -1.
          2   -1    0    0  502    0  0.00000000000E+00 -0.00000000000E+00 -0.29334810255E+03  0.29334810255E+03  0.00000000000E+00 0.  1.
          6    2    1    2  502    0  0.22715423165E+01  0.22008441640E+03  0.20532234677E+02  0.28080882187E+03  0.17317537796E+03 0.  0.
         24    2    3    3    0    0  0.29044407267E+02  0.34677414578E+02 -0.75845341391E+01  0.91322185634E+02  0.78969081010E+02 0.  0.
         -6    2    1    2    0  501 -0.22715423165E+01 -0.22008441640E+03 -0.46019257091E+02  0.28040036083E+03  0.16752396868E+03 0.  0.
        -24    2    5    5    0    0 -0.59183083743E+02 -0.14526275781E+03 -0.58298818575E+02  0.18547891029E+03  0.79998548165E+02 0.  0.
          5    1    3    3  502    0 -0.26772864950E+02  0.18540700182E+03  0.28116768816E+02  0.18948663623E+03  0.47000000000E+01 0. -1.
        -11    1    4    4    0    0 -0.45205411145E+01  0.43911029431E+02 -0.26717622164E+02  0.51598886923E+02  0.00000000000E+00 0.  1.
         12    1    4    4    0    0  0.33564948381E+02 -0.92336148527E+01  0.19133088024E+02  0.39723298710E+02  0.00000000000E+00 0. -1.
         -5    1    5    5    0  501  0.56911541426E+02 -0.74821658593E+02  0.12279561485E+02  0.94921450539E+02  0.47000000000E+01 0.  1.
         11    1    6    6    0    0 -0.55173084440E+02 -0.40180283488E+02 -0.74115959021E+01  0.68654615152E+02  0.00000000000E+00 0. -1.
        -12    1    6    6    0    0 -0.40099993022E+01 -0.10508247432E+03 -0.50887222673E+02  0.11682429514E+03  0.00000000000E+00 0.  1.
</event>
<event>
12    1  0.2685360E-002  0.2352632E+03  0.7818608E-02  0.1122989E+00
          2   -1    0    0  502    0  0.00000000000E+00  0.00000000000E+00  0.11622859304E+04  0.11622859304E+04  0.00000000000E+00 0. -1.
         -2   -1    0    0    0  501 -0.00000000000E+00 -0.00000000000E+00 -0.84554136979E+02  0.84554136979E+02  0.00000000000E+00 0.  1.
          6    2    1    2  502    0 -0.99620462319E+02 -0.11246318253E+03  0.13147761988E+03  0.27261695006E+03  0.18563790828E+03 0.  0.
         24    2    3    3    0    0  0.54114407422E+01 -0.11310144774E+02  0.98862011590E+01  0.82695385150E+02  0.81139304200E+02 0.  0.
         -6    2    1    2    0  501  0.99620462319E+02  0.11246318253E+03  0.94625417351E+03  0.97422311730E+03  0.17646959355E+03 0.  0.
        -24    2    5    5    0    0 -0.30294014335E+02  0.24731538401E+02  0.37018378832E+03  0.37718560480E+03  0.60856939138E+02 0.  0.
          5    1    3    3  502    0 -0.10503190306E+03 -0.10115303776E+03  0.12159141872E+03  0.18992156491E+03  0.47000000000E+01 0. -1.
        -13    1    4    4    0    0 -0.10603323573E+02  0.32973612008E+02  0.29405269452E+00  0.34637783224E+02  0.00000000000E+00 0.  1.
         14    1    4    4    0    0  0.16014764316E+02 -0.44283756782E+02  0.95921484645E+01  0.48057601927E+02  0.00000000000E+00 0. -1.
         -5    1    5    5    0  501  0.12991447665E+03  0.87731644132E+02  0.57607038520E+03  0.59703751250E+03  0.47000000000E+01 0.  1.
         11    1    6    6    0    0 -0.20795731307E+02 -0.17157073493E+02  0.19279210497E+03  0.19466798235E+03  0.00000000000E+00 0. -1.
        -12    1    6    6    0    0 -0.94982830285E+01  0.41888611894E+02  0.17739168335E+03  0.18251762246E+03  0.00000000000E+00 0.  1.
</event>
<event>
12    1  0.2685360E-002  0.2167728E+03  0.7818608E-02  0.1136312E+00
          1   -1    0    0  502    0  0.00000000000E+00  0.00000000000E+00  0.43240543363E+03  0.43240543363E+03  0.00000000000E+00 0. -1.
         -1   -1    0    0    0  501 -0.00000000000E+00 -0.00000000000E+00 -0.12882667421E+03  0.12882667421E+03  0.00000000000E+00 0.  1.
          6    2    1    2  502    0  0.23303475387E+02  0.12931882005E+03  0.41266957919E+02  0.22144218803E+03  0.17339916851E+03 0.  0.
         24    2    3    3    0    0 -0.50575582545E+02  0.10136934842E+03  0.33108414539E+02  0.14189383798E+03  0.78765854241E+02 0.  0.
         -6    2    1    2    0  501 -0.23303475387E+02 -0.12931882005E+03  0.26231180150E+03  0.33978991981E+03  0.17141557461E+03 0.  0.
        -24    2    5    5    0    0  0.76967724916E+01 -0.56084526543E+02  0.54458403776E+02  0.11719297002E+03  0.86969880164E+02 0.  0.
          5    1    3    3  502    0  0.73879057932E+02  0.27949471625E+02  0.81585433805E+01  0.79548350047E+02  0.47000000000E+01 0. -1.
        -13    1    4    4    0    0 -0.95446122317E+01 -0.72154391451E+01 -0.12383369076E+02  0.17219466146E+02  0.00000000000E+00 0.  1.
         14    1    4    4    0    0 -0.41030970313E+02  0.10858478757E+03  0.45491783614E+02  0.12467437183E+03  0.00000000000E+00 0. -1.
         -5    1    5    5    0  501 -0.31000247879E+02 -0.73234293502E+02  0.20785339772E+03  0.22259694980E+03  0.47000000000E+01 0.  1.
         11    1    6    6    0    0 -0.40689176082E+01  0.93490629425E+01  0.49484688999E+02  0.50524207205E+02  0.00000000000E+00 0. -1.
        -12    1    6    6    0    0  0.11765690100E+02 -0.65433589486E+02  0.49737147773E+01  0.66668762815E+02  0.00000000000E+00 0.  1.
</event>
<event>
12    1  0.2685360E-002  0.2158304E+03  0.7818608E-02  0.1137030E+00
          1   -1    0    0  502    0  0.00000000000E+00  0.00000000000E+00  0.12772488026E+04  0.12772488026E+04  0.00000000000E+00 0. -1.
         -1   -1    0    0    0  501 -0.00000000000E+00 -0.00000000000E+00 -0.36502077313E+02  0.36502077313E+02  0.00000000000E+00 0.  1.
          6    2    1    2  502    0 -0.88026458839E+02 -0.96284092805E+02  0.63700473102E+03  0.67231739354E+03  0.17092795656E+03 0.  0.
         24    2    3    3    0    0 -0.68276555945E+02 -0.12067605893E+03  0.40207307748E+03  0.43525200486E+03  0.92504858303E+02 0.  0.
         -6    2    1    2    0  501  0.88026458839E+02  0.96284092805E+02  0.60374199431E+03  0.64143348641E+03  0.17295443856E+03 0.  0.
        -24    2    5    5    0    0  0.40238795486E+02  0.65097029298E+01  0.43626529962E+03  0.44543951939E+03  0.80171172414E+02 0.  0.
          5    1    3    3  502    0 -0.19749902894E+02  0.24391966123E+02  0.23493165354E+03  0.23706538869E+03  0.47000000000E+01 0. -1.
        -13    1    4    4    0    0  0.21462087418E+02 -0.14722304127E+02  0.89919255745E+02  0.93610042137E+02  0.00000000000E+00 0.  1.
         14    1    4    4    0    0 -0.89738643363E+02 -0.10595375480E+03  0.31215382173E+03  0.34164196272E+03  0.00000000000E+00 0. -1.
         -5    1    5    5    0  501  0.47787663353E+02  0.89774389876E+02  0.16747669469E+03  0.19599396702E+03  0.47000000000E+01 0.  1.
         13    1    6    6    0    0  0.23603452400E+02  0.43364144681E+02  0.22777798714E+03  0.23306733669E+03  0.00000000000E+00 0. -1.
        -14    1    6    6    0    0  0.16635343087E+02 -0.36854441751E+02  0.20848731248E+03  0.21237218269E+03  0.00000000000E+00 0.  1.
</event>
<event>
12    1  0.2685360E-002  0.2224006E+03  0.7818608E-02  0.1132106E+00
         -1   -1    0    0    0  501 -0.00000000000E+00  0.00000000000E+00  0.42858745850E+02  0.42858745850E+02  0.00000000000E+00 0. -1.
          1   -1    0    0  502    0  0.00000000000E+00 -0.00000000000E+00 -0.12648979145E+04  0.12648979145E+04  0.00000000000E+00 0.  1.
          6    2    1    2  502    0 -0.25705294375E+02 -0.13733837495E+03 -0.80673273854E+03  0.83705924090E+03  0.17414898780E+03 0.  0.
         24    2    3    3    0    0  0.47219031042E+02 -0.40905244501E+02 -0.32659387220E+03  0.34191004434E+03  0.79599278521E+02 0.  0.
         -6    2    1    2    0  501  0.25705294375E+02  0.13733837495E+03 -0.41530643012E+03  0.47069741945E+03  0.17191288024E+03 0.  0.
        -24    2    5    5    0    0  0.50166876954E+02  0.13047307754E+03 -0.21405720859E+03  0.26779635860E+03  0.79714877057E+02 0.  0.
          5    1    3    3  502    0 -0.72924325417E+02 -0.96433130453E+02 -0.48013886634E+03  0.49514919656E+03  0.47000000000E+01 0. -1.
        -13    1    4    4    0    0  0.71169671383E+01 -0.41142014217E+02 -0.26593828379E+03  0.26919600172E+03  0.00000000000E+00 0.  1.
         14    1    4    4    0    0  0.40102063904E+02  0.23676971580E+00 -0.60655588416E+02  0.72714042628E+02  0.00000000000E+00 0. -1.
         -5    1    5    5    0  501 -0.24461582580E+02  0.68652974133E+01 -0.20124922153E+03  0.20290106086E+03  0.47000000000E+01 0.  1.
         11    1    6    6    0    0  0.31356579407E+02  0.10169648647E+03 -0.20692209726E+03  0.23268468958E+03  0.00000000000E+00 0. -1.
        -12    1    6    6    0    0  0.18810297547E+02  0.28776591069E+02 -0.71351113299E+01  0.35111669016E+02  0.00000000000E+00 0.  1.
</event>
<event>
12    1  0.2685360E-002  0.1769344E+03  0.7818608E-02  0.1170803E+00
          4   -1    0    0  502    0  0.00000000000E+00  0.00000000000E+00  0.12346956278E+04  0.12346956278E+04  0.00000000000E+00 0.  1.
         -4   -1    0    0    0  501 -0.00000000000E+00 -0.00000000000E+00 -0.34311323779E+02  0.34311323779E+02  0.00000000000E+00 0. -1.
          6    2    1    2  502    0 -0.28986968576E+02  0.48051047104E+01  0.92552618838E+03  0.94237426337E+03  0.17494911689E+03 0.  0.
         24    2    3    3    0    0 -0.75959231566E+02  0.41720738659E+01  0.81146496203E+03  0.81892853612E+03  0.79883362550E+02 0.  0.
         -6    2    1    2    0  501  0.28986968576E+02 -0.48051047104E+01  0.27485811566E+03  0.32663268823E+03  0.17400745932E+03 0.  0.
        -24    2    5    5    0    0  0.44930731660E+02  0.37637994141E+02  0.25903034548E+03  0.27838096774E+03  0.83449709829E+02 0.  0.
          5    1    3    3  502    0  0.46972262989E+02  0.63303084450E+00  0.11406122636E+03  0.12344572725E+03  0.47000000000E+01 0. -1.
        -11    1    4    4    0    0 -0.89345437733E+01 -0.20364350420E+02  0.44629182710E+03  0.44684553011E+03  0.00000000000E+00 0.  1.
         12    1    4    4    0    0 -0.67024687792E+02  0.24536424286E+02  0.36517313492E+03  0.37208300601E+03  0.00000000000E+00 0. -1.
         -5    1    5    5    0  501 -0.15943763084E+02 -0.42443098851E+02  0.15827770178E+02  0.48251720489E+02  0.47000000000E+01 0.  1.
         11    1    6    6    0    0  0.34516677072E+02  0.48793246729E+02  0.86287328704E+02  0.10496516097E+03  0.00000000000E+00 0. -1.
        -12    1    6    6    0    0  0.10414054588E+02 -0.11155252589E+02  0.17274301678E+03  0.17341580678E+03  0.00000000000E+00 0.  1.
</event>
<event>
12    1  0.2685360E-002  0.1796985E+03  0.7818608E-02  0.1168095E+00
          3   -1    0    0  502    0  0.00000000000E+00  0.00000000000E+00  0.38868237649E+03  0.38868237649E+03  0.00000000000E+00 0.  1.
         -3   -1    0    0    0  501 -0.00000000000E+00 -0.00000000000E+00 -0.84195725692E+02  0.84195725692E+02  0.00000000000E+00 0. -1.
          6    2    1    2  502    0 -0.41183457160E+02  0.25314281919E+02  0.17940385152E+03  0.25387065224E+03  0.17299617370E+03 0.  0.
         24    2    3    3    0    0 -0.19453065193E+02  0.23494417430E+02  0.14246393352E+02  0.87213525688E+02  0.80453899493E+02 0.  0.
         -6    2    1    2    0  501  0.41183457160E+02 -0.25314281919E+02  0.12508279927E+03  0.21900744993E+03  0.17315214824E+03 0.  0.
        -24    2    5    5    0    0  0.28969886454E+02  0.19030627238E+02 -0.25804051186E+01  0.83229594479E+02  0.75624650824E+02 0.  0.
          5    1    3    3  502    0 -0.21730391966E+02  0.18198644888E+01  0.16515745817E+03  0.16665712656E+03  0.47000000000E+01 0. -1.
        -11    1    4    4    0    0 -0.30861497827E+02  0.18548393963E+01  0.40746684411E+02  0.51148458118E+02  0.00000000000E+00 0.  1.
         12    1    4    4    0    0  0.11408432634E+02  0.21639578034E+02 -0.26500291059E+02  0.36065067570E+02  0.00000000000E+00 0. -1.
         -5    1    5    5    0  501  0.12213570706E+02 -0.44344909157E+02  0.12766320439E+03  0.13577785546E+03  0.47000000000E+01 0.  1.
         13    1    6    6    0    0  0.49635067936E+02 -0.34134866722E+01  0.90694134810E+01  0.50572187229E+02  0.00000000000E+00 0. -1.
        -14    1    6    6    0    0 -0.20665181481E+02  0.22444113910E+02 -0.11649818600E+02  0.32657407250E+02  0.00000000000E+00 0.  1.
</event>
<event>
12    1  0.2685360E-002  0.1854836E+03  0.7818608E-02  0.1162599E+00
         -2   -1    0    0    0  501 -0.00000000000E+00  0.00000000000E+00  0.71834925792E+02  0.71834925792E+02  0.00000000000E+00 0. -1.
          2   -1    0    0  502    0  0.00000000000E+00 -0.00000000000E+00 -0.55300138489E+03  0.55300138489E+03  0.00000000000E+00 0.  1.
          6    2    1    2  502    0  0.54744249970E+02 -0.58996908081E+02 -0.35979411104E+03  0.40692874994E+03  0.17222554143E+03 0.  0.
         24    2    3    3    0    0 -0.24160202363E+02 -0.23627139592E+02 -0.94409447703E+02  0.12777280310E+03  0.79188309072E+02 0.  0.
         -6    2    1    2    0  501 -0.54744249970E+02  0.58996908081E+02 -0.12137234806E+03  0.21790756075E+03  0.16209531174E+03 0.  0.
        -24    2    5    5    0    0 -0.25289432637E+02 -0.26704699600E+02 -0.75705268363E+02  0.11632053406E+03  0.80289990667E+02 0.  0.
          5    1    3    3  502    0  0.78904452333E+02 -0.35369768490E+02 -0.26538466334E+03  0.27915594684E+03  0.47000000000E+01 0. -1.
        -13    1    4    4    0    0 -0.24909822189E+02  0.61561595384E+01 -0.94560151447E+02  0.97979690668E+02  0.00000000000E+00 0.  1.
         14    1    4    4    0    0  0.74961982551E+00 -0.29783299130E+02  0.15070374373E+00  0.29793112435E+02  0.00000000000E+00 0. -1.
         -5    1    5    5    0  501 -0.29454817333E+02  0.85701607682E+02 -0.45667079701E+02  0.10158702669E+03  0.47000000000E+01 0.  1.
         13    1    6    6    0    0 -0.88601545539E+01  0.28696421050E+02 -0.31855681652E+02  0.43780947606E+02  0.00000000000E+00 0. -1.
        -14    1    6    6    0    0 -0.16429278083E+02 -0.55401120650E+02 -0.43849586712E+02  0.72539586450E+02  0.00000000000E+00 0.  1.
</event>
<event>
12    1  0.2685360E-002  0.2053867E+03  0.7818608E-02  0.1145272E+00
         -1   -1    0    0    0  501 -0.00000000000E+00  0.00000000000E+00  0.20690671766E+03  0.20690671766E+03  0.00000000000E+00 0. -1.
          1   -1    0    0  502    0  0.00000000000E+00 -0.00000000000E+00 -0.21296067068E+03  0.21296067068E+03  0.00000000000E+00 0.  1.
          6    2    1    2  502    0 -0.69725302483E+02 -0.79415819785E+02 -0.46201773464E+02  0.20729985858E+03  0.17225021701E+03 0.  0.
         24    2    3    3    0    0 -0.76231292544E+02 -0.57959821966E+02 -0.93594416055E+02  0.15466108655E+03  0.77392415986E+02 0.  0.
         -6    2    1    2    0  501  0.69725302483E+02  0.79415819785E+02  0.40147820444E+02  0.21256752975E+03  0.18001282448E+03 0.  0.
        -24    2    5    5    0    0  0.57583682270E+02  0.84206059337E+02 -0.36293975862E+02  0.13487709559E+03  0.80424109191E+02 0.  0.
          5    1    3    3  502    0  0.65059900603E+01 -0.21455997820E+02  0.47392642591E+02  0.52638772030E+02  0.47000000000E+01 0. -1.
        -11    1    4    4    0    0 -0.51097384134E+02 -0.18586444618E+02 -0.93254598513E+02  0.10794822246E+03  0.00000000000E+00 0.  1.
         12    1    4    4    0    0 -0.25133908410E+02 -0.39373377347E+02 -0.33981754207E+00  0.46712864092E+02  0.00000000000E+00 0. -1.
         -5    1    5    5    0  501  0.12141620213E+02 -0.47902395522E+01  0.76441796305E+02  0.77690434152E+02  0.47000000000E+01 0.  1.
         11    1    6    6    0    0 -0.78508048934E+01 -0.88091252828E+01  0.63734023928E+01  0.13411043352E+02  0.00000000000E+00 0. -1.
        -12    1    6    6    0    0  0.65434487164E+02  0.93015184620E+02 -0.42667378254E+02  0.12146605224E+03  0.00000000000E+00 0.  1.
</event>
<event>
12    1  0.2685360E-002  0.2602185E+03  0.7818608E-02  0.1107012E+00
          1   -1    0    0  502    0  0.00000000000E+00  0.00000000000E+00  0.48009814264E+02  0.48009814264E+02  0.00000000000E+00 0. -1.
         -1   -1    0    0    0  501 -0.00000000000E+00 -0.00000000000E+00 -0.14809898118E+04  0.14809898118E+04  0.00000000000E+00 0.  1.
          6    2    1    2  502    0  0.13820281456E+03  0.13807871134E+03 -0.88290941605E+03  0.92040726354E+03  0.17162384842E+03 0.  0.
         24    2    3    3    0    0  0.73067751682E+02  0.93307234439E+01 -0.49031748494E+03  0.50211414241E+03  0.79255392519E+02 0.  0.
         -6    2    1    2    0  501 -0.13820281456E+03 -0.13807871134E+03 -0.55007058151E+03  0.60859236255E+03  0.17216640392E+03 0.  0.
        -24    2    5    5    0    0 -0.50139296376E+02 -0.13178626307E+03 -0.27550547365E+03  0.32014329150E+03  0.81895621997E+02 0.  0.
          5    1    3    3  502    0  0.65135062875E+02  0.12874798789E+03 -0.39259193111E+03  0.41829312112E+03  0.47000000000E+01 0. -1.
        -13    1    4    4    0    0 -0.73829471380E+01 -0.16374558937E+02 -0.38673495650E+02  0.42641216617E+02  0.00000000000E+00 0.  1.
         14    1    4    4    0    0  0.80450698820E+02  0.25705282380E+02 -0.45164398929E+03  0.45947292580E+03  0.00000000000E+00 0. -1.
         -5    1    5    5    0  501 -0.88063518181E+02 -0.62924482636E+01 -0.27456510785E+03  0.28844907105E+03  0.47000000000E+01 0.  1.
         11    1    6    6    0    0  0.49488390755E+01 -0.77347671815E+02 -0.18763882040E+03  0.20301596062E+03  0.00000000000E+00 0. -1.
        -12    1    6    6    0    0 -0.55088135452E+02 -0.54438591258E+02 -0.87866653252E+02  0.11712733088E+03  0.00000000000E+00 0.  1.
</event>
<event>
12    1  0.2685360E-002  0.2160976E+03  0.7818608E-02  0.1136826E+00
         -2   -1    0    0    0  501 -0.00000000000E+00  0.00000000000E+00  0.17379150484E+03  0.17379150484E+03  0.00000000000E+00 0.  1.
          2   -1    0    0  502    0  0.00000000000E+00 -0.00000000000E+00 -0.27080403717E+03  0.27080403717E+03  0.00000000000E+00 0. -1.
          6    2    1    2  502    0  0.73641131777E+01 -0.12756212714E+03 -0.68466015251E+02  0.22896566861E+03  0.17723249057E+03 0.  0.
         24    2    3    3    0    0  0.38359606605E+02 -0.52049553067E+01 -0.39346704272E+02  0.99343053358E+02  0.82597385763E+02 0.  0.
         -6    2    1    2    0  501 -0.73641131777E+01  0.12756212714E+03 -0.28546517079E+02  0.21562987340E+03  0.17133304474E+03 0.  0.
        -24    2    5    5    0    0  0.15603986701E+02  0.10699342519E+03  0.40035624642E+02  0.14028927827E+03  0.79919665417E+02 0.  0.
          5    1    3    3  502    0 -0.30995493427E+02 -0.12235717183E+03 -0.29119310978E+02  0.12962261525E+03  0.47000000000E+01 0. -1.
        -13    1    4    4    0    0 -0.14589873124E+02 -0.14987626975E+02  0.12687672128E+02  0.24463654350E+02  0.00000000000E+00 0.  1.
         14    1    4    4    0    0  0.52949479729E+02  0.97826716687E+01 -0.52034376400E+02  0.74879399009E+02  0.00000000000E+00 0. -1.
         -5    1    5    5    0  501 -0.22968099878E+02  0.20568701947E+02 -0.68582141721E+02  0.75340595132E+02  0.47000000000E+01 0.  1.
         11    1    6    6    0    0  0.35186738997E+02  0.10348143564E+03  0.18297198918E+02  0.11082103415E+03  0.00000000000E+00 0. -1.
        -12    1    6    6    0    0 -0.19582752297E+02  0.35119895577E+01  0.21738425724E+02  0.29468244113E+02  0.00000000000E+00 0.  1.
</event>
<event>
12    1  0.2685360E-002  0.1739454E+03  0.7818608E-02  0.1173795E+00
          1   -1    0    0  502    0  0.00000000000E+00  0.00000000000E+00  0.34567704102E+03  0.34567704102E+03  0.00000000000E+00 0.  1.
         -1   -1    0    0    0  501 -0.00000000000E+00 -0.00000000000E+00 -0.96544867627E+02  0.96544867627E+02  0.00000000000E+00 0. -1.
          6    2    1    2  502    0  0.17627080258E+02  0.20411719898E+02  0.57414936920E+02  0.18377836506E+03  0.17248379696E+03 0.  0.
         24    2    3    3    0    0 -0.30599448875E+02 -0.33643569703E+02  0.74568357082E+02  0.10918545474E+03  0.65519520722E+02 0.  0.
         -6    2    1    2    0  501 -0.17627080258E+02 -0.20411719898E+02  0.19171723647E+03  0.25844354358E+03  0.17120226106E+03 0.  0.
        -24    2    5    5    0    0 -0.22833410260E+02  0.34691738452E+02  0.18055530588E+03  0.20178513125E+03  0.79950855957E+02 0.  0.
          5    1    3    3  502    0  0.48226529133E+02  0.54055289602E+02 -0.17153420162E+02  0.74592910316E+02  0.47000000000E+01 0. -1.
        -11    1    4    4    0    0 -0.10802113118E+02 -0.27524063332E+02 -0.22192623034E+01  0.29651051167E+02  0.00000000000E+00 0.  1.
         12    1    4    4    0    0 -0.19797335757E+02 -0.61195063715E+01  0.76787619386E+02  0.79534403576E+02  0.00000000000E+00 0. -1.
         -5    1    5    5    0  501  0.52063300029E+01 -0.55103458351E+02  0.11161930585E+02  0.56658412338E+02  0.47000000000E+01 0.  1.
         13    1    6    6    0    0  0.38360147366E+01 -0.24003332159E+02  0.35238295349E+02  0.42809022681E+02  0.00000000000E+00 0. -1.
        -14    1    6    6    0    0 -0.26669424997E+02  0.58695070612E+02  0.14531701053E+03  0.15897610857E+03  0.00000000000E+00 0.  1.
</event>
<event>
12    1  0.2685360E-002  0.2617085E+03  0.7818608E-02  0.1106121E+00
          1   -1    0    0  502    0  0.00000000000E+00  0.00000000000E+00  0.51364447672E+03  0.51364447672E+03  0.00000000000E+00 0.  1.
         -1   -1    0    0    0  501 -0.00000000000E+00 -0.00000000000E+00 -0.15172532620E+03  0.15172532620E+03  0.00000000000E+00 0. -1.
          6    2    1    2  502    0 -0.18668259452E+03  0.67270822539E+02  0.29699028567E+03  0.39610332089E+03  0.17122749888E+03 0.  0.
         24    2    3    3    0    0 -0.94305514950E+02  0.41485605811E+02  0.67104060753E+02  0.14696848061E+03  0.80512071670E+02 0.  0.
         -6    2    1    2    0  501  0.18668259452E+03 -0.67270822539E+02  0.64928864855E+02  0.26926648203E+03  0.17003801396E+03 0.  0.
        -24    2    5    5    0    0  0.70825765887E+02  0.27981060732E+02  0.44145241513E+02  0.11777465055E+03  0.78248559666E+02 0.  0.
          5    1    3    3  502    0 -0.92377079570E+02  0.25785216728E+02  0.22988622492E+03  0.24913484028E+03  0.47000000000E+01 0. -1.
        -13    1    4    4    0    0 -0.23526582730E+01  0.24600816801E+02  0.44316161698E+02  0.50741081737E+02  0.00000000000E+00 0.  1.
         14    1    4    4    0    0 -0.91952856677E+02  0.16884789010E+02  0.22787899055E+02  0.96227398875E+02  0.00000000000E+00 0. -1.
         -5    1    5    5    0  501  0.11585682863E+03 -0.95251883271E+02  0.20783623342E+02  0.15149183149E+03  0.47000000000E+01 0.  1.
         11    1    6    6    0    0  0.57013589927E+02  0.18372628914E+02 -0.10307972133E+02  0.60781224231E+02  0.00000000000E+00 0. -1.
        -12    1    6    6    0    0  0.13812175960E+02  0.96084318180E+01  0.54453213646E+02  0.56993426315E+02  0.00000000000E+00 0.  1.
</event>
<event>
12    1  0.2685360E-002  0.2517346E+03  0.7818608E-02  0.1112214E+00
          1   -1    0    0  502    0  0.00000000000E+00  0.00000000000E+00  0.29899505829E+03  0.29899505829E+03  0.00000000000E+00 0. -1.
         -1   -1    0    0    0  501 -0.00000000000E+00 -0.00000000000E+00 -0.39173073244E+03  0.39173073244E+03  0.00000000000E+00 0.  1.
          6    2    1    2  502    0  0.15484243033E+03 -0.98827295861E+02 -0.28033786360E+03  0.37677479845E+03  0.17212471741E+03 0.  0.
         24    2    3    3    0    0  0.12501998443E+03 -0.38531694659E+02 -0.96793166121E+02  0.18123532986E+03  0.79766156867E+02 0.  0.
         -6    2    1    2    0  501 -0.15484243033E+03  0.98827295861E+02  0.18760218944E+03  0.31395099228E+03  0.17212678884E+03 0.  0.
        -24    2    5    5    0    0 -0.93778514281E+01  0.63375129256E+02  0.74633396547E+02  0.12633212863E+03  0.79279957983E+02 0.  0.
          5    1    3    3  502    0  0.29822445894E+02 -0.60295601202E+02 -0.18354469748E+03  0.19553946859E+03  0.47000000000E+01 0. -1.
        -11    1    4    4    0    0  0.86919426925E+02 -0.51037901551E+02 -0.98722197735E+02  0.14108836415E+03  0.00000000000E+00 0.  1.
         12    1    4    4    0    0  0.38100557508E+02  0.12506206892E+02  0.19290316137E+01  0.40146965716E+02  0.00000000000E+00 0. -1.
         -5    1    5    5    0  501 -0.14546457890E+03  0.35452166605E+02  0.11296879289E+03  0.18761886365E+03  0.47000000000E+01 0.  1.
         11    1    6    6    0    0 -0.31948285407E+02  0.58765608807E+02  0.78327608518E+02  0.10300147560E+03  0.00000000000E+00 0. -1.
        -12    1    6    6    0    0  0.22570433978E+02  0.46095204484E+01 -0.36942119713E+01  0.23330653030E+02  0.00000000000E+00 0.  1.
</event>
<event>
12    1  0.2685360E-002  0.1861589E+03  0.7818608E-02  0.1161972E+00
          2   -1    0    0  502    0  0.00000000000E+00  0.00000000000E+00  0.51100727046E+03  0.51100727046E+03  0.00000000000E+00 0. -1.
         -2   -1    0    0    0  501 -0.00000000000E+00 -0.00000000000E+00 -0.91931677851E+02  0.91931677851E+02  0.00000000000E+00 0.  1.
          6    2    1    2  502    0 -0.49026250542E+02  0.42937483848E+02  0.36539354141E+03  0.41089862968E+03  0.17628965655E+03 0.  0.
         24    2    3    3    0    0 -0.15538192249E+02  0.41181992313E+02  0.73807494926E+02  0.11735298705E+03  0.79917365786E+02 0.  0.
         -6    2    1    2    0  501  0.49026250542E+02 -0.42937483848E+02  0.53682051194E+02  0.19204031863E+03  0.17248339224E+03 0.  0.
        -24    2    5    5    0    0  0.89033115264E+02 -0.63454193035E+02  0.22134219395E+02  0.13691464156E+03  0.79387437157E+02 0.  0.
          5    1    3    3  502    0 -0.33488058292E+02  0.17554915341E+01  0.29158604649E+03  0.29354564263E+03  0.47000000000E+01 0. -1.
        -11    1    4    4    0    0  0.10689135140E+02  0.58101424876E+02  0.56096095500E+02  0.81466588937E+02  0.00000000000E+00 0.  1.
         12    1    4    4    0    0 -0.26227327390E+02 -0.16919432562E+02  0.17711399425E+02  0.35886398117E+02  0.00000000000E+00 0. -1.
         -5    1    5    5    0  501 -0.40006864722E+02  0.20516709188E+02  0.31547831799E+02  0.55125677066E+02  0.47000000000E+01 0.  1.
         13    1    6    6    0    0  0.72352867265E+02 -0.60310889083E+02  0.48200178014E+02  0.10580925245E+03  0.00000000000E+00 0. -1.
        -14    1    6    6    0    0  0.16680247999E+02 -0.31433039519E+01 -0.26065958619E+02  0.31105389111E+02  0.00000000000E+00 0.  1.
</event>
<event>
12    1  0.2685360E-002  0.2512016E+03  0.7818608E-02  0.1112548E+00
         -2   -1    0    0    0  501 -0.00000000000E+00  0.00000000000E+00  0.14434686499E+03  0.14434686499E+03  0.00000000000E+00 0.  1.
          2   -1    0    0  502    0  0.00000000000E+00 -0.00000000000E+00 -0.58267157251E+03  0.58267157251E+03  0.00000000000E+00 0. -1.
          6    2    1    2  502    0  0.11036346486E+03  0.14694153864E+03 -0.37110194022E+02  0.25333149725E+03  0.17037538215E+03 0.  0.
         24    2    3    3    0    0  0.36567767564E+02  0.22083899993E+02 -0.56146877802E+02  0.10697672214E+03  0.80415464486E+02 0.  0.
         -6    2    1    2    0  501 -0.11036346486E+03 -0.14694153864E+03 -0.40121451350E+03  0.47368694025E+03  0.17214622088E+03 0.  0.
        -24    2    5    5    0    0 -0.48337402277E+02 -0.13582352902E+03 -0.36614410359E+03  0.40141753989E+03  0.79309528056E+02 0.  0.
          5    1    3    3  502    0  0.73795697296E+02  0.12485763865E+03  0.19036683780E+02  0.14635477511E+03  0.47000000000E+01 0. -1.
        -13    1    4    4    0    0  0.12042329605E+02  0.49834810441E+02 -0.19435327287E+02  0.54829353277E+02  0.00000000000E+00 0.  1.
         14    1    4    4    0    0  0.24525437958E+02 -0.27750910448E+02 -0.36711550514E+02  0.52147368859E+02  0.00000000000E+00 0. -1.
         -5    1    5    5    0  501 -0.62026062582E+02 -0.11118009620E+02 -0.35070409912E+02  0.72269400362E+02  0.47000000000E+01 0.  1.
         13    1    6    6    0    0 -0.28235618454E+02 -0.53212023960E+02 -0.25193171764E+03  0.25903351134E+03  0.00000000000E+00 0. -1.
        -14    1    6    6    0    0 -0.20101783823E+02 -0.82611505062E+02 -0.11421238595E+03  0.14238402855E+03  0.00000000000E+00 0.  1.
</event>
<event>
12    1  0.4352904E-002  0.1874211E+03  0.7818608E-02  0.1160808E+00
          1   -1    0    0  502    0  0.00000000000E+00  0.00000000000E+00  0.97515592387E+03  0.97515592387E+03  0.00000000000E+00 0.  1.
         -1   -1    0    0    0  501 -0.00000000000E+00 -0.00000000000E+00 -0.54758869535E+02  0.54758869535E+02  0.00000000000E+00 0. -1.
          6    2    1    2  502    0  0.33349884156E+02 -0.63207455826E+02  0.16097412735E+03  0.24799953097E+03  0.17459582022E+03 0.  0.
         24    2    3    3    0    0 -0.15302496722E+02 -0.26958709559E+00  0.14644807639E+03  0.16699752086E+03  0.78783842327E+02 0.  0.
         -6    2    1    2    0  501 -0.33349884156E+02  0.63207455826E+02  0.75942292698E+03  0.78191526243E+03  0.17193283095E+03 0.  0.
        -24    2    5    5    0    0 -0.33622700073E+02  0.69308309462E+01  0.18314140553E+03  0.20287328218E+03  0.80238842363E+02 0.  0.
          5    1    3    3  502    0  0.48652380878E+02 -0.62937868731E+02  0.14526050965E+02  0.81002010111E+02  0.47000000000E+01 0. -1.
        -11    1    4    4    0    0  0.10881276224E+01 -0.37961368954E+02  0.84660155120E+02  0.92787884013E+02  0.00000000000E+00 0.  1.
         12    1    4    4    0    0 -0.16390624345E+02  0.37691781859E+02  0.61787921267E+02  0.74209636845E+02  0.00000000000E+00 0. -1.
         -5    1    5    5    0  501  0.27281591771E+00  0.56276624880E+02  0.57628152145E+03  0.57904198026E+03  0.47000000000E+01 0.  1.
         13    1    6    6    0    0 -0.15090310072E+02  0.35803351484E+02  0.40339280659E+02  0.56007633405E+02  0.00000000000E+00 0. -1.
        -14    1    6    6    0    0 -0.18532390001E+02 -0.28872520538E+02  0.14280212487E+03  0.14686564877E+03  0.00000000000E+00 0.  1.
</event>
<event>
12    1  0.2685360E-002  0.1921552E+03  0.7818608E-02  0.1156532E+00
         -2   -1    0    0    0  501 -0.00000000000E+00  0.00000000000E+00  0.11205999156E+02  0.11205999156E+02  0.00000000000E+00 0.  1.
          2   -1    0    0  502    0  0.00000000000E+00 -0.00000000000E+00 -0.33038744633E+04  0.33038744633E+04  0.00000000000E+00 0. -1.
          6    2    1    2  502    0  0.74474334592E+02 -0.39226829518E+02 -0.17373357869E+04  0.17479970353E+04  0.17341519086E+03 0.  0.
         24    2    3    3    0    0  0.63675992902E+02  0.35594321091E+02 -0.76086970105E+03  0.76859777273E+03  0.80611702076E+02 0.  0.
         -6    2    1    2    0  501 -0.74474334592E+02  0.39226829518E+02 -0.15553326773E+04  0.15670834272E+04  0.17206266299E+03 0.  0.
        -24    2    5    5    0    0 -0.78128666125E+02  0.87656227897E+02 -0.11123150787E+04  0.11213868449E+04  0.80473094265E+02 0.  0.
          5    1    3    3  502    0  0.10798341690E+02 -0.74821150609E+02 -0.97646608583E+03  0.97939926257E+03  0.47000000000E+01 0. -1.
        -13    1    4    4    0    0 -0.15296962785E+02 -0.92520101090E+01 -0.13120587511E+03  0.13241819522E+03  0.00000000000E+00 0.  1.
         14    1    4    4    0    0  0.78972955688E+02  0.44846331200E+02 -0.62966382594E+03  0.63617957752E+03  0.00000000000E+00 0. -1.
         -5    1    5    5    0  501  0.36543315327E+01 -0.48429398379E+02 -0.44301759857E+03  0.44569658223E+03  0.47000000000E+01 0.  1.
         13    1    6    6    0    0 -0.26860680635E+02 -0.89568114493E+01 -0.36683621837E+03  0.36792734574E+03  0.00000000000E+00 0. -1.
        -14    1    6    6    0    0 -0.51267985489E+02  0.96613039346E+02 -0.74547886036E+03  0.75345949921E+03  0.00000000000E+00 0.  1.
</event>
<event>
12    1  0.2685360E-002  0.1756957E+03  0.7818608E-02  0.1172035E+00
         -2   -1    0    0    0  501 -0.00000000000E+00  0.00000000000E+00  0.31162260385E+02  0.31162260385E+02  0.00000000000E+00 0.  1.
          2   -1    0    0  502    0  0.00000000000E+00 -0.00000000000E+00 -0.13359060094E+04  0.13359060094E+04  0.00000000000E+00 0. -1.
          6    2    1    2  502    0  0.33082695449E+02  0.66452126669E+01 -0.99903357608E+03  0.10143114889E+04  0.17210777675E+03 0.  0.
         24    2    3    3    0    0  0.63980686308E+02  0.43655340977E+02 -0.45734396731E+03  0.47046026138E+03  0.78549577276E+02 0.  0.
         -6    2    1    2    0  501 -0.33082695449E+02 -0.66452126669E+01 -0.30571017294E+03  0.35275678087E+03  0.17274262076E+03 0.  0.
        -24    2    5    5    0    0 -0.39249755607E+02 -0.63407184009E+02 -0.21233106955E+03  0.24320450581E+03  0.92211356415E+02 0.  0.
          5    1    3    3  502    0 -0.30897990860E+02 -0.37010128310E+02 -0.54168960877E+03  0.54385122753E+03  0.47000000000E+01 0. -1.
        -11    1    4    4    0    0  0.37890637125E+02 -0.69668332712E+01 -0.79437717844E+02  0.88286964858E+02  0.00000000000E+00 0.  1.
         12    1    4    4    0    0  0.26090049183E+02  0.50622174248E+02 -0.37790624947E+03  0.38217329653E+03  0.00000000000E+00 0. -1.
         -5    1    5    5    0  501  0.61670601580E+01  0.56761971342E+02 -0.93379103386E+02  0.10955227506E+03  0.47000000000E+01 0.  1.
         11    1    6    6    0    0  0.12863827162E+01 -0.31433838179E+02 -0.17901852341E+03  0.18176185707E+03  0.00000000000E+00 0. -1.
        -12    1    6    6    0    0 -0.40536138323E+02 -0.31973345830E+02 -0.33312546141E+02  0.61442648739E+02  0.00000000000E+00 0.  1.
</event>
<event>
12    1  0.2685360E-002  0.1865663E+03  0.7818608E-02  0.1161595E+00
          4   -1    0    0  502    0  0.00000000000E+00  0.00000000000E+00  0.73813023365E+02  0.73813023365E+02  0.00000000000E+00 0.  1.
         -4   -1    0    0    0  501 -0.00000000000E+00 -0.00000000000E+00 -0.57498908151E+03  0.57498908151E+03  0.00000000000E+00 0. -1.
          6    2    1    2  502    0 -0.17698810319E+02  0.69999311098E+02 -0.11319585336E+03  0.21837286820E+03  0.17222153439E+03 0.  0.
         24    2    3    3    0    0 -0.31904279241E+02  0.10534914372E+03 -0.11799656617E+03  0.17968769201E+03  0.79045252317E+02 0.  0.
         -6    2    1    2    0  501  0.17698810319E+02 -0.69999311098E+02 -0.38798020479E+03  0.43042923668E+03  0.17183578509E+03 0.  0.
        -24    2    5    5    0    0  0.70543741751E+02 -0.15395021180E+02 -0.19157966171E+03  0.21978859820E+03  0.79942697860E+02 0.  0.
          5    1    3    3  502    0  0.14205468923E+02 -0.35349832624E+02  0.48007128096E+01  0.38685176197E+02  0.47000000000E+01 0. -1.
        -11    1    4    4    0    0  0.12667266870E+02  0.53249709227E+02 -0.16436448944E+02  0.57150223417E+02  0.00000000000E+00 0.  1.
         12    1    4    4    0    0 -0.44571546111E+02  0.52099434495E+02 -0.10156011723E+03  0.12253746859E+03  0.00000000000E+00 0. -1.
         -5    1    5    5    0  501 -0.52844931432E+02 -0.54604289918E+02 -0.19640054308E+03  0.21064063848E+03  0.47000000000E+01 0.  1.
         13    1    6    6    0    0 -0.40499268164E+01 -0.17135512564E+02 -0.10058342667E+03  0.10211294443E+03  0.00000000000E+00 0. -1.
        -14    1    6    6    0    0  0.74593668567E+02  0.17404913840E+01 -0.90996235035E+02  0.11767565377E+03  0.00000000000E+00 0.  1.
</event>
<event>
12    1  0.2685360E-002  0.2581697E+03  0.7818608E-02  0.1108248E+00
          2   -1    0    0  502    0  0.00000000000E+00  0.00000000000E+00  0.66590741755E+03  0.66590741755E+03  0.00000000000E+00 0. -1.
         -2   -1    0    0    0  501 -0.00000000000E+00 -0.00000000000E+00 -0.21236864519E+03  0.21236864519E+03  0.00000000000E+00 0.  1.
          6    2    1    2  502    0  0.91564027141E+02  0.16978208834E+03 -0.92528383278E+02  0.27425989675E+03  0.17160145882E+03 0.  0.
         24    2    3    3    0    0  0.85296587340E+02  0.49637186985E+02 -0.86481856484E+02  0.15370812941E+03  0.80048231729E+02 0.  0.
         -6    2    1    2    0  501 -0.91564027141E+02 -0.16978208834E+03  0.54606715564E+03  0.60401616598E+03  0.17156999070E+03 0.  0.
        -24    2    5    5    0    0 -0.10194406222E+03 -0.50434009910E+02  0.31937570990E+03  0.34757355929E+03  0.76618234554E+02 0.  0.
          5    1    3    3  502    0  0.62674398008E+01  0.12014490135E+03 -0.60465267942E+01  0.12055176734E+03  0.47000000000E+01 0. -1.
        -11    1    4    4    0    0  0.49189981235E+02  0.68860234656E+02 -0.46732818751E+02  0.96671311769E+02  0.00000000000E+00 0.  1.
         12    1    4    4    0    0  0.36106606105E+02 -0.19223047671E+02 -0.39749037733E+02  0.57036817643E+02  0.00000000000E+00 0. -1.
         -5    1    5    5    0  501  0.10380035083E+02 -0.11934807843E+03  0.22669144575E+03  0.25644260669E+03  0.47000000000E+01 0.  1.
         11    1    6    6    0    0 -0.89667329844E+02 -0.51630868922E+01  0.22233480415E+03  0.23979085187E+03  0.00000000000E+00 0. -1.
        -12    1    6    6    0    0 -0.12276732379E+02 -0.45270923017E+02  0.97040905753E+02  0.10778270742E+03  0.00000000000E+00 0.  1.
</event>
<event>
12    1  0.2685360E-002  0.1733269E+03  0.7818608E-02  0.1174422E+00
         -2   -1    0    0    0  501 -0.00000000000E+00  0.00000000000E+00  0.14129330961E+03  0.14129330961E+03  0.00000000000E+00 0.  1.
          2   -1    0    0  502    0  0.00000000000E+00 -0.00000000000E+00 -0.21414273341E+03  0.21414273341E+03  0.00000000000E+00 0. -1.
          6    2    1    2  502    0  0.63572865328E+01  0.19159440746E+02 -0.51387884554E+02  0.18074665585E+03  0.17210793027E+03 0.  0.
         24    2    3    3    0    0 -0.60526192138E+01  0.11318184782E+02 -0.99940904487E+02  0.12980574105E+03  0.81832820524E+02 0.  0.
         -6    2    1    2    0  501 -0.63572865328E+01 -0.19159440746E+02 -0.21461539242E+02  0.17468938717E+03  0.17218677377E+03 0.  0.
        -24    2    5    5    0    0  0.45251552580E+02 -0.57023784780E+02 -0.25438245846E+02  0.11038476043E+03  0.78982757251E+02 0.  0.
          5    1    3    3  502    0  0.12409905747E+02  0.78412559639E+01  0.48553019933E+02  0.50940914797E+02  0.47000000000E+01 0. -1.
        -13    1    4    4    0    0  0.22132106230E+02  0.19397896818E+02 -0.42638841619E+01  0.29737001114E+02  0.00000000000E+00 0.  1.
         14    1    4    4    0    0 -0.28184725444E+02 -0.80797120355E+01 -0.95677020325E+02  0.10006873994E+03  0.00000000000E+00 0. -1.
         -5    1    5    5    0  501 -0.51608839113E+02  0.37864344034E+02  0.39767066040E+01  0.64304626732E+02  0.47000000000E+01 0.  1.
         13    1    6    6    0    0 -0.15865093381E+02 -0.20479015844E+02 -0.29251366245E+02  0.39073439894E+02  0.00000000000E+00 0. -1.
        -14    1    6    6    0    0  0.61116645961E+02 -0.36544768936E+02  0.38131203981E+01  0.71311320541E+02  0.00000000000E+00 0.  1.
</event>
<event>
12    1  0.2685360E-002  0.2073843E+03  0.7818608E-02  0.1143654E+00
         -1   -1    0    0    0  501 -0.00000000000E+00  0.00000000000E+00  0.14529834945E+04  0.14529834945E+04  0.00000000000E+00 0. -1.
          1   -1    0    0  502    0  0.00000000000E+00 -0.00000000000E+00 -0.30414046568E+02  0.30414046568E+02  0.00000000000E+00 0.  1.
          6    2    1    2  502    0  0.10833060716E+03  0.38460540022E+02  0.83589345666E+03  0.86147551191E+03  0.17380291465E+03 0.  0.
         24    2    3    3    0    0  0.40420610972E+02  0.83389409143E+02  0.42021111746E+03  0.43786688595E+03  0.81008686106E+02 0.  0.
         -6    2    1    2    0  501 -0.10833060716E+03 -0.38460540022E+02  0.58667599130E+03  0.62192202919E+03  0.17141632955E+03 0.  0.
        -24    2    5    5    0    0 -0.19855071387E+02  0.30246731156E+02  0.33042359841E+03  0.34221506037E+03  0.81377543306E+02 0.  0.
          5    1    3    3  502    0  0.67909996188E+02 -0.44928869122E+02  0.41568233920E+03  0.42360862596E+03  0.47000000000E+01 0. -1.
        -11    1    4    4    0    0  0.48551266641E+02  0.77313763817E+02  0.23103430873E+03  0.24841798521E+03  0.00000000000E+00 0.  1.
         12    1    4    4    0    0 -0.81306556683E+01  0.60756453266E+01  0.18917680874E+03  0.18944890074E+03  0.00000000000E+00 0. -1.
         -5    1    5    5    0  501 -0.88475535774E+02 -0.68707271178E+02  0.25625239289E+03  0.27970696882E+03  0.47000000000E+01 0.  1.
         11    1    6    6    0    0 -0.42953640526E+02  0.41195405005E+02  0.17861711504E+03  0.18827148061E+03  0.00000000000E+00 0. -1.
        -12    1    6    6    0    0  0.23098569139E+02 -0.10948673849E+02  0.15180648337E+03  0.15394357976E+03  0.00000000000E+00 0.  1.
</event>
<event>
12    1  0.2685360E-002  0.1847177E+03  0.7818608E-02  0.1163314E+00
         -1   -1    0    0    0  501 -0.00000000000E+00  0.00000000000E+00  0.21219210397E+02  0.21219210397E+02  0.00000000000E+00 0. -1.
          1   -1    0    0  502    0  0.00000000000E+00 -0.00000000000E+00 -0.17950680444E+04  0.17950680444E+04  0.00000000000E+00 0.  1.
          6    2    1    2  502    0 -0.62577617328E+02  0.24653876394E+02 -0.11846991874E+04  0.11991811802E+04  0.17320382950E+03 0.  0.
         24    2    3    3    0    0 -0.45907144492E+01  0.26224422845E+02 -0.28635750093E+03  0.29895630655E+03  0.81642267697E+02 0.  0.
         -6    2    1    2    0  501  0.62577617328E+02 -0.24653876394E+02 -0.58914964656E+03  0.61710607453E+03  0.17087664958E+03 0.  0.
        -24    2    5    5    0    0  0.38325727861E+02 -0.35044448000E+02 -0.17484293760E+03  0.20193351137E+03  0.86660922170E+02 0.  0.
          5    1    3    3  502    0 -0.57986902879E+02 -0.15705464516E+01 -0.89834168648E+03  0.90022487368E+03  0.47000000000E+01 0. -1.
        -11    1    4    4    0    0 -0.41388805718E+02  0.26079644251E+02 -0.17223906235E+03  0.17905160062E+03  0.00000000000E+00 0.  1.
         12    1    4    4    0    0  0.36798091269E+02  0.14477859447E+00 -0.11411843858E+03  0.11990470593E+03  0.00000000000E+00 0. -1.
         -5    1    5    5    0  501  0.24251889467E+02  0.10390571606E+02 -0.41430670895E+03  0.41517256316E+03  0.47000000000E+01 0.  1.
         13    1    6    6    0    0 -0.10549473120E+01 -0.50580040907E+02 -0.54502201229E+02  0.74363589147E+02  0.00000000000E+00 0. -1.
        -14    1    6    6    0    0  0.39380675173E+02  0.15535592907E+02 -0.12034073638E+03  0.12756992222E+03  0.00000000000E+00 0.  1.
</event>
<event>
12    1  0.2685360E-002  0.3812215E+03  0.7818608E-02  0.1050483E+00
         -1   -1    0    0    0  501 -0.00000000000E+00  0.00000000000E+00  0.37186507666E+03  0.37186507666E+03  0.00000000000E+00 0.  1.
          1   -1    0    0  502    0  0.00000000000E+00 -0.00000000000E+00 -0.64015831214E+03  0.64015831214E+03  0.00000000000E+00 0. -1.
          6    2    1    2  502    0  0.33205277932E+03  0.78070262266E+02 -0.44976854466E+03  0.58905343852E+03  0.16833952466E+03 0.  0.
         24    2    3    3    0    0  0.11083355310E+03  0.21220147159E+02 -0.94509342840E+02  0.16667792773E+03  0.78199389835E+02 0.  0.
         -6    2    1    2    0  501 -0.33205277932E+03 -0.78070262266E+02  0.18147530917E+03  0.42296995028E+03  0.17209380261E+03 0.  0.
        -24    2    5    5    0    0 -0.93201061781E+02 -0.65399274155E+02  0.40657588183E+02  0.14536876611E+03  0.80718868334E+02 0.  0.
          5    1    3    3  502    0  0.22121922622E+03  0.56850115107E+02 -0.35525920182E+03  0.42237551079E+03  0.47000000000E+01 0. -1.
        -11    1    4    4    0    0  0.61491475683E+02 -0.21523063275E+02 -0.21192061983E+02  0.68509468875E+02  0.00000000000E+00 0.  1.
         12    1    4    4    0    0  0.49342077417E+02  0.42743210434E+02 -0.73317280858E+02  0.98168458857E+02  0.00000000000E+00 0. -1.
         -5    1    5    5    0  501 -0.23885171754E+03 -0.12670988111E+02  0.14081772099E+03  0.27760118417E+03  0.47000000000E+01 0.  1.
         11    1    6    6    0    0 -0.71165435752E+02 -0.84103556919E+02  0.37078875556E+02  0.11624444307E+03  0.00000000000E+00 0. -1.
        -12    1    6    6    0    0 -0.22035626029E+02  0.18704282764E+02  0.35787126270E+01  0.29124323035E+02  0.00000000000E+00 0.  1.
</event>
<event>
12    1  0.2685360E-002  0.1761685E+03  0.7818608E-02  0.1171564E+00
         -2   -1    0    0    0  501 -0.00000000000E+00  0.00000000000E+00  0.36976259998E+02  0.36976259998E+02  0.00000000000E+00 0.  1.
          2   -1    0    0  502    0  0.00000000000E+00 -0.00000000000E+00 -0.98874136831E+03  0.98874136831E+03  0.00000000000E+00 0. -1.
          6    2    1    2  502    0  0.36796697478E+02  0.19458210053E+02 -0.68031392500E+03  0.70332598269E+03  0.17351594307E+03 0.  0.
         24    2    3    3    0    0  0.32971518312E+02  0.28584485180E+02 -0.16210234382E+03  0.18499862111E+03  0.77737546459E+02 0.  0.
         -6    2    1    2    0  501 -0.36796697478E+02 -0.19458210053E+02 -0.27145118331E+03  0.32239164561E+03  0.16887276085E+03 0.  0.
        -24    2    5    5    0    0 -0.89272077427E+01  0.51534644393E+02 -0.17319114221E+03  0.19791747352E+03  0.80253597893E+02 0.  0.
          5    1    3    3  502    0  0.38251791668E+01 -0.91262751271E+01 -0.51821158118E+03  0.51832736158E+03  0.47000000000E+01 0. -1.
        -13    1    4    4    0    0 -0.98781275475E+01  0.12627996071E+02  0.54955088896E+00  0.16041997843E+02  0.00000000000E+00 0.  1.
         14    1    4    4    0    0  0.42849645859E+02  0.15956489109E+02 -0.16265189470E+03  0.16895662327E+03  0.00000000000E+00 0. -1.
         -5    1    5    5    0  501 -0.27869489736E+02 -0.70992854446E+02 -0.98260041105E+02  0.12447417209E+03  0.47000000000E+01 0.  1.
         11    1    6    6    0    0 -0.36261256809E+01 -0.19322949935E+02 -0.69421136253E+02  0.72151364092E+02  0.00000000000E+00 0. -1.
        -12    1    6    6    0    0 -0.53010820618E+01  0.70857594328E+02 -0.10377000595E+03  0.12576610943E+03  0.00000000000E+00 0.  1.
</event>
<event>
12    1  0.2685360E-002  0.2766649E+03  0.7818608E-02  0.1097525E+00
         -3   -1    0    0    0  501 -0.00000000000E+00  0.00000000000E+00  0.11405614342E+03  0.11405614342E+03  0.00000000000E+00 0. -1.
          3   -1    0    0  502    0  0.00000000000E+00 -0.00000000000E+00 -0.91356558227E+03  0.91356558227E+03  0.00000000000E+00 0.  1.
          6    2    1    2  502    0 -0.15742223407E+03 -0.14702813548E+03 -0.66475482080E+03  0.72013804807E+03  0.17407126156E+03 0.  0.
         24    2    3    3    0    0 -0.44306656349E+02 -0.94934791903E+02 -0.20190166047E+03  0.24080101801E+03  0.79026294742E+02 0.  0.
         -6    2    1    2    0  501  0.15742223407E+03  0.14702813548E+03 -0.13475461805E+03  0.30748367762E+03  0.17317151185E+03 0.  0.
        -24    2    5    5    0    0  0.14803002912E+03  0.66818782642E+02 -0.36847061594E+02  0.18048079022E+03  0.69555520668E+02 0.  0.
          5    1    3    3  502    0 -0.11311557772E+03 -0.52093343579E+02 -0.46285316032E+03  0.47933703006E+03  0.47000000000E+01 0. -1.
        -13    1    4    4    0    0 -0.48634407028E+02 -0.60678857507E+02 -0.18823667143E+03  0.20366706598E+03  0.00000000000E+00 0.  1.
         14    1    4    4    0    0  0.43277506783E+01 -0.34255934396E+02 -0.13664989042E+02  0.37133952022E+02  0.00000000000E+00 0. -1.
         -5    1    5    5    0  501  0.93922049468E+01  0.80209352840E+02 -0.97907556453E+02  0.12700288740E+03  0.47000000000E+01 0.  1.
         11    1    6    6    0    0  0.59400723447E+02  0.45202236193E+02  0.14140986230E+02  0.75971413008E+02  0.00000000000E+00 0. -1.
        -12    1    6    6    0    0  0.88629305676E+02  0.21616546449E+02 -0.50988047824E+02  0.10450937721E+03  0.00000000000E+00 0.  1.
</event>
<event>
12    1  0.2685360E-002  0.2357141E+03  0.7818608E-02  0.1122681E+00
         -2   -1    0    0    0  501 -0.00000000000E+00  0.00000000000E+00  0.11135024884E+03  0.11135024884E+03  0.00000000000E+00 0.  1.
          2   -1    0    0  502    0  0.00000000000E+00 -0.00000000000E+00 -0.49906473420E+03  0.49906473420E+03  0.00000000000E+00 0. -1.
          6    2    1    2  502    0  0.11278485573E+03  0.11456359760E+03 -0.18968480909E+03  0.30244645051E+03  0.17218677955E+03 0.  0.
         24    2    3    3    0    0  0.61958503056E+02 -0.50270276543E+01 -0.98409493168E+02  0.14358012598E+03  0.84063649233E+02 0.  0.
         -6    2    1    2    0  501 -0.11278485573E+03 -0.11456359760E+03 -0.19802967627E+03  0.30796853252E+03  0.17257932310E+03 0.  0.
        -24    2    5    5    0    0 -0.48688287087E+02 -0.11376073899E+03 -0.66407745952E+02  0.16149178612E+03  0.79734266340E+02 0.  0.
          5    1    3    3  502    0  0.50826352677E+02  0.11959062525E+03 -0.91275315925E+02  0.15886632454E+03  0.47000000000E+01 0. -1.
        -13    1    4    4    0    0  0.76241376960E+02 -0.10648405653E+00 -0.46015111623E+02  0.89051386274E+02  0.00000000000E+00 0.  1.
         14    1    4    4    0    0 -0.14282873904E+02 -0.49205435978E+01 -0.52394381546E+02  0.54528739705E+02  0.00000000000E+00 0. -1.
         -5    1    5    5    0  501 -0.64096568646E+02 -0.80285861138E+00 -0.13162193032E+03  0.14647674640E+03  0.47000000000E+01 0.  1.
         13    1    6    6    0    0  0.10503055121E+01 -0.90884043649E+02 -0.52665630960E+02  0.10504609091E+03  0.00000000000E+00 0. -1.
        -14    1    6    6    0    0 -0.49738592599E+02 -0.22876695336E+02 -0.13742114992E+02  0.56445695210E+02  0.00000000000E+00 0.  1.
</event>
<event>
12    1  0.2685360E-002  0.2682493E+03  0.7818608E-02  0.1102286E+00
          2   -1    0    0  502    0  0.00000000000E+00  0.00000000000E+00  0.61048414883E+03  0.61048414883E+03  0.00000000000E+00 0. -1.
         -2   -1    0    0    0  501 -0.00000000000E+00 -0.00000000000E+00 -0.11791021842E+03  0.11791021842E+03  0.00000000000E+00 0.  1.
          6    2    1    2  502    0 -0.20086193463E+03 -0.45943350539E+02  0.23956383441E+03  0.35966306683E+03  0.17178586275E+03 0.  0.
         24    2    3    3    0    0 -0.19705770657E+03 -0.81543918213E+02  0.21641721752E+03  0.31677101112E+03  0.89589682050E+02 0.  0.
         -6    2    1    2    0  501  0.20086193463E+03  0.45943350539E+02  0.25301009601E+03  0.36873130042E+03  0.17173338343E+03 0.  0.
        -24    2    5    5    0    0  0.20871584246E+02  0.24006812364E+01  0.65116953181E+02  0.10487828565E+03  0.79484909951E+02 0.  0.
          5    1    3    3  502    0 -0.38042280673E+01  0.35600567674E+02  0.23146616885E+02  0.42892055712E+02  0.47000000000E+01 0. -1.
        -13    1    4    4    0    0 -0.64748395328E+02 -0.36146770256E+02  0.22166836304E+02  0.77397108016E+02  0.00000000000E+00 0.  1.
         14    1    4    4    0    0 -0.13230931124E+03 -0.45397147957E+02  0.19425038122E+03  0.23937390310E+03  0.00000000000E+00 0. -1.
         -5    1    5    5    0  501  0.17999035039E+03  0.43542669302E+02  0.18789314283E+03  0.26385301477E+03  0.47000000000E+01 0.  1.
         11    1    6    6    0    0  0.46637815090E+01  0.35917913673E+01 -0.18646112557E+02  0.19553243636E+02  0.00000000000E+00 0. -1.
        -12    1    6    6    0    0  0.16207802737E+02 -0.11911101308E+01  0.83763065738E+02  0.85325042014E+02  0.00000000000E+00 0.  1.
</event>
<event>
12    1  0.2685360E-002  0.2093449E+03  0.7818608E-02  0.1142086E+00
          2   -1    0    0  502    0  0.00000000000E+00  0.00000000000E+00  0.73415230521E+03  0.73415230521E+03  0.00000000000E+00 0. -1.
         -2   -1    0    0    0  501 -0.00000000000E+00 -0.00000000000E+00 -0.60574599756E+02  0.60574599756E+02  0.00000000000E+00 0.  1.
          6    2    1    2  502    0  0.11969932584E+03  0.72281418387E+01  0.28783887331E+03  0.35551413856E+03  0.17075980525E+03 0.  0.
         24    2    3    3    0    0  0.66668376172E+02  0.46089439765E+02  0.25994965019E+03  0.28394332842E+03  0.80505181687E+02 0.  0.
         -6    2    1    2    0  501 -0.11969932584E+03 -0.72281418387E+01  0.38573883214E+03  0.43921276640E+03  0.17243327089E+03 0.  0.
        -24    2    5    5    0    0 -0.21783070082E+02 -0.17160581864E+02  0.73433389372E+02  0.11173295620E+03  0.79516055703E+02 0.  0.
          5    1    3    3  502    0  0.53030949663E+02 -0.38861297926E+02  0.27889223119E+02  0.71570810145E+02  0.47000000000E+01 0. -1.
        -13    1    4    4    0    0  0.29998409421E+02  0.65248104239E+02  0.14578419731E+03  0.16251231295E+03  0.00000000000E+00 0.  1.
         14    1    4    4    0    0  0.36669966752E+02 -0.19158664475E+02  0.11416545288E+03  0.12143101547E+03  0.00000000000E+00 0. -1.
         -5    1    5    5    0  501 -0.97916255754E+02  0.99324400254E+01  0.31230544277E+03  0.32747981020E+03  0.47000000000E+01 0.  1.
         13    1    6    6    0    0 -0.28236710172E+02  0.52824727932E+01  0.81978650265E+02  0.86866077496E+02  0.00000000000E+00 0. -1.
        -14    1    6    6    0    0  0.64536400909E+01 -0.22443054657E+02 -0.85452608935E+01  0.24866878705E+02  0.00000000000E+00 0.  1.
</event>
<event>
12    1  0.2685360E-002  0.1729491E+03  0.7818608E-02  0.1174807E+00
         -4   -1    0    0    0  501 -0.00000000000E+00  0.00000000000E+00  0.12238175429E+04  0.12238175429E+04  0.00000000000E+00 0. -1.
          4   -1    0    0  502    0  0.00000000000E+00 -0.00000000000E+00 -0.29328489189E+02  0.29328489189E+02  0.00000000000E+00 0.  1.
          6    2    1    2  502    0  0.77868708303E+01  0.11335111282E+02  0.85242527187E+03  0.86975190314E+03  0.17219294057E+03 0.  0.
         24    2    3    3    0    0  0.16094020136E+01  0.73940578342E+02  0.57676772241E+03  0.58696792162E+03  0.80003350545E+02 0.  0.
         -6    2    1    2    0  501 -0.77868708303E+01 -0.11335111282E+02  0.34206378183E+03  0.38339412894E+03  0.17261027537E+03 0.  0.
        -24    2    5    5    0    0 -0.63742712642E+02 -0.17971604028E+02  0.28429118189E+03  0.30255563210E+03  0.79575891098E+02 0.  0.
          5    1    3    3  502    0  0.61774688167E+01 -0.62605467060E+02  0.27565754946E+03  0.28278398152E+03  0.47000000000E+01 0. -1.
        -13    1    4    4    0    0  0.14515328492E+01  0.54334504869E+02  0.14657167143E+03  0.15632530260E+03  0.00000000000E+00 0.  1.
         14    1    4    4    0    0  0.15786916441E+00  0.19606073473E+02  0.43019605098E+03  0.43064261902E+03  0.00000000000E+00 0. -1.
         -5    1    5    5    0  501  0.55955841812E+02  0.66364927458E+01  0.57772599932E+02  0.80838496843E+02  0.47000000000E+01 0.  1.
         13    1    6    6    0    0  0.14572318544E+02  0.89601464966E+00  0.10485567115E+03  0.10586721439E+03  0.00000000000E+00 0. -1.
        -14    1    6    6    0    0 -0.78315031186E+02 -0.18867618678E+02  0.17943551074E+03  0.19668841770E+03  0.00000000000E+00 0.  1.
</event>
<event>
12    1  0.2685360E-002  0.1942118E+03  0.7818608E-02  0.1154716E+00
          2   -1    0    0  502    0  0.00000000000E+00  0.00000000000E+00  0.73998519149E+03  0.73998519149E+03  0.00000000000E+00 0.  1.
         -2   -1    0    0    0  501 -0.00000000000E+00 -0.00000000000E+00 -0.50974712009E+02  0.50974712009E+02  0.00000000000E+00 0. -1.
          6    2    1    2  502    0 -0.68266713013E+02 -0.57288943602E+02  0.34097176801E+03  0.39226186258E+03  0.17223604469E+03 0.  0.
         24    2    3    3    0    0 -0.49078155448E+02 -0.84882590441E+02  0.13072976339E+03  0.17929848405E+03  0.73783167763E+02 0.  0.
         -6    2    1    2    0  501  0.68266713013E+02  0.57288943602E+02  0.34803871147E+03  0.39869804092E+03  0.17287803789E+03 0.  0.
        -24    2    5    5    0    0  0.71979698444E+02  0.89399448638E+02  0.33224974038E+03  0.36241784794E+03  0.88223965665E+02 0.  0.
          5    1    3    3  502    0 -0.19188557565E+02  0.27593646839E+02  0.21024200463E+03  0.21296337853E+03  0.47000000000E+01 0. -1.
        -11    1    4    4    0    0 -0.39966272439E+01  0.12199687034E+01  0.57389409754E+02  0.57541339095E+02  0.00000000000E+00 0.  1.
         12    1    4    4    0    0 -0.45081528204E+02 -0.86102559145E+02  0.73340353632E+02  0.12175714495E+03  0.00000000000E+00 0. -1.
         -5    1    5    5    0  501 -0.37129854316E+01 -0.32110505036E+02  0.15788971091E+02  0.36280192979E+02  0.47000000000E+01 0.  1.
         11    1    6    6    0    0  0.90929415887E+02  0.71486308407E+02  0.29572325359E+03  0.31753849164E+03  0.00000000000E+00 0. -1.
        -12    1    6    6    0    0 -0.18949717443E+02  0.17913140230E+02  0.36526486792E+02  0.44879356295E+02  0.00000000000E+00 0.  1.
</event>
<event>
12    1  0.2685360E-002  0.1746555E+03  0.7818608E-02  0.1173078E+00
         -2   -1    0    0    0  501 -0.00000000000E+00  0.00000000000E+00  0.14361785650E+03  0.14361785650E+03  0.00000000000E+00 0.  1.
          2   -1    0    0  502    0  0.00000000000E+00 -0.00000000000E+00 -0.33864318801E+03  0.33864318801E+03  0.00000000000E+00 0. -1.
          6    2    1    2  502    0  0.34803347023E+02 -0.23080548122E+02 -0.24556295084E+03  0.30277664075E+03  0.17212944748E+03 0.  0.
         24    2    3    3    0    0 -0.23543115147E+02 -0.34408092865E+01 -0.47502423123E+02  0.95315580234E+02  0.79135720086E+02 0.  0.
         -6    2    1    2    0  501 -0.34803347023E+02  0.23080548122E+02  0.50537619324E+02  0.17948440376E+03  0.16708266086E+03 0.  0.
        -24    2    5    5    0    0 -0.49121685562E+02  0.44496225672E+02  0.88918938820E+02  0.13302085084E+03  0.73451446461E+02 0.  0.
          5    1    3    3  502    0  0.58346462170E+02 -0.19639738835E+02 -0.19806052772E+03  0.20746106051E+03  0.47000000000E+01 0. -1.
        -11    1    4    4    0    0  0.23611909729E+02 -0.19834646961E+02 -0.28210183682E+02  0.41794137920E+02  0.00000000000E+00 0.  1.
         12    1    4    4    0    0 -0.47155024875E+02  0.16393837675E+02 -0.19292239441E+02  0.53521442314E+02  0.00000000000E+00 0. -1.
         -5    1    5    5    0  501  0.14318338539E+02 -0.21415677550E+02 -0.38381319496E+02  0.46463552917E+02  0.47000000000E+01 0.  1.
         11    1    6    6    0    0 -0.13340145087E+02  0.24457004018E+02 -0.69809111112E+01  0.28719986707E+02  0.00000000000E+00 0. -1.
        -12    1    6    6    0    0 -0.35781540475E+02  0.20039221654E+02  0.95899849931E+02  0.10430086414E+03  0.00000000000E+00 0.  1.
</event>
<event>
12    1  0.2685360E-002  0.2049248E+03  0.7818608E-02  0.1145649E+00
         -2   -1    0    0    0  501 -0.00000000000E+00  0.00000000000E+00  0.37760665655E+02  0.37760665655E+02  0.00000000000E+00 0.  1.
          2   -1    0    0  502    0  0.00000000000E+00 -0.00000000000E+00 -0.11860879095E+04  0.11860879095E+04  0.00000000000E+00 0. -1.
          6    2    1    2  502    0 -0.23022884729E+02 -0.10800952990E+03 -0.72685201595E+03  0.75517387209E+03  0.17256190838E+03 0.  0.
         24    2    3    3    0    0  0.25147128142E+02 -0.11686075499E+03 -0.40200300058E+03  0.42661996918E+03  0.78162468754E+02 0.  0.
         -6    2    1    2    0  501  0.23022884729E+02  0.10800952990E+03 -0.42147522786E+03  0.46867470303E+03  0.17268033412E+03 0.  0.
        -24    2    5    5    0    0 -0.45318205373E+01  0.10372641537E+03 -0.16538135925E+03  0.21102422973E+03  0.80003280574E+02 0.  0.
          5    1    3    3  502    0 -0.48170012871E+02  0.88512250901E+01 -0.32484901537E+03  0.32855390290E+03  0.47000000000E+01 0. -1.
        -13    1    4    4    0    0 -0.30955797732E+01 -0.27879333717E+02 -0.22958368694E+02  0.36248124858E+02  0.00000000000E+00 0.  1.
         14    1    4    4    0    0  0.28242707915E+02 -0.88981421274E+02 -0.37904463188E+03  0.39037184433E+03  0.00000000000E+00 0. -1.
         -5    1    5    5    0  501  0.27554705266E+02  0.42831145308E+01 -0.25609386861E+03  0.25765047330E+03  0.47000000000E+01 0.  1.
         13    1    6    6    0    0 -0.37660770599E+02  0.85060329274E+02 -0.11917767695E+03  0.15118502552E+03  0.00000000000E+00 0. -1.
        -14    1    6    6    0    0  0.33128950062E+02  0.18666086096E+02 -0.46203682294E+02  0.59839204204E+02  0.00000000000E+00 0.  1.
</event>
<event>
12    1  0.2685360E-002  0.2376784E+03  0.7818608E-02  0.1121349E+00
         -1   -1    0    0    0  501 -0.00000000000E+00  0.00000000000E+00  0.16779905230E+03  0.16779905230E+03  0.00000000000E+00 0.  1.
          1   -1    0    0  502    0  0.00000000000E+00 -0.00000000000E+00 -0.41889643888E+03  0.41889643888E+03  0.00000000000E+00 0. -1.
          6    2    1    2  502    0 -0.49608648375E+02 -0.15628754507E+03 -0.25562000796E+03  0.34919806525E+03  0.17236845874E+03 0.  0.
         24    2    3    3    0    0 -0.92919823547E+02 -0.15072525156E+03 -0.21198989126E+03  0.28729108594E+03  0.79020623891E+02 0.  0.
         -6    2    1    2    0  501  0.49608648375E+02  0.15628754507E+03  0.45226213813E+01  0.23749742592E+03  0.17174911492E+03 0.  0.
        -24    2    5    5    0    0  0.65443837624E+02  0.26077233884E+02  0.51542918134E+01  0.10624207415E+03  0.79359269066E+02 0.  0.
          5    1    3    3  502    0  0.43311175172E+02 -0.55622935121E+01 -0.43630116703E+02  0.61906979311E+02  0.47000000000E+01 0. -1.
        -13    1    4    4    0    0 -0.16125273474E+02 -0.35469016412E+02 -0.65229291884E+01  0.39504736109E+02  0.00000000000E+00 0.  1.
         14    1    4    4    0    0 -0.76794550073E+02 -0.11525623515E+03 -0.20546696207E+03  0.24778634983E+03  0.00000000000E+00 0. -1.
         -5    1    5    5    0  501 -0.15835189249E+02  0.13021031119E+03 -0.63167043209E+00  0.13125535176E+03  0.47000000000E+01 0.  1.
         11    1    6    6    0    0 -0.13634327003E+02  0.16512264744E+02 -0.12303779686E+02  0.24696816685E+02  0.00000000000E+00 0. -1.
        -12    1    6    6    0    0  0.79078164627E+02  0.95649691400E+01  0.17458071499E+02  0.81545257470E+02  0.00000000000E+00 0.  1.
</event>
<event>
12    1  0.2685360E-002  0.2272737E+03  0.7818608E-02  0.1128574E+00
         -2   -1    0    0    0  501 -0.00000000000E+00  0.00000000000E+00  0.44898809256E+02  0.44898809256E+02  0.00000000000E+00 0. -1.
          2   -1    0    0  502    0  0.00000000000E+00 -0.00000000000E+00 -0.13091843078E+04  0.13091843078E+04  0.00000000000E+00 0.  1.
          6    2    1    2  502    0 -0.59776146766E+02  0.14319328634E+03 -0.87875656619E+03  0.90884584026E+03  0.17236633590E+03 0.  0.
         24    2    3    3    0    0 -0.36670686994E+02  0.14046380806E+03 -0.86628757161E+03  0.88203393714E+03  0.80342323060E+02 0.  0.
         -6    2    1    2    0  501  0.59776146766E+02 -0.14319328634E+03 -0.38552893238E+03  0.44523727683E+03  0.15976911466E+03 0.  0.
        -24    2    5    5    0    0 -0.16506271957E+02 -0.49895423952E+02 -0.11986714832E+03  0.15348091949E+03  0.80163888739E+02 0.  0.
          5    1    3    3  502    0 -0.23105459772E+02  0.27294782853E+01 -0.12468994578E+02  0.26811903117E+02  0.47000000000E+01 0. -1.
        -13    1    4    4    0    0  0.24992047639E+02  0.35878813384E+02 -0.26918968828E+03  0.27271776614E+03  0.00000000000E+00 0.  1.
         14    1    4    4    0    0 -0.61662734633E+02  0.10458499467E+03 -0.59709788334E+03  0.60931617100E+03  0.00000000000E+00 0. -1.
         -5    1    5    5    0  501  0.76282418723E+02 -0.93297862392E+02 -0.26566178407E+03  0.29175635734E+03  0.47000000000E+01 0.  1.
         11    1    6    6    0    0 -0.20503632951E+02 -0.28799991469E+02 -0.12622994762E+03  0.13108713952E+03  0.00000000000E+00 0. -1.
        -12    1    6    6    0    0  0.39973609944E+01 -0.21095432483E+02  0.63627992985E+01  0.22393779973E+02  0.00000000000E+00 0.  1.
</event>
<event>
12    1  0.2685360E-002  0.2008029E+03  0.7818608E-02  0.1149063E+00
          2   -1    0    0  502    0  0.00000000000E+00  0.00000000000E+00  0.32960777649E+04  0.32960777649E+04  0.00000000000E+00 0.  1.
         -2   -1    0    0    0  501 -0.00000000000E+00 -0.00000000000E+00 -0.46344795297E+02  0.46344795297E+02  0.00000000000E+00 0. -1.
          6    2    1    2  502    0  0.78226370177E+02 -0.67224359734E+02  0.19083752531E+03  0.27693554384E+03  0.17215067482E+03 0.  0.
         24    2    3    3    0    0  0.41258252489E+02 -0.11031020319E+03  0.12489641976E+03  0.18979570776E+03  0.80948815234E+02 0.  0.
         -6    2    1    2    0  501 -0.78226370177E+02  0.67224359734E+02  0.30588954442E+04  0.30654870163E+04  0.17242629968E+03 0.  0.
        -24    2    5    5    0    0 -0.42736960755E+02 -0.88228451401E+01  0.23067539648E+04  0.23086636745E+04  0.83125312671E+02 0.  0.
          5    1    3    3  502    0  0.36968117688E+02  0.43085843452E+02  0.65941105548E+02  0.87139836082E+02  0.47000000000E+01 0. -1.
        -11    1    4    4    0    0  0.63341981573E+02 -0.91394551634E+02  0.82829515940E+02  0.13865748955E+03  0.00000000000E+00 0.  1.
         12    1    4    4    0    0 -0.22083729084E+02 -0.18915651552E+02  0.42066903823E+02  0.51138218205E+02  0.00000000000E+00 0. -1.
         -5    1    5    5    0  501 -0.35489409422E+02  0.76047204874E+02  0.75214147946E+03  0.75682334179E+03  0.47000000000E+01 0.  1.
         11    1    6    6    0    0 -0.24220450329E+02  0.10048376325E+02  0.19624743512E+03  0.19799155506E+03  0.00000000000E+00 0. -1.
        -12    1    6    6    0    0 -0.18516510426E+02 -0.18871221465E+02  0.21105065297E+04  0.21106721195E+04  0.00000000000E+00 0.  1.
</event>
<event>
12    1  0.2685360E-002  0.1906990E+03  0.7818608E-02  0.1157832E+00
          2   -1    0    0  502    0  0.00000000000E+00  0.00000000000E+00  0.26660549112E+04  0.26660549112E+04  0.00000000000E+00 0.  1.
         -2   -1    0    0    0  501 -0.00000000000E+00 -0.00000000000E+00 -0.14870681089E+02  0.14870681089E+02  0.00000000000E+00 0. -1.
          6    2    1    2  502    0  0.45800042202E+02  0.68641557408E+02  0.94463458687E+03  0.96383336010E+03  0.17271634568E+03 0.  0.
         24    2    3    3    0    0  0.24234987672E+02  0.79236250509E+02  0.35317823054E+03  0.37187051453E+03  0.81774684500E+02 0.  0.
         -6    2    1    2    0  501 -0.45800042202E+02 -0.68641557408E+02  0.17065496433E+04  0.17170922322E+04  0.17112785198E+03 0.  0.
        -24    2    5    5    0    0 -0.79051262542E+02 -0.56420348365E+01  0.82582855313E+03  0.83348241328E+03  0.80119906516E+02 0.  0.
          5    1    3    3  502    0  0.21565054531E+02 -0.10594693101E+02  0.59145635633E+03  0.59196284557E+03  0.47000000000E+01 0. -1.
        -11    1    4    4    0    0  0.49248748288E+01  0.85172885451E+02  0.33122683477E+03  0.34203785007E+03  0.00000000000E+00 0.  1.
         12    1    4    4    0    0  0.19310112843E+02 -0.59366349425E+01  0.21951395773E+02  0.29832664460E+02  0.00000000000E+00 0. -1.
         -5    1    5    5    0  501  0.33251220339E+02 -0.62999522571E+02  0.88072109015E+03  0.88360981894E+03  0.47000000000E+01 0.  1.
         11    1    6    6    0    0 -0.90634339810E+02 -0.16175458686E+02  0.77051287954E+03  0.77599376709E+03  0.00000000000E+00 0. -1.
        -12    1    6    6    0    0  0.11583077268E+02  0.10533423849E+02  0.55315673583E+02  0.57488646192E+02  0.00000000000E+00 0.  1.
</event>
<event>
12    1  0.2685360E-002  0.1762281E+03  0.7818608E-02  0.1171504E+00
          2   -1    0    0  502    0  0.00000000000E+00  0.00000000000E+00  0.17644352802E+03  0.17644352802E+03  0.00000000000E+00 0.  1.
         -2   -1    0    0    0  501 -0.00000000000E+00 -0.00000000000E+00 -0.19561958307E+03  0.19561958307E+03  0.00000000000E+00 0. -1.
          6    2    1    2  502    0  0.43498024954E+02  0.55967420204E+00 -0.68375801223E+02  0.18748245010E+03  0.16906220007E+03 0.  0.
         24    2    3    3    0    0 -0.23629619952E+02  0.43082937822E+02 -0.45905333454E+02  0.10476993242E+03  0.80342645146E+02 0.  0.
         -6    2    1    2    0  501 -0.43498024954E+02 -0.55967420204E+00  0.49199746177E+02  0.18458066099E+03  0.17250221442E+03 0.  0.
        -24    2    5    5    0    0 -0.17783470534E+02  0.55104071758E+02 -0.50810465881E+01  0.10255514431E+03  0.84492781007E+02 0.  0.
          5    1    3    3  502    0  0.67127644906E+02 -0.42523263620E+02 -0.22470467769E+02  0.82712517682E+02  0.47000000000E+01 0. -1.
        -11    1    4    4    0    0 -0.13438188839E+02 -0.22798799924E+02 -0.20311079282E+02  0.33360307835E+02  0.00000000000E+00 0.  1.
         12    1    4    4    0    0 -0.10191431113E+02  0.65881737746E+02 -0.25594254172E+02  0.71409624583E+02  0.00000000000E+00 0. -1.
         -5    1    5    5    0  501 -0.25714554420E+02 -0.55663745961E+02  0.54280792765E+02  0.82025516680E+02  0.47000000000E+01 0.  1.
         13    1    6    6    0    0  0.71629301195E+01  0.70681347915E+02 -0.12709970369E+02  0.72171350672E+02  0.00000000000E+00 0. -1.
        -14    1    6    6    0    0 -0.24946400654E+02 -0.15577276157E+02  0.76289237812E+01  0.30383793642E+02  0.00000000000E+00 0.  1.
</event>
<event>
12    1  0.2685360E-002  0.1806924E+03  0.7818608E-02  0.1167135E+00
         -2   -1    0    0    0  501 -0.00000000000E+00  0.00000000000E+00  0.47708705230E+02  0.47708705230E+02  0.00000000000E+00 0. -1.
          2   -1    0    0  502    0  0.00000000000E+00 -0.00000000000E+00 -0.16246928293E+04  0.16246928293E+04  0.00000000000E+00 0.  1.
          6    2    1    2  502    0  0.31086193605E+02  0.43506585256E+02 -0.15179308903E+03  0.23576466167E+03  0.17229236611E+03 0.  0.
         24    2    3    3    0    0  0.57905932207E+02 -0.27599716133E+01 -0.15284652079E+03  0.18207022637E+03  0.80167287512E+02 0.  0.
         -6    2    1    2    0  501 -0.31086193605E+02 -0.43506585256E+02 -0.14251910351E+04  0.14366368729E+04  0.17290703781E+03 0.  0.
        -24    2    5    5    0    0 -0.41062433353E+02  0.26551546501E+02 -0.10916088020E+04  0.10955989521E+04  0.79600120825E+02 0.  0.
          5    1    3    3  502    0 -0.26819738602E+02  0.46266556870E+02  0.10534317530E+01  0.53694435295E+02  0.47000000000E+01 0. -1.
        -13    1    4    4    0    0  0.46447672587E+02 -0.37777728780E+02 -0.75178326201E+02  0.96105794887E+02  0.00000000000E+00 0.  1.
         14    1    4    4    0    0  0.11458259619E+02  0.35017757167E+02 -0.77668194585E+02  0.85964431485E+02  0.00000000000E+00 0. -1.
         -5    1    5    5    0  501  0.99762397476E+01 -0.70058131757E+02 -0.33358223309E+03  0.34103792079E+03  0.47000000000E+01 0.  1.
         11    1    6    6    0    0 -0.49615174905E+01  0.49963855341E+02 -0.55357482608E+03  0.55584718364E+03  0.00000000000E+00 0. -1.
        -12    1    6    6    0    0 -0.36100915862E+02 -0.23412308841E+02 -0.53803397592E+03  0.53975176848E+03  0.00000000000E+00 0.  1.
</event>
<event>
12    1  0.2685360E-002  0.2136821E+03  0.7818608E-02  0.1138683E+00
         -1   -1    0    0    0  501 -0.00000000000E+00  0.00000000000E+00  0.10040262555E+03  0.10040262555E+03  0.00000000000E+00 0.  1.
          1   -1    0    0  502    0  0.00000000000E+00 -0.00000000000E+00 -0.45819703528E+03  0.45819703528E+03  0.00000000000E+00 0. -1.
          6    2    1    2  502    0  0.11043725549E+03  0.63872675686E+02 -0.20274893176E+03  0.29430096906E+03  0.17096732131E+03 0.  0.
         24    2    3    3    0    0  0.86009695177E+02  0.10195169547E+03 -0.19344632708E+03  0.24787526599E+03  0.78923064806E+02 0.  0.
         -6    2    1    2    0  501 -0.11043725549E+03 -0.63872675686E+02 -0.15504547797E+03  0.26429869178E+03  0.17186794971E+03 0.  0.
        -24    2    5    5    0    0 -0.36571317917E+02 -0.45076404895E+02 -0.16012051686E+03  0.18776554504E+03  0.79044142175E+02 0.  0.
          5    1    3    3  502    0  0.24427560313E+02 -0.38079019787E+02 -0.93026046851E+01  0.46425703061E+02  0.47000000000E+01 0. -1.
        -11    1    4    4    0    0 -0.16029680025E+01  0.24268892812E+02 -0.32677049723E+01  0.24540304818E+02  0.00000000000E+00 0.  1.
         12    1    4    4    0    0  0.87612663180E+02  0.77682802661E+02 -0.19017862210E+03  0.22333496118E+03  0.00000000000E+00 0. -1.
         -5    1    5    5    0  501 -0.73865937574E+02 -0.18796270791E+02  0.50750388945E+01  0.76533146735E+02  0.47000000000E+01 0.  1.
         13    1    6    6    0    0 -0.48474883371E+01 -0.61419252660E+02 -0.89721293681E+02  0.10883810583E+03  0.00000000000E+00 0. -1.
        -14    1    6    6    0    0 -0.31723829579E+02  0.16342847765E+02 -0.70399223181E+02  0.78927439213E+02  0.00000000000E+00 0.  1.
</event>
<event>
12    1  0.2685360E-002  0.2706849E+03  0.7818608E-02  0.1100888E+00
          1   -1    0    0  502    0  0.00000000000E+00  0.00000000000E+00  0.19239528560E+03  0.19239528560E+03  0.00000000000E+00 0. -1.
         -1   -1    0    0    0  501 -0.00000000000E+00 -0.00000000000E+00 -0.38894929981E+03  0.38894929981E+03  0.00000000000E+00 0.  1.
          6    2    1    2  502    0 -0.16469536571E+03  0.12941203468E+03 -0.56533646646E+02  0.27719051722E+03  0.17252968273E+03 0.  0.
         24    2    3    3    0    0 -0.67210954947E+02 -0.49728590179E+01 -0.13422352447E+02  0.10560035525E+03  0.80182502404E+02 0.  0.
         -6    2    1    2    0  501  0.16469536571E+03 -0.12941203468E+03 -0.14002036757E+03  0.30415406819E+03  0.17038766286E+03 0.  0.
        -24    2    5    5    0    0  0.86147509729E+02 -0.88334581511E+02 -0.10223444930E+02  0.14690759298E+03  0.79075472345E+02 0.  0.
          5    1    3    3  502    0 -0.97484410767E+02  0.13438489370E+03 -0.43111294199E+02  0.17159016197E+03  0.47000000000E+01 0. -1.
        -11    1    4    4    0    0 -0.33808560243E+02 -0.29295331945E+02 -0.36976551473E+02  0.58038785121E+02  0.00000000000E+00 0.  1.
         12    1    4    4    0    0 -0.33402394704E+02  0.24322472927E+02  0.23554199026E+02  0.47561570128E+02  0.00000000000E+00 0. -1.
         -5    1    5    5    0  501  0.78547855986E+02 -0.41077453167E+02 -0.12979692264E+03  0.15724647521E+03  0.47000000000E+01 0.  1.
         13    1    6    6    0    0  0.92730971625E+02 -0.58301734571E+02  0.10179292682E+02  0.11000792404E+03  0.00000000000E+00 0. -1.
        -14    1    6    6    0    0 -0.65834618964E+01 -0.30032846940E+02 -0.20402737612E+02  0.36899668941E+02  0.00000000000E+00 0.  1.
</event>
<event>
12    1  0.2685360E-002  0.3499045E+03  0.7818608E-02  0.1062654E+00
         -1   -1    0    0    0  501 -0.00000000000E+00  0.00000000000E+00  0.14065659339E+03  0.14065659339E+03  0.00000000000E+00 0.  1.
          1   -1    0    0  502    0  0.00000000000E+00 -0.00000000000E+00 -0.10366498534E+04  0.10366498534E+04  0.00000000000E+00 0. -1.
          6    2    1    2  502    0  0.28266118065E+03 -0.11431513367E+03 -0.68329366809E+03  0.76750087169E+03  0.17088609763E+03 0.  0.
         24    2    3    3    0    0  0.29289071382E+03 -0.12406584788E+03 -0.67557622308E+03  0.75072682227E+03  0.77525632070E+02 0.  0.
         -6    2    1    2    0  501 -0.28266118065E+03  0.11431513367E+03 -0.21269959194E+03  0.40980557512E+03  0.17243607557E+03 0.  0.
        -24    2    5    5    0    0 -0.26544515408E+03  0.14656480044E+03 -0.17762234503E+03  0.35892398878E+03  0.73036714859E+02 0.  0.
          5    1    3    3  502    0 -0.10229533173E+02  0.97507142115E+01 -0.77174450079E+01  0.16774049422E+02  0.47000000000E+01 0. -1.
        -11    1    4    4    0    0  0.14131441761E+03 -0.97095523069E+02 -0.31455632127E+03  0.35824989111E+03  0.00000000000E+00 0.  1.
         12    1    4    4    0    0  0.15157629621E+03 -0.26970324814E+02 -0.36101990181E+03  0.39247693116E+03  0.00000000000E+00 0. -1.
         -5    1    5    5    0  501 -0.17216026568E+02 -0.32249666769E+02 -0.35077246912E+02  0.50881586340E+02  0.47000000000E+01 0.  1.
         13    1    6    6    0    0 -0.22525529137E+03  0.90195867772E+02 -0.13646545496E+03  0.27838473602E+03  0.00000000000E+00 0. -1.
        -14    1    6    6    0    0 -0.40189862709E+02  0.56368932669E+02 -0.41156890066E+02  0.80539252757E+02  0.00000000000E+00 0.  1.
</event>
<event>
12    1  0.2685360E-002  0.1925768E+03  0.7818608E-02  0.1156158E+00
          1   -1    0    0  502    0  0.00000000000E+00  0.00000000000E+00  0.14279959199E+04  0.14279959199E+04  0.00000000000E+00 0.  1.
         -1   -1    0    0    0  501 -0.00000000000E+00 -0.00000000000E+00 -0.28267259822E+02  0.28267259822E+02  0.00000000000E+00 0. -1.
          6    2    1    2  502    0 -0.78509986579E+02 -0.33866789743E+02  0.90808741173E+03  0.92832456385E+03  0.17278012347E+03 0.  0.
         24    2    3    3    0    0 -0.67063390364E+02  0.29175257632E+02  0.34294745382E+03  0.35954465358E+03  0.79439963811E+02 0.  0.
         -6    2    1    2    0  501  0.78509986579E+02  0.33866789743E+02  0.49164124838E+03  0.52793861591E+03  0.17232900979E+03 0.  0.
        -24    2    5    5    0    0  0.74877865453E+02 -0.29533324539E+02  0.40340094210E+03  0.41912129905E+03  0.80320802026E+02 0.  0.
          5    1    3    3  502    0 -0.11446596215E+02 -0.63042047375E+02  0.56513995791E+03  0.56877991027E+03  0.47000000000E+01 0. -1.
        -13    1    4    4    0    0 -0.11287006064E+02  0.34118199730E+02  0.23701043127E+03  0.23971940386E+03  0.00000000000E+00 0.  1.
         14    1    4    4    0    0 -0.55776384300E+02 -0.49429420976E+01  0.10593702255E+03  0.11982524972E+03  0.00000000000E+00 0. -1.
         -5    1    5    5    0  501  0.36321211255E+01  0.63400114282E+02  0.88240306281E+02  0.10881731685E+03  0.47000000000E+01 0.  1.
         13    1    6    6    0    0  0.91774094762E+02 -0.26356102690E+02  0.31884282750E+03  0.33283310723E+03  0.00000000000E+00 0. -1.
        -14    1    6    6    0    0 -0.16896229309E+02 -0.31772218493E+01  0.84558114599E+02  0.86288191823E+02  0.00000000000E+00 0.  1.
</event>
<event>
12    1  0.2685360E-002  0.1967750E+03  0.7818608E-02  0.1152489E+00
          2   -1    0    0  502    0  0.00000000000E+00  0.00000000000E+00  0.59250280761E+03  0.59250280761E+03  0.00000000000E+00 0. -1.
         -2   -1    0    0    0  501 -0.00000000000E+00 -0.00000000000E+00 -0.65768158287E+02  0.65768158287E+02  0.00000000000E+00 0.  1.
          6    2    1    2  502    0 -0.83285524299E+02  0.35947548243E+02  0.23469419793E+03  0.30499591851E+03  0.17237296477E+03 0.  0.
         24    2    3    3    0    0 -0.36963947035E+01 -0.29496828924E+02  0.12472351839E+03  0.15422113146E+03  0.85699913057E+02 0.  0.
         -6    2    1    2    0  501  0.83285524299E+02 -0.35947548243E+02  0.29204045139E+03  0.35327504739E+03  0.17688111565E+03 0.  0.
        -24    2    5    5    0    0  0.80764127897E+02 -0.16863129941E+02  0.30738691731E+03  0.32821159835E+03  0.80180589005E+02 0.  0.
          5    1    3    3  502    0 -0.79589129596E+02  0.65444377168E+02  0.10997067953E+03  0.15077478705E+03  0.47000000000E+01 0. -1.
        -11    1    4    4    0    0  0.55261227136E+01 -0.54137214650E+01  0.12799259917E+03  0.12822617461E+03  0.00000000000E+00 0.  1.
         12    1    4    4    0    0 -0.92225174171E+01 -0.24083107459E+02 -0.32690807800E+01  0.25994956848E+02  0.00000000000E+00 0. -1.
         -5    1    5    5    0  501  0.25213964021E+01 -0.19084418302E+02 -0.15346465911E+02  0.25063449039E+02  0.47000000000E+01 0.  1.
         13    1    6    6    0    0  0.25869750868E+01 -0.30610154469E+02  0.13465123994E+03  0.13811093518E+03  0.00000000000E+00 0. -1.
        -14    1    6    6    0    0  0.78177152810E+02  0.13747024528E+02  0.17273567736E+03  0.19010066317E+03  0.00000000000E+00 0.  1.
</event>
<event>
12    1  0.2685360E-002  0.2710250E+03  0.7818608E-02  0.1100694E+00
         -1   -1    0    0    0  501 -0.00000000000E+00  0.00000000000E+00  0.76713165534E+02  0.76713165534E+02  0.00000000000E+00 0. -1.
          1   -1    0    0  502    0  0.00000000000E+00 -0.00000000000E+00 -0.19789501823E+04  0.19789501823E+04  0.00000000000E+00 0.  1.
          6    2    1    2  502    0 -0.12930816101E+03  0.16430661605E+03 -0.16902458937E+04  0.17119023021E+04  0.17309259441E+03 0.  0.
         24    2    3    3    0    0 -0.13593945887E+03  0.12460956867E+03 -0.97251651739E+03  0.99303000657E+03  0.79455246994E+02 0.  0.
         -6    2    1    2    0  501  0.12930816101E+03 -0.16430661605E+03 -0.21199112301E+03  0.34376104566E+03  0.17179684426E+03 0.  0.
        -24    2    5    5    0    0  0.11446730459E+03 -0.10775218611E+03 -0.71768572739E+02  0.19176397934E+03  0.83122790558E+02 0.  0.
          5    1    3    3  502    0  0.66312978589E+01  0.39697047372E+02 -0.71772937634E+03  0.71887229557E+03  0.47000000000E+01 0. -1.
        -11    1    4    4    0    0 -0.13777752686E+02  0.13496505208E+02 -0.29686878553E+03  0.29749463516E+03  0.00000000000E+00 0.  1.
         12    1    4    4    0    0 -0.12216170618E+03  0.11111306347E+03 -0.67564773185E+03  0.69553537142E+03  0.00000000000E+00 0. -1.
         -5    1    5    5    0  501  0.14840856422E+02 -0.56554429936E+02 -0.14022255027E+03  0.15199706631E+03  0.47000000000E+01 0.  1.
         11    1    6    6    0    0 -0.11631749147E+02 -0.22011153308E+02 -0.54824308759E+01  0.25492067521E+02  0.00000000000E+00 0. -1.
        -12    1    6    6    0    0  0.12609905373E+03 -0.85741032800E+02 -0.66286141863E+02  0.16627191182E+03  0.00000000000E+00 0.  1.
</event>
<event>
12    1  0.2685360E-002  0.4081981E+03  0.7818608E-02  0.1040977E+00
         -2   -1    0    0    0  501 -0.00000000000E+00  0.00000000000E+00  0.33078723156E+03  0.33078723156E+03  0.00000000000E+00 0. -1.
          2   -1    0    0  502    0  0.00000000000E+00 -0.00000000000E+00 -0.55560493633E+03  0.55560493633E+03  0.00000000000E+00 0.  1.
          6    2    1    2  502    0 -0.11258159803E+03  0.35416855715E+03 -0.24817520586E+03  0.47890363540E+03  0.17218529582E+03 0.  0.
         24    2    3    3    0    0 -0.20681850806E+02  0.10286704924E+03 -0.13381366635E+03  0.18787328794E+03  0.79880574906E+02 0.  0.
         -6    2    1    2    0  501  0.11258159803E+03 -0.35416855715E+03  0.23357501088E+02  0.40748853249E+03  0.16550331768E+03 0.  0.
        -24    2    5    5    0    0  0.11760333993E+03 -0.36593008275E+03  0.19033586994E+02  0.39319386184E+03  0.80645920701E+02 0.  0.
          5    1    3    3  502    0 -0.91899747228E+02  0.25130150791E+03 -0.11436153951E+03  0.29103034745E+03  0.47000000000E+01 0. -1.
        -13    1    4    4    0    0 -0.42493990631E+02  0.65264324616E+02 -0.11846648710E+03  0.14177263443E+03  0.00000000000E+00 0.  1.
         14    1    4    4    0    0  0.21812139825E+02  0.37602724628E+02 -0.15347179247E+02  0.46100653509E+02  0.00000000000E+00 0. -1.
         -5    1    5    5    0  501 -0.50217418981E+01  0.11761525597E+02  0.43239140945E+01  0.14294670656E+02  0.47000000000E+01 0.  1.
         11    1    6    6    0    0  0.18696534925E+02 -0.30819208477E+02  0.24782872125E+02  0.43744425704E+02  0.00000000000E+00 0. -1.
        -12    1    6    6    0    0  0.98906805007E+02 -0.33511087427E+03 -0.57492851314E+01  0.34944943613E+03  0.00000000000E+00 0.  1.
</event>
<event>
12    1  0.2685360E-002  0.2294889E+03  0.7818608E-02  0.1127000E+00
         -2   -1    0    0    0  501 -0.00000000000E+00  0.00000000000E+00  0.61074550280E+02  0.61074550280E+02  0.00000000000E+00 0. -1.
          2   -1    0    0  502    0  0.00000000000E+00 -0.00000000000E+00 -0.25351287145E+04  0.25351287145E+04  0.00000000000E+00 0.  1.
          6    2    1    2  502    0  0.13951793278E+03 -0.58347465145E+02 -0.18248710272E+03  0.29316986021E+03  0.17256113126E+03 0.  0.
         24    2    3    3    0    0  0.13436131616E+03 -0.83164462285E+02 -0.19575283880E+03  0.26417772687E+03  0.80631299175E+02 0.  0.
         -6    2    1    2    0  501 -0.13951793278E+03  0.58347465145E+02 -0.22915670615E+04  0.23030334046E+04  0.17266610828E+03 0.  0.
        -24    2    5    5    0    0 -0.67649720004E+02 -0.53441493293E+00 -0.62403837441E+03  0.63291181376E+03  0.81096862129E+02 0.  0.
          5    1    3    3  502    0  0.51566166193E+01  0.24816997140E+02  0.13265736083E+02  0.28992133344E+02  0.47000000000E+01 0. -1.
        -13    1    4    4    0    0  0.11909036672E+03 -0.32822869565E+02 -0.15114583395E+03  0.19520481381E+03  0.00000000000E+00 0.  1.
         14    1    4    4    0    0  0.15270949436E+02 -0.50341592720E+02 -0.44607004850E+02  0.68972913060E+02  0.00000000000E+00 0. -1.
         -5    1    5    5    0  501 -0.71868212775E+02  0.58881880078E+02 -0.16675286871E+04  0.16701215908E+04  0.47000000000E+01 0.  1.
         13    1    6    6    0    0  0.14009801033E+02 -0.17167632415E+02 -0.11942918476E+03  0.12146741250E+03  0.00000000000E+00 0. -1.
        -14    1    6    6    0    0 -0.81659521037E+02  0.16633217482E+02 -0.50460918966E+03  0.51144440126E+03  0.00000000000E+00 0.  1.
</event>
<event>
12    1  0.2685360E-002  0.2414880E+03  0.7818608E-02  0.1118806E+00
          2   -1    0    0  502    0  0.00000000000E+00  0.00000000000E+00  0.20778048990E+04  0.20778048990E+04  0.00000000000E+00 0.  1.
         -2   -1    0    0    0  501 -0.00000000000E+00 -0.00000000000E+00 -0.32741802384E+02  0.32741802384E+02  0.00000000000E+00 0. -1.
          6    2    1    2  502    0  0.84279868971E+02  0.14801309438E+03  0.61499683739E+03  0.65982179879E+03  0.16772812445E+03 0.  0.
         24    2    3    3    0    0  0.12180857882E+03  0.94069386692E+02  0.43282231743E+03  0.46610041797E+03  0.78918070055E+02 0.  0.
         -6    2    1    2    0  501 -0.84279868971E+02 -0.14801309438E+03  0.14300662592E+04  0.14507249025E+04  0.17464897601E+03 0.  0.
        -24    2    5    5    0    0  0.15674295733E+02 -0.27837615804E+02  0.40848971365E+03  0.41724838658E+03  0.78814678488E+02 0.  0.
          5    1    3    3  502    0 -0.37528709848E+02  0.53943707683E+02  0.18217451996E+03  0.19372138081E+03  0.47000000000E+01 0. -1.
        -13    1    4    4    0    0  0.51044873268E+02  0.11034977902E+02  0.22940197870E+03  0.23527137024E+03  0.00000000000E+00 0.  1.
         14    1    4    4    0    0  0.70763705551E+02  0.83034408790E+02  0.20342033873E+03  0.23082904773E+03  0.00000000000E+00 0. -1.
         -5    1    5    5    0  501 -0.99954164704E+02 -0.12017547857E+03  0.10215765455E+04  0.10334765160E+04  0.47000000000E+01 0.  1.
         11    1    6    6    0    0 -0.55498255087E+01  0.12251501203E+02  0.11559724152E+02  0.17734910977E+02  0.00000000000E+00 0. -1.
        -12    1    6    6    0    0  0.21224121242E+02 -0.40089117007E+02  0.39692998950E+03  0.39951347561E+03  0.00000000000E+00 0.  1.
</event>
<event>
12    1  0.2685360E-002  0.1878408E+03  0.7818608E-02  0.1160423E+00
         -1   -1    0    0    0  501 -0.00000000000E+00  0.00000000000E+00  0.14987889061E+03  0.14987889061E+03  0.00000000000E+00 0. -1.
          1   -1    0    0  502    0  0.00000000000E+00 -0.00000000000E+00 -0.25749086497E+03  0.25749086497E+03  0.00000000000E+00 0.  1.
          6    2    1    2  502    0  0.69064782515E+02  0.25845724215E+02 -0.11301269634E+03  0.21789607085E+03  0.17108150839E+03 0.  0.
         24    2    3    3    0    0  0.25460001696E+02 -0.47413109790E+02 -0.87391816507E+02  0.12875150762E+03  0.77739349465E+02 0.  0.
         -6    2    1    2    0  501 -0.69064782515E+02 -0.25845724215E+02  0.54007219803E+01  0.18947368474E+03  0.17445103544E+03 0.  0.
        -24    2    5    5    0    0  0.29016034778E+02 -0.37581007193E+01 -0.19834966634E+02  0.85711264697E+02  0.78082913620E+02 0.  0.
          5    1    3    3  502    0  0.43604780819E+02  0.73258834005E+02 -0.25620879835E+02  0.89144563231E+02  0.47000000000E+01 0. -1.
        -11    1    4    4    0    0 -0.53713151335E+01  0.12876049949E+02  0.44510094063E+01  0.14644288077E+02  0.00000000000E+00 0.  1.
         12    1    4    4    0    0  0.30831316830E+02 -0.60289159739E+02 -0.91842825914E+02  0.11410721954E+03  0.00000000000E+00 0. -1.
         -5    1    5    5    0  501 -0.98080817293E+02 -0.22087623496E+02  0.25235688614E+02  0.10376242004E+03  0.47000000000E+01 0.  1.
         11    1    6    6    0    0 -0.25338258438E+02  0.76111797178E+00  0.49063943728E+01  0.25820134527E+02  0.00000000000E+00 0. -1.
        -12    1    6    6    0    0  0.54354293216E+02 -0.45192186911E+01 -0.24741361007E+02  0.59891130170E+02  0.00000000000E+00 0.  1.
</event>
<event>
12    1  0.2685360E-002  0.1901900E+03  0.7818608E-02  0.1158290E+00
          1   -1    0    0  502    0  0.00000000000E+00  0.00000000000E+00  0.13427687243E+03  0.13427687243E+03  0.00000000000E+00 0.  1.
         -1   -1    0    0    0  501 -0.00000000000E+00 -0.00000000000E+00 -0.32181836269E+03  0.32181836269E+03  0.00000000000E+00 0. -1.
          6    2    1    2  502    0  0.30819886655E+02  0.76117601869E+02 -0.18512623092E+03  0.26425001965E+03  0.16974273706E+03 0.  0.
         24    2    3    3    0    0 -0.15345929539E+02  0.10178281051E+03 -0.99487326713E+02  0.16352218123E+03  0.79035039760E+02 0.  0.
         -6    2    1    2    0  501 -0.30819886655E+02 -0.76117601869E+02 -0.24152593468E+01  0.19184521547E+03  0.17336377503E+03 0.  0.
        -24    2    5    5    0    0  0.34902570304E+02 -0.50397664236E+02 -0.48635482849E+02  0.10735050793E+03  0.73488824918E+02 0.  0.
          5    1    3    3  502    0  0.46165816194E+02 -0.25665208641E+02 -0.85638904204E+02  0.10072783842E+03  0.47000000000E+01 0. -1.
        -13    1    4    4    0    0  0.28921602174E+02  0.27940510018E+02 -0.50188708140E+02  0.64312033066E+02  0.00000000000E+00 0.  1.
         14    1    4    4    0    0 -0.44267531713E+02  0.73842300492E+02 -0.49298618574E+02  0.99210148166E+02  0.00000000000E+00 0. -1.
         -5    1    5    5    0  501 -0.65722456959E+02 -0.25719937633E+02  0.46220223502E+02  0.84494707533E+02  0.47000000000E+01 0.  1.
         11    1    6    6    0    0 -0.13927534725E+02 -0.17379748131E+02 -0.42633404753E+02  0.48100302176E+02  0.00000000000E+00 0. -1.
        -12    1    6    6    0    0  0.48830105029E+02 -0.33017916105E+02 -0.60020780960E+01  0.59250205759E+02  0.00000000000E+00 0.  1.
</event>
<event>
12    1  0.2685360E-002  0.5566449E+03  0.7818608E-02  0.9999675E-01
          1   -1    0    0  502    0  0.00000000000E+00  0.00000000000E+00  0.18940537623E+04  0.18940537623E+04  0.00000000000E+00 0. -1.
         -1   -1    0    0    0  501 -0.00000000000E+00 -0.00000000000E+00 -0.19226708332E+03  0.19226708332E+03  0.00000000000E+00 0.  1.
          6    2    1    2  502    0 -0.25858670981E+03 -0.46228082614E+03  0.12533691199E+04  0.13713010084E+04  0.17018124484E+03 0.  0.
         24    2    3    3    0    0 -0.26760143249E+03 -0.46776786500E+03  0.12304578313E+04  0.13456418976E+04  0.79425057393E+02 0.  0.
         -6    2    1    2    0  501  0.25858670981E+03  0.46228082614E+03  0.44841755908E+03  0.71501983727E+03  0.17205932607E+03 0.  0.
        -24    2    5    5    0    0  0.57875278170E+02  0.22830503886E+03  0.20627662239E+03  0.32299423728E+03  0.79388247107E+02 0.  0.
          5    1    3    3  502    0  0.90147226757E+01  0.54870388560E+01  0.22911288681E+02  0.25659110845E+02  0.47000000000E+01 0. -1.
        -11    1    4    4    0    0 -0.60027007787E+02 -0.54922741238E+02  0.15335761422E+03  0.17360387959E+03  0.00000000000E+00 0.  1.
         12    1    4    4    0    0 -0.20757442470E+03 -0.41284512376E+03  0.10771002170E+04  0.11720380180E+04  0.00000000000E+00 0. -1.
         -5    1    5    5    0  501  0.20071143164E+03  0.23397578728E+03  0.24214093669E+03  0.39202559999E+03  0.47000000000E+01 0.  1.
         11    1    6    6    0    0  0.15461406931E+02  0.94135944322E+01  0.42955276584E+02  0.46613588693E+02  0.00000000000E+00 0. -1.
        -12    1    6    6    0    0  0.42413871239E+02  0.21889144443E+03  0.16332134581E+03  0.27638064859E+03  0.00000000000E+00 0.  1.
</event>
<event>
12    1  0.2685360E-002  0.2462120E+03  0.7818608E-02  0.1115722E+00
         -2   -1    0    0    0  501 -0.00000000000E+00  0.00000000000E+00  0.27103224860E+03  0.27103224860E+03  0.00000000000E+00 0.  1.
          2   -1    0    0  502    0  0.00000000000E+00 -0.00000000000E+00 -0.55932529085E+03  0.55932529085E+03  0.00000000000E+00 0. -1.
          6    2    1    2  502    0 -0.16318733891E+03  0.65596186925E+02  0.17746778243E+03  0.30355026220E+03  0.17238033693E+03 0.  0.
         24    2    3    3    0    0 -0.12877270412E+03 -0.21102811949E+02  0.11916148429E+03  0.19344668416E+03  0.78704652193E+02 0.  0.
         -6    2    1    2    0  501  0.16318733891E+03 -0.65596186925E+02 -0.46576082468E+03  0.52680727725E+03  0.17222019113E+03 0.  0.
        -24    2    5    5    0    0  0.10244215129E+03  0.26649301932E+02 -0.30094010696E+03  0.32834527327E+03  0.77724454618E+02 0.  0.
          5    1    3    3  502    0 -0.34414634796E+02  0.86698998873E+02  0.58306298140E+02  0.11010357804E+03  0.47000000000E+01 0. -1.
        -13    1    4    4    0    0 -0.10669919131E+03  0.10397408523E+02  0.59921074635E+02  0.12281432618E+03  0.00000000000E+00 0.  1.
         14    1    4    4    0    0 -0.22073512807E+02 -0.31500220471E+02  0.59240409656E+02  0.70632357978E+02  0.00000000000E+00 0. -1.
         -5    1    5    5    0  501  0.60745187628E+02 -0.92245488857E+02 -0.16482071772E+03  0.19846200398E+03  0.47000000000E+01 0.  1.
         11    1    6    6    0    0  0.31342697497E+02  0.23326699921E+02 -0.20607997193E+03  0.20975093432E+03  0.00000000000E+00 0. -1.
        -12    1    6    6    0    0  0.71099453788E+02  0.33226020111E+01 -0.94860135029E+02  0.11859433895E+03  0.00000000000E+00 0.  1.
</event>
<event>
12    1  0.2685360E-002  0.1739260E+03  0.7818608E-02  0.1173814E+00
         -2   -1    0    0    0  501 -0.00000000000E+00  0.00000000000E+00  0.45820592270E+02  0.45820592270E+02  0.00000000000E+00 0.  1.
          2   -1    0    0  502    0  0.00000000000E+00 -0.00000000000E+00 -0.67581794112E+03  0.67581794112E+03  0.00000000000E+00 0. -1.
          6    2    1    2  502    0 -0.13029249357E+02 -0.19111665877E+02 -0.36983656666E+03  0.40868421152E+03  0.17236206541E+03 0.  0.
         24    2    3    3    0    0 -0.35836743781E+02 -0.68429633069E+02 -0.30126434881E+03  0.32106753074E+03  0.79732456015E+02 0.  0.
         -6    2    1    2    0  501  0.13029249357E+02  0.19111665877E+02 -0.26016078219E+03  0.31295432188E+03  0.17239999385E+03 0.  0.
        -24    2    5    5    0    0 -0.55857602051E+02 -0.10790773346E+02 -0.15572690684E+03  0.18423727371E+03  0.80349181780E+02 0.  0.
          5    1    3    3  502    0  0.22807494424E+02  0.49317967193E+02 -0.68572217847E+02  0.87616680777E+02  0.47000000000E+01 0. -1.
        -11    1    4    4    0    0  0.68987156440E+01  0.14367344354E+02 -0.26377308493E+02  0.30818424111E+02  0.00000000000E+00 0.  1.
         12    1    4    4    0    0 -0.42735459425E+02 -0.82796977423E+02 -0.27488704032E+03  0.29024910663E+03  0.00000000000E+00 0. -1.
         -5    1    5    5    0  501  0.68886851409E+02  0.29902439223E+02 -0.10443387535E+03  0.12871704817E+03  0.47000000000E+01 0.  1.
         11    1    6    6    0    0 -0.45278749852E+02 -0.42829445380E+02 -0.11920759108E+03  0.13451756893E+03  0.00000000000E+00 0. -1.
        -12    1    6    6    0    0 -0.10578852199E+02  0.32038672034E+02 -0.36519315762E+02  0.49719704779E+02  0.00000000000E+00 0.  1.
</event>
<event>
12    1  0.2685360E-002  0.2055133E+03  0.7818608E-02  0.1145169E+00
          1   -1    0    0  502    0  0.00000000000E+00  0.00000000000E+00  0.22568885949E+03  0.22568885949E+03  0.00000000000E+00 0.  1.
         -1   -1    0    0    0  501 -0.00000000000E+00 -0.00000000000E+00 -0.57021550406E+03  0.57021550406E+03  0.00000000000E+00 0. -1.
          6    2    1    2  502    0 -0.99407287885E+02  0.51808681194E+02 -0.49828062262E+03  0.53877968221E+03  0.17156345402E+03 0.  0.
         24    2    3    3    0    0 -0.26370804183E+02  0.87425342839E+02 -0.33792915948E+03  0.35895322068E+03  0.79452425521E+02 0.  0.
         -6    2    1    2    0  501  0.99407287885E+02 -0.51808681194E+02  0.15375397805E+03  0.25712468134E+03  0.17293602185E+03 0.  0.
        -24    2    5    5    0    0  0.11073984964E+02 -0.64007999429E+01  0.13164375723E+03  0.15526399240E+03  0.81321738401E+02 0.  0.
          5    1    3    3  502    0 -0.73036483702E+02 -0.35616661645E+02 -0.16035146314E+03  0.17982646153E+03  0.47000000000E+01 0. -1.
        -13    1    4    4    0    0  0.32107262381E+01  0.41102133942E+02 -0.45484184329E+02  0.61388151965E+02  0.00000000000E+00 0.  1.
         14    1    4    4    0    0 -0.29581530421E+02  0.46323208897E+02 -0.29244497516E+03  0.29756506871E+03  0.00000000000E+00 0. -1.
         -5    1    5    5    0  501  0.88333302922E+02 -0.45407881251E+02  0.22110220818E+02  0.10186068893E+03  0.47000000000E+01 0.  1.
         13    1    6    6    0    0  0.23582959341E+01 -0.30332992417E+02  0.11620757213E+02  0.32568297267E+02  0.00000000000E+00 0. -1.
        -14    1    6    6    0    0  0.87156890296E+01  0.23932192474E+02  0.12002300002E+03  0.12269569514E+03  0.00000000000E+00 0.  1.
</event>
<event>
12    1  0.2685360E-002  0.2392881E+03  0.7818608E-02  0.1120268E+00
          1   -1    0    0  502    0  0.00000000000E+00  0.00000000000E+00  0.32444215441E+03  0.32444215441E+03  0.00000000000E+00 0. -1.
         -1   -1    0    0    0  501 -0.00000000000E+00 -0.00000000000E+00 -0.38319149386E+03  0.38319149386E+03  0.00000000000E+00 0.  1.
          6    2    1    2  502    0  0.36544002086E+02  0.16205945158E+03  0.23050639783E+03  0.33205336893E+03  0.17183570771E+03 0.  0.
         24    2    3    3    0    0  0.34535089529E+02  0.18736778320E+03  0.17192860572E+03  0.26803778405E+03  0.77365687653E+02 0.  0.
         -6    2    1    2    0  501 -0.36544002086E+02 -0.16205945158E+03 -0.28925573728E+03  0.37558027934E+03  0.17260629985E+03 0.  0.
        -24    2    5    5    0    0 -0.27330186724E+02 -0.19079241809E+03 -0.24323224669E+03  0.32034687058E+03  0.79444985718E+02 0.  0.
          5    1    3    3  502    0  0.20089125574E+01 -0.25308331618E+02  0.58577792112E+02  0.64015584881E+02  0.47000000000E+01 0. -1.
        -11    1    4    4    0    0 -0.23219191782E+01  0.90876579126E+02  0.37084996578E+02  0.98179635941E+02  0.00000000000E+00 0.  1.
         12    1    4    4    0    0  0.36857008707E+02  0.96491204075E+02  0.13484360914E+03  0.16985814811E+03  0.00000000000E+00 0. -1.
         -5    1    5    5    0  501 -0.92138153624E+01  0.28732966504E+02 -0.46023490583E+02  0.55233408759E+02  0.47000000000E+01 0.  1.
         11    1    6    6    0    0 -0.31851039494E+02 -0.20110954269E+02 -0.41026934636E+02  0.55696934962E+02  0.00000000000E+00 0. -1.
        -12    1    6    6    0    0  0.45208527709E+01 -0.17068146382E+03 -0.20220531206E+03  0.26464993562E+03  0.00000000000E+00 0.  1.
</event>
<event>
12    1  0.2685360E-002  0.1812766E+03  0.7818608E-02  0.1166573E+00
          2   -1    0    0  502    0  0.00000000000E+00  0.00000000000E+00  0.77395816955E+02  0.77395816955E+02  0.00000000000E+00 0. -1.
         -2   -1    0    0    0  501 -0.00000000000E+00 -0.00000000000E+00 -0.51930303116E+03  0.51930303116E+03  0.00000000000E+00 0.  1.
          6    2    1    2  502    0  0.46861608985E+02  0.40151997808E+02 -0.34556410981E+03  0.38897008363E+03  0.16755589707E+03 0.  0.
         24    2    3    3    0    0  0.28939617826E+02 -0.88500479640E+01 -0.31887839902E+03  0.33017709580E+03  0.80110276514E+02 0.  0.
         -6    2    1    2    0  501 -0.46861608985E+02 -0.40151997808E+02 -0.96343104396E+02  0.20772876449E+03  0.17338123459E+03 0.  0.
        -24    2    5    5    0    0 -0.15461446440E+02 -0.65682551402E+02 -0.28093845131E+01  0.10570707008E+03  0.81319358945E+02 0.  0.
          5    1    3    3  502    0  0.17921991159E+02  0.49002045772E+02 -0.26685710796E+02  0.58792987827E+02  0.47000000000E+01 0. -1.
        -11    1    4    4    0    0  0.37694135351E+02  0.28492110635E+02 -0.17163637141E+03  0.17802160599E+03  0.00000000000E+00 0.  1.
         12    1    4    4    0    0 -0.87545175256E+01 -0.37342158599E+02 -0.14724202761E+03  0.15215548982E+03  0.00000000000E+00 0. -1.
         -5    1    5    5    0  501 -0.31400162545E+02  0.25530553594E+02 -0.93533719883E+02  0.10202169441E+03  0.47000000000E+01 0.  1.
         11    1    6    6    0    0 -0.18100126709E+02 -0.69308348243E+02 -0.30354859582E+02  0.77798966724E+02  0.00000000000E+00 0. -1.
        -12    1    6    6    0    0  0.26386802694E+01  0.36257968408E+01  0.27545475069E+02  0.27908103358E+02  0.00000000000E+00 0.  1.
</event>
<event>
12    1  0.2685360E-002  0.1961950E+03  0.7818608E-02  0.1152990E+00
          2   -1    0    0  502    0  0.00000000000E+00  0.00000000000E+00  0.10623018045E+04  0.10623018045E+04  0.00000000000E+00 0. -1.
         -2   -1    0    0    0  501 -0.00000000000E+00 -0.00000000000E+00 -0.37034549034E+02  0.37034549034E+02  0.00000000000E+00 0.  1.
          6    2    1    2  502    0 -0.94265281990E+02 -0.66394888705E+01  0.59350445071E+03  0.62510480232E+03  0.17198387911E+03 0.  0.
         24    2    3    3    0    0 -0.14010671471E+01 -0.59906570183E+01  0.13354493891E+03  0.15584045691E+03  0.80088365826E+02 0.  0.
         -6    2    1    2    0  501  0.94265281990E+02  0.66394888705E+01  0.43176280471E+03  0.47423155117E+03  0.17189071641E+03 0.  0.
        -24    2    5    5    0    0  0.96860678045E+02  0.46475912418E+02  0.40361896413E+03  0.42516177957E+03  0.79449790545E+02 0.  0.
          5    1    3    3  502    0 -0.92864214842E+02 -0.64883185224E+00  0.45995951180E+03  0.46926434541E+03  0.47000000000E+01 0. -1.
        -13    1    4    4    0    0  0.36964732660E+02 -0.13913413911E+02  0.82758041110E+02  0.91699879583E+02  0.00000000000E+00 0.  1.
         14    1    4    4    0    0 -0.38365799807E+02  0.79227568926E+01  0.50786897799E+02  0.64140577325E+02  0.00000000000E+00 0. -1.
         -5    1    5    5    0  501 -0.25953960557E+01 -0.39836423547E+02  0.28143840585E+02  0.49069771597E+02  0.47000000000E+01 0.  1.
         11    1    6    6    0    0 -0.56843475730E+01  0.28860815954E+02  0.80662131321E+02  0.85858243251E+02  0.00000000000E+00 0. -1.
        -12    1    6    6    0    0  0.10254502562E+03  0.17615096463E+02  0.32295683280E+03  0.33930353632E+03  0.00000000000E+00 0.  1.
</event>
<event>
12    1  0.2685360E-002  0.2507525E+03  0.7818608E-02  0.1112830E+00
          1   -1    0    0  502    0  0.00000000000E+00  0.00000000000E+00  0.12454717041E+03  0.12454717041E+03  0.00000000000E+00 0.  1.
         -1   -1    0    0    0  501 -0.00000000000E+00 -0.00000000000E+00 -0.54804874446E+03  0.54804874446E+03  0.00000000000E+00 0. -1.
          6    2    1    2  502    0 -0.17594707292E+03  0.45978699364E+02 -0.11714275950E+03  0.27655121613E+03  0.17229839168E+03 0.  0.
         24    2    3    3    0    0 -0.13640553829E+02  0.24323408117E+02 -0.61498190660E+02  0.10354611268E+03  0.78498898753E+02 0.  0.
         -6    2    1    2    0  501  0.17594707292E+03 -0.45978699364E+02 -0.30635881454E+03  0.39604469874E+03  0.17298631995E+03 0.  0.
        -24    2    5    5    0    0  0.79330985485E+02 -0.40284405631E+02 -0.26623922341E+03  0.29116970207E+03  0.77331964484E+02 0.  0.
          5    1    3    3  502    0 -0.16230651909E+03  0.21655291247E+02 -0.55644568844E+02  0.17300510345E+03  0.47000000000E+01 0. -1.
        -13    1    4    4    0    0  0.26011909063E+02 -0.92864986875E+01 -0.75559763767E+01  0.28634790902E+02  0.00000000000E+00 0.  1.
         14    1    4    4    0    0 -0.39652462892E+02  0.33609906804E+02 -0.53942214283E+02  0.74911321778E+02  0.00000000000E+00 0. -1.
         -5    1    5    5    0  501  0.96616087438E+02 -0.56942937327E+01 -0.40119591133E+02  0.10487499667E+03  0.47000000000E+01 0.  1.
         13    1    6    6    0    0 -0.57674032531E+01 -0.30385975611E+02 -0.53004492393E+02  0.61368124201E+02  0.00000000000E+00 0. -1.
        -14    1    6    6    0    0  0.85098388738E+02 -0.98984300204E+01 -0.21323473101E+03  0.22980157787E+03  0.00000000000E+00 0.  1.
</event>
<event>
12    1  0.2685360E-002  0.2299104E+03  0.7818608E-02  0.1126703E+00
         -2   -1    0    0    0  501 -0.00000000000E+00  0.00000000000E+00  0.49046824780E+03  0.49046824780E+03  0.00000000000E+00 0.  1.
          2   -1    0    0  502    0  0.00000000000E+00 -0.00000000000E+00 -0.13933733007E+03  0.13933733007E+03  0.00000000000E+00 0. -1.
          6    2    1    2  502    0  0.15037159248E+03  0.26279886928E+02  0.25566570473E+02  0.23112939481E+03  0.17165342798E+03 0.  0.
         24    2    3    3    0    0  0.36171938792E+02  0.35884043547E+02 -0.66213491243E+01  0.11199941162E+03  0.99518602291E+02 0.  0.
         -6    2    1    2    0  501 -0.15037159248E+03 -0.26279886928E+02  0.32556434726E+03  0.39867618306E+03  0.17218683589E+03 0.  0.
        -24    2    5    5    0    0 -0.36221572414E+02 -0.17993616340E+02  0.56615138278E+02  0.10634989897E+03  0.80431676542E+02 0.  0.
          5    1    3    3  502    0  0.11419965369E+03 -0.96041566185E+01  0.32187919598E+02  0.11912998319E+03  0.47000000000E+01 0. -1.
        -11    1    4    4    0    0  0.50944974401E+02 -0.17288186804E+02  0.92237625148E+01  0.54583418862E+02  0.00000000000E+00 0.  1.
         12    1    4    4    0    0 -0.14773035609E+02  0.53172230351E+02 -0.15845111639E+02  0.57415992758E+02  0.00000000000E+00 0. -1.
         -5    1    5    5    0  501 -0.11415002007E+03 -0.82862705877E+01  0.26894920898E+03  0.29232628410E+03  0.47000000000E+01 0.  1.
         13    1    6    6    0    0 -0.51288922896E+02 -0.36821003858E+02  0.28390768404E+02  0.69226986555E+02  0.00000000000E+00 0. -1.
        -14    1    6    6    0    0  0.15067350482E+02  0.18827387518E+02  0.28224369874E+02  0.37122912414E+02  0.00000000000E+00 0.  1.
</event>
<event>
12    1  0.2685360E-002  0.2393697E+03  0.7818608E-02  0.1120213E+00
         -1   -1    0    0    0  501 -0.00000000000E+00  0.00000000000E+00  0.43146775578E+03  0.43146775578E+03  0.00000000000E+00 0. -1.
          1   -1    0    0  502    0  0.00000000000E+00 -0.00000000000E+00 -0.15770940501E+03  0.15770940501E+03  0.00000000000E+00 0.  1.
          6    2    1    2  502    0  0.41890589742E+02  0.16040392741E+03  0.25417014020E+03  0.34944206801E+03  0.17327162862E+03 0.  0.
         24    2    3    3    0    0  0.18154258373E+02  0.16579328048E+03  0.26406742282E+03  0.32274928328E+03  0.81354207705E+02 0.  0.
         -6    2    1    2    0  501 -0.41890589742E+02 -0.16040392741E+03  0.19588210573E+02  0.23973509279E+03  0.17206096386E+03 0.  0.
        -24    2    5    5    0    0  0.28803902318E+02 -0.52310012550E+02 -0.26378587587E+02  0.10255986846E+03  0.79099270119E+02 0.  0.
          5    1    3    3  502    0  0.23736331370E+02 -0.53893530673E+01 -0.98972826216E+01  0.26692784731E+02  0.47000000000E+01 0. -1.
        -11    1    4    4    0    0 -0.77634693032E+01  0.72590460584E+01 -0.30432507758E+01  0.11055613080E+02  0.00000000000E+00 0.  1.
         12    1    4    4    0    0  0.25917727676E+02  0.15853423442E+03  0.26711067360E+03  0.31169367019E+03  0.00000000000E+00 0. -1.
         -5    1    5    5    0  501 -0.70694492060E+02 -0.10809391486E+03  0.45966798160E+02  0.13717522433E+03  0.47000000000E+01 0.  1.
         11    1    6    6    0    0 -0.18883278167E+02  0.25506470559E+01  0.97307215949E+01  0.21395582195E+02  0.00000000000E+00 0. -1.
        -12    1    6    6    0    0  0.47687180485E+02 -0.54860659606E+02 -0.36109309182E+02  0.81164286263E+02  0.00000000000E+00 0.  1.
</event>
<event>
12    1  0.2685360E-002  0.1787834E+03  0.7818608E-02  0.1168986E+00
         -2   -1    0    0    0  501 -0.00000000000E+00  0.00000000000E+00  0.28090896570E+02  0.28090896570E+02  0.00000000000E+00 0.  1.
          2   -1    0    0  502    0  0.00000000000E+00 -0.00000000000E+00 -0.13793198950E+04  0.13793198950E+04  0.00000000000E+00 0. -1.
          6    2    1    2  502    0 -0.38727804322E+02 -0.45631834249E+01 -0.98063188185E+03  0.99743526036E+03  0.17809420386E+03 0.  0.
         24    2    3    3    0    0 -0.28520292735E+02  0.65293864853E+02 -0.48679304119E+03  0.49855341961E+03  0.80692945000E+02 0.  0.
         -6    2    1    2    0  501  0.38727804322E+02  0.45631834249E+01 -0.37059711653E+03  0.40997553116E+03  0.17092995026E+03 0.  0.
        -24    2    5    5    0    0  0.52380213876E+02 -0.97695320843E+01 -0.37692977653E+03  0.38866807699E+03  0.78407187627E+02 0.  0.
          5    1    3    3  502    0 -0.10207511587E+02 -0.69857048278E+02 -0.49383884066E+03  0.49888184075E+03  0.47000000000E+01 0. -1.
        -11    1    4    4    0    0 -0.14263853257E+02  0.57081835169E+02 -0.14664991197E+03  0.15801262638E+03  0.00000000000E+00 0.  1.
         12    1    4    4    0    0 -0.14256439478E+02  0.82120296845E+01 -0.34014312922E+03  0.34054079323E+03  0.00000000000E+00 0. -1.
         -5    1    5    5    0  501 -0.13652409554E+02  0.14332715509E+02  0.63326599990E+01  0.21307454169E+02  0.47000000000E+01 0.  1.
         11    1    6    6    0    0  0.25110488453E+02 -0.14723916378E+02 -0.34565844201E+03  0.34688195237E+03  0.00000000000E+00 0. -1.
        -12    1    6    6    0    0  0.27269725422E+02  0.49543842935E+01 -0.31271334522E+02  0.41786124624E+02  0.00000000000E+00 0.  1.
</event>
<event>
12    1  0.2685360E-002  0.2041417E+03  0.7818608E-02  0.1146291E+00
         -2   -1    0    0    0  501 -0.00000000000E+00  0.00000000000E+00  0.67009035217E+02  0.67009035217E+02  0.00000000000E+00 0.  1.
          2   -1    0    0  502    0  0.00000000000E+00 -0.00000000000E+00 -0.64087518408E+03  0.64087518408E+03  0.00000000000E+00 0. -1.
          6    2    1    2  502    0  0.10507083045E+03  0.32564065231E+02 -0.22616181492E+03  0.30472261022E+03  0.17206511819E+03 0.  0.
         24    2    3    3    0    0  0.38666136726E+02  0.82616000573E+02 -0.13758376039E+03  0.18313749056E+03  0.79306844873E+02 0.  0.
         -6    2    1    2    0  501 -0.10507083045E+03 -0.32564065231E+02 -0.34770433395E+03  0.40316160908E+03  0.17187402779E+03 0.  0.
        -24    2    5    5    0    0 -0.84097314608E+02 -0.56790800405E+02 -0.34746276753E+03  0.37077378083E+03  0.80282428965E+02 0.  0.
          5    1    3    3  502    0  0.66404693728E+02 -0.50051935342E+02 -0.88578054524E+02  0.12158511966E+03  0.47000000000E+01 0. -1.
        -11    1    4    4    0    0  0.68293736678E+01  0.71789026730E+02 -0.45900689264E+02  0.85482033074E+02  0.00000000000E+00 0.  1.
         12    1    4    4    0    0  0.31836763058E+02  0.10826973843E+02 -0.91683071127E+02  0.97655457482E+02  0.00000000000E+00 0. -1.
         -5    1    5    5    0  501 -0.20973515846E+02  0.24226735174E+02 -0.24156642370E+00  0.32387828246E+02  0.47000000000E+01 0.  1.
         13    1    6    6    0    0 -0.42977340900E+02 -0.90775540479E+01 -0.25587215999E+03  0.25961513067E+03  0.00000000000E+00 0. -1.
        -14    1    6    6    0    0 -0.41119973708E+02 -0.47713246357E+02 -0.91590607542E+02  0.11115865016E+03  0.00000000000E+00 0.  1.
</event>
<event>
12    1  0.2685360E-002  0.1828281E+03  0.7818608E-02  0.1165094E+00
          2   -1    0    0  502    0  0.00000000000E+00  0.00000000000E+00  0.10769868868E+03  0.10769868868E+03  0.00000000000E+00 0.  1.
         -2   -1    0    0    0  501 -0.00000000000E+00 -0.00000000000E+00 -0.48556835581E+03  0.48556835581E+03  0.00000000000E+00 0. -1.
          6    2    1    2  502    0  0.36445151274E+02 -0.50154609777E+02 -0.36678819864E+03  0.40960846478E+03  0.17146946616E+03 0.  0.
         24    2    3    3    0    0 -0.43736768838E+02 -0.46645832444E+02 -0.21595426973E+03  0.23868621362E+03  0.79032419449E+02 0.  0.
         -6    2    1    2    0  501 -0.36445151274E+02  0.50154609777E+02 -0.11081468488E+02  0.18365857972E+03  0.17252229139E+03 0.  0.
        -24    2    5    5    0    0 -0.62360851107E+02 -0.19556243428E+02 -0.23115720662E+02  0.10817255599E+03  0.83040007951E+02 0.  0.
          5    1    3    3  502    0  0.80181920112E+02 -0.35087773329E+01 -0.15083392890E+03  0.17092225115E+03  0.47000000000E+01 0. -1.
        -13    1    4    4    0    0 -0.15189127234E+02 -0.29786584020E+02 -0.17996637424E+02  0.37971425207E+02  0.00000000000E+00 0.  1.
         14    1    4    4    0    0 -0.28547641605E+02 -0.16859248425E+02 -0.19795763231E+03  0.20071478841E+03  0.00000000000E+00 0. -1.
         -5    1    5    5    0  501  0.25915699833E+02  0.69710853205E+02  0.12034252174E+02  0.75486023725E+02  0.47000000000E+01 0.  1.
         13    1    6    6    0    0 -0.72876775888E+02  0.62570673593E+01 -0.19446182662E+01  0.73170737976E+02  0.00000000000E+00 0. -1.
        -14    1    6    6    0    0  0.10515924781E+02 -0.25813310787E+02 -0.21171102396E+02  0.35001818017E+02  0.00000000000E+00 0.  1.
</event>
<event>
12    1  0.2685360E-002  0.2058088E+03  0.7818608E-02  0.1144929E+00
         -2   -1    0    0    0  501 -0.00000000000E+00  0.00000000000E+00  0.20300126485E+02  0.20300126485E+02  0.00000000000E+00 0. -1.
          2   -1    0    0  502    0  0.00000000000E+00 -0.00000000000E+00 -0.29477133950E+04  0.29477133950E+04  0.00000000000E+00 0.  1.
          6    2    1    2  502    0 -0.11261043614E+03  0.68574784110E+01 -0.66351706036E+03  0.69481606358E+03  0.17258718805E+03 0.  0.
         24    2    3    3    0    0 -0.14720582290E+03  0.18641429123E+02 -0.56048888353E+03  0.58539669829E+03  0.80774059145E+02 0.  0.
         -6    2    1    2    0  501  0.11261043614E+03 -0.68574784110E+01 -0.22638962081E+04  0.22731974579E+04  0.17167558358E+03 0.  0.
        -24    2    5    5    0    0  0.38683320284E+02 -0.93416337216E+01 -0.52000707133E+03  0.52773396616E+03  0.80697703912E+02 0.  0.
          5    1    3    3  502    0  0.34595386758E+02 -0.11783950712E+02 -0.10302817683E+03  0.10941936529E+03  0.47000000000E+01 0. -1.
        -11    1    4    4    0    0 -0.94278164568E+02  0.18806678599E+02 -0.47665401812E+03  0.48625211204E+03  0.00000000000E+00 0.  1.
         12    1    4    4    0    0 -0.52927658335E+02 -0.16524947611E+00 -0.83834865417E+02  0.99144586255E+02  0.00000000000E+00 0. -1.
         -5    1    5    5    0  501  0.73927115861E+02  0.24841553106E+01 -0.17438891368E+04  0.17454634917E+04  0.47000000000E+01 0.  1.
         13    1    6    6    0    0  0.50935139255E+02 -0.33068885810E+02 -0.29786298471E+03  0.30399062038E+03  0.00000000000E+00 0. -1.
        -14    1    6    6    0    0 -0.12251818971E+02  0.23727252088E+02 -0.22214408662E+03  0.22374334578E+03  0.00000000000E+00 0.  1.
</event>
<event>
12    1  0.2685360E-002  0.2182273E+03  0.7818608E-02  0.1135212E+00
          2   -1    0    0  502    0  0.00000000000E+00  0.00000000000E+00  0.90510251552E+03  0.90510251552E+03  0.00000000000E+00 0. -1.
         -2   -1    0    0    0  501 -0.00000000000E+00 -0.00000000000E+00 -0.64467875317E+02  0.64467875317E+02  0.00000000000E+00 0.  1.
          6    2    1    2  502    0  0.10918536985E+03 -0.76461396776E+02  0.62724238145E+03  0.66392705402E+03  0.17204167456E+03 0.  0.
         24    2    3    3    0    0  0.59550766027E+02 -0.49616304665E+02  0.16952733483E+03  0.20272275355E+03  0.79680148907E+02 0.  0.
         -6    2    1    2    0  501 -0.10918536985E+03  0.76461396776E+02  0.21339225876E+03  0.30564333682E+03  0.17353329093E+03 0.  0.
        -24    2    5    5    0    0 -0.34061665904E+01  0.54409736367E+02  0.14543965499E+03  0.17791251859E+03  0.86764910206E+02 0.  0.
          5    1    3    3  502    0  0.49634603824E+02 -0.26845092111E+02  0.45771504662E+03  0.46120430046E+03  0.47000000000E+01 0. -1.
        -11    1    4    4    0    0  0.47243313983E+02  0.33601768997E+01  0.12059775326E+03  0.12956480848E+03  0.00000000000E+00 0.  1.
         12    1    4    4    0    0  0.12307452045E+02 -0.52976481564E+02  0.48929581576E+02  0.73157945078E+02  0.00000000000E+00 0. -1.
         -5    1    5    5    0  501 -0.10577920326E+03  0.22051660409E+02  0.67952603767E+02  0.12773081824E+03  0.47000000000E+01 0.  1.
         11    1    6    6    0    0 -0.39153860208E+02  0.26196291829E+01  0.49345926301E+02  0.63046868826E+02  0.00000000000E+00 0. -1.
        -12    1    6    6    0    0  0.35747693617E+02  0.51790107184E+02  0.96093728690E+02  0.11486564976E+03  0.00000000000E+00 0.  1.
</event>
<event>
12    1  0.2685360E-002  0.2745066E+03  0.7818608E-02  0.1098728E+00
         -2   -1    0    0    0  501 -0.00000000000E+00  0.00000000000E+00  0.23644277731E+03  0.23644277731E+03  0.00000000000E+00 0.  1.
          2   -1    0    0  502    0  0.00000000000E+00 -0.00000000000E+00 -0.48022682060E+03  0.48022682060E+03  0.00000000000E+00 0. -1.
          6    2    1    2  502    0  0.73393005314E+02 -0.20059622656E+03 -0.32975762084E+03  0.42915752819E+03  0.17265780075E+03 0.  0.
         24    2    3    3    0    0 -0.20966986391E+02 -0.86212947833E+02 -0.13909020995E+03  0.18757215185E+03  0.89246505548E+02 0.  0.
         -6    2    1    2    0  501 -0.73393005314E+02  0.20059622656E+03  0.85973577540E+02  0.28751206972E+03  0.17218116872E+03 0.  0.
        -24    2    5    5    0    0 -0.32171443264E+02  0.10987563359E+03 -0.20546579275E+02  0.14157346285E+03  0.80704565212E+02 0.  0.
          5    1    3    3  502    0  0.94359991706E+02 -0.11438327873E+03 -0.19066741088E+03  0.24158537634E+03  0.47000000000E+01 0. -1.
        -13    1    4    4    0    0  0.32877338765E+02 -0.20148462179E+02 -0.28488513131E+02  0.47942416636E+02  0.00000000000E+00 0.  1.
         14    1    4    4    0    0 -0.53844325156E+02 -0.66064485654E+02 -0.11060169682E+03  0.13962973521E+03  0.00000000000E+00 0. -1.
         -5    1    5    5    0  501 -0.41221562051E+02  0.90720592973E+02  0.10652015681E+03  0.14593860687E+03  0.47000000000E+01 0.  1.
         13    1    6    6    0    0 -0.56758859879E+02  0.96318857873E+02 -0.13381084486E+02  0.11259637640E+03  0.00000000000E+00 0. -1.
        -14    1    6    6    0    0  0.24587416615E+02  0.13556775712E+02 -0.71654947886E+01  0.28977086449E+02  0.00000000000E+00 0.  1.
</event>
<event>
12    1  0.2685360E-002  0.2132040E+03  0.7818608E-02  0.1139054E+00
         -2   -1    0    0    0  501 -0.00000000000E+00  0.00000000000E+00  0.62549506235E+02  0.62549506235E+02  0.00000000000E+00 0.  1.
          2   -1    0    0  502    0  0.00000000000E+00 -0.00000000000E+00 -0.82820249280E+03  0.82820249280E+03  0.00000000000E+00 0. -1.
          6    2    1    2  502    0  0.70528815023E+02  0.10492484015E+03 -0.22745111083E+03  0.31198181108E+03  0.17209040298E+03 0.  0.
         24    2    3    3    0    0 -0.11561008541E+02  0.86923023318E+02 -0.75407466236E+02  0.13819411185E+03  0.75644283892E+02 0.  0.
         -6    2    1    2    0  501 -0.70528815023E+02 -0.10492484015E+03 -0.53820187574E+03  0.57877018796E+03  0.17126043206E+03 0.  0.
        -24    2    5    5    0    0 -0.78973413941E+02 -0.96591126553E+02 -0.25219487355E+03  0.29247862795E+03  0.79842643502E+02 0.  0.
          5    1    3    3  502    0  0.82089823564E+02  0.18001816837E+02 -0.15204364459E+03  0.17378769923E+03  0.47000000000E+01 0. -1.
        -11    1    4    4    0    0  0.30571631720E+02  0.52302878416E+02 -0.47200488015E+02  0.76799100421E+02  0.00000000000E+00 0.  1.
         12    1    4    4    0    0 -0.42132640261E+02  0.34620144902E+02 -0.28206978221E+02  0.61395011432E+02  0.00000000000E+00 0. -1.
         -5    1    5    5    0  501  0.84445989176E+01 -0.83337136012E+01 -0.28600700218E+03  0.28629156001E+03  0.47000000000E+01 0.  1.
         11    1    6    6    0    0 -0.52817994829E+02 -0.10726079470E+03 -0.19611508678E+03  0.22968619009E+03  0.00000000000E+00 0. -1.
        -12    1    6    6    0    0 -0.26155419112E+02  0.10669668143E+02 -0.56079786776E+02  0.62792437857E+02  0.00000000000E+00 0.  1.
</event>
<event>
12    1  0.2685360E-002  0.2760703E+03  0.7818608E-02  0.1097855E+00
          2   -1    0    0  502    0  0.00000000000E+00  0.00000000000E+00  0.35726371416E+03  0.35726371416E+03  0.00000000000E+00 0. -1.
         -2   -1    0    0    0  501 -0.00000000000E+00 -0.00000000000E+00 -0.27108305423E+03  0.27108305423E+03  0.00000000000E+00 0.  1.
          6    2    1    2  502    0  0.21242630354E+03 -0.33446354305E+02  0.18826494152E+03  0.33529466024E+03  0.17531465406E+03 0.  0.
         24    2    3    3    0    0  0.40513589840E+02 -0.55984572273E+02  0.26768942509E+02  0.98303099002E+02  0.64585599757E+02 0.  0.
         -6    2    1    2    0  501 -0.21242630354E+03  0.33446354305E+02 -0.10208428159E+03  0.29305210815E+03  0.17092321226E+03 0.  0.
        -24    2    5    5    0    0 -0.20197614172E+03 -0.22141590245E+02 -0.79395906234E+02  0.23192864426E+03  0.78756423599E+02 0.  0.
          5    1    3    3  502    0  0.17191271370E+03  0.22538217968E+02  0.16149599902E+03  0.23699156124E+03  0.47000000000E+01 0. -1.
        -11    1    4    4    0    0  0.40967395757E+02 -0.24564210533E+02 -0.11154356054E+02  0.49052498542E+02  0.00000000000E+00 0.  1.
         12    1    4    4    0    0 -0.45380591690E+00 -0.31420361740E+02  0.37923298564E+02  0.49250600459E+02  0.00000000000E+00 0. -1.
         -5    1    5    5    0  501 -0.10450161821E+02  0.55587944550E+02 -0.22688375358E+02  0.61123463889E+02  0.47000000000E+01 0.  1.
         13    1    6    6    0    0 -0.90458880501E+02 -0.26735704127E+02  0.10732910148E+01  0.94333233223E+02  0.00000000000E+00 0. -1.
        -14    1    6    6    0    0 -0.11151726122E+03  0.45941138820E+01 -0.80469197249E+02  0.13759541104E+03  0.00000000000E+00 0.  1.
</event>
<event>
12    1  0.2685360E-002  0.1883847E+03  0.7818608E-02  0.1159926E+00
          2   -1    0    0  502    0  0.00000000000E+00  0.00000000000E+00  0.67955445493E+02  0.67955445493E+02  0.00000000000E+00 0. -1.
         -2   -1    0    0    0  501 -0.00000000000E+00 -0.00000000000E+00 -0.86876049671E+03  0.86876049671E+03  0.00000000000E+00 0.  1.
          6    2    1    2  502    0  0.39254337460E+02  0.65471181017E+02 -0.69608516257E+03  0.72110294349E+03  0.17212647388E+03 0.  0.
         24    2    3    3    0    0 -0.14562263599E+02 -0.24015789068E+02 -0.22187585104E+03  0.23550979537E+03  0.73804829064E+02 0.  0.
         -6    2    1    2    0  501 -0.39254337460E+02 -0.65471181017E+02 -0.10471988864E+03  0.21561299871E+03  0.17232333440E+03 0.  0.
        -24    2    5    5    0    0 -0.42985522377E+02 -0.47612222346E+01 -0.12262341977E+03  0.15203432883E+03  0.78787750931E+02 0.  0.
          5    1    3    3  502    0  0.53816601059E+02  0.89486970086E+02 -0.47420931153E+03  0.48559314812E+03  0.47000000000E+01 0. -1.
        -13    1    4    4    0    0 -0.24847163826E+02 -0.20590522015E+02 -0.22233030057E+03  0.22465999577E+03  0.00000000000E+00 0.  1.
         14    1    4    4    0    0  0.10284900227E+02 -0.34252670532E+01  0.45444952432E+00  0.10849799604E+02  0.00000000000E+00 0. -1.
         -5    1    5    5    0  501  0.37311849168E+01 -0.60709958783E+02  0.17903531125E+02  0.63578669875E+02  0.47000000000E+01 0.  1.
         13    1    6    6    0    0  0.84610608175E+01 -0.30988972825E+02 -0.42883714693E+02  0.53580957184E+02  0.00000000000E+00 0. -1.
        -14    1    6    6    0    0 -0.51446583195E+02  0.26227750591E+02 -0.79739705073E+02  0.98453371647E+02  0.00000000000E+00 0.  1.
</event>
<event>
12    1  0.2685360E-002  0.2429088E+03  0.7818608E-02  0.1117870E+00
         -2   -1    0    0    0  501 -0.00000000000E+00  0.00000000000E+00  0.10278280938E+03  0.10278280938E+03  0.00000000000E+00 0. -1.
          2   -1    0    0  502    0  0.00000000000E+00 -0.00000000000E+00 -0.89624285831E+03  0.89624285831E+03  0.00000000000E+00 0.  1.
          6    2    1    2  502    0  0.17057736331E+03 -0.95981781348E+01 -0.96088796176E+02  0.26019311840E+03  0.17111002371E+03 0.  0.
         24    2    3    3    0    0  0.58969180742E+02 -0.13797151109E+02 -0.10860843624E+03  0.14770823418E+03  0.79713263422E+02 0.  0.
         -6    2    1    2    0  501 -0.17057736331E+03  0.95981781348E+01 -0.69737125276E+03  0.73883254928E+03  0.17423578798E+03 0.  0.
        -24    2    5    5    0    0 -0.31247955854E+02  0.90882453054E+01 -0.41583609170E+03  0.42467163395E+03  0.79795429511E+02 0.  0.
          5    1    3    3  502    0  0.11160818257E+03  0.41989729747E+01  0.12519640069E+02  0.11248488422E+03  0.47000000000E+01 0. -1.
        -13    1    4    4    0    0  0.21457004698E+02 -0.39887890471E+02 -0.23303527139E+02  0.50936246760E+02  0.00000000000E+00 0.  1.
         14    1    4    4    0    0  0.37512176043E+02  0.26090739362E+02 -0.85304909106E+02  0.96771987421E+02  0.00000000000E+00 0. -1.
         -5    1    5    5    0  501 -0.13932940746E+03  0.50993282933E+00 -0.28153516106E+03  0.31416091534E+03  0.47000000000E+01 0.  1.
         13    1    6    6    0    0  0.43556301151E+01 -0.31624542327E+02 -0.16737949081E+03  0.17039652912E+03  0.00000000000E+00 0. -1.
        -14    1    6    6    0    0 -0.35603585969E+02  0.40712787632E+02 -0.24845660089E+03  0.25427510483E+03  0.00000000000E+00 0.  1.
</event>
<event>
12    1  0.2685360E-002  0.2811007E+03  0.7818608E-02  0.1095089E+00
         -1   -1    0    0    0  501 -0.00000000000E+00  0.00000000000E+00  0.91454899441E+02  0.91454899441E+02  0.00000000000E+00 0.  1.
          1   -1    0    0  502    0  0.00000000000E+00 -0.00000000000E+00 -0.15353829901E+04  0.15353829901E+04  0.00000000000E+00 0. -1.
          6    2    1    2  502    0 -0.91252545993E+02  0.20031484870E+03 -0.18079711231E+03  0.33230408859E+03  0.17112961671E+03 0.  0.
         24    2    3    3    0    0 -0.12362999421E+03  0.15011860642E+03 -0.10361574914E+03  0.23459526242E+03  0.80490634346E+02 0.  0.
         -6    2    1    2    0  501  0.91252545993E+02 -0.20031484870E+03 -0.12631309783E+04  0.12945338009E+04  0.17850721995E+03 0.  0.
        -24    2    5    5    0    0  0.48637531684E+02 -0.10268708628E+03 -0.36662587809E+03  0.39171006166E+03  0.78179221925E+02 0.  0.
          5    1    3    3  502    0  0.32377448215E+02  0.50196242286E+02 -0.77181363164E+02  0.97708826174E+02  0.47000000000E+01 0. -1.
        -13    1    4    4    0    0 -0.13146923674E+03  0.15182771742E+03 -0.10471429103E+03  0.22649701704E+03  0.00000000000E+00 0.  1.
         14    1    4    4    0    0  0.78392425313E+01 -0.17091109991E+01  0.10985418811E+01  0.80982453739E+01  0.00000000000E+00 0. -1.
         -5    1    5    5    0  501  0.42615014309E+02 -0.97627762424E+02 -0.89650510024E+03  0.90282373928E+03  0.47000000000E+01 0.  1.
         11    1    6    6    0    0  0.23292893497E+02 -0.62572127187E+02 -0.31327400680E+03  0.32030990200E+03  0.00000000000E+00 0. -1.
        -12    1    6    6    0    0  0.25344638187E+02 -0.40114959091E+02 -0.53351871293E+02  0.71400159651E+02  0.00000000000E+00 0.  1.
</event>
<event>
12    1  0.2685360E-002  0.1752411E+03  0.7818608E-02  0.1172490E+00
          2   -1    0    0  502    0  0.00000000000E+00  0.00000000000E+00  0.20113908551E+03  0.20113908551E+03  0.00000000000E+00 0.  1.
         -2   -1    0    0    0  501 -0.00000000000E+00 -0.00000000000E+00 -0.31877348921E+03  0.31877348921E+03  0.00000000000E+00 0. -1.
          6    2    1    2  502    0  0.24901174414E+02  0.28616831827E+02  0.12887523598E+03  0.21729174372E+03  0.17078607639E+03 0.  0.
         24    2    3    3    0    0 -0.20071416398E+02 -0.28170898422E+02  0.19028814205E+02  0.85626613149E+02  0.75982628510E+02 0.  0.
         -6    2    1    2    0  501 -0.24901174414E+02 -0.28616831827E+02 -0.24650963968E+03  0.30262083099E+03  0.17138661950E+03 0.  0.
        -24    2    5    5    0    0 -0.55495336936E+02 -0.73114200771E+01 -0.24565201875E+03  0.26503427936E+03  0.82250019062E+02 0.  0.
          5    1    3    3  502    0  0.44972590812E+02  0.56787730249E+02  0.10984642177E+03  0.13166513057E+03  0.47000000000E+01 0. -1.
        -13    1    4    4    0    0  0.24727593451E+02  0.60811156698E+01  0.13874052634E+02  0.28998675524E+02  0.00000000000E+00 0.  1.
         14    1    4    4    0    0 -0.44799009849E+02 -0.34252014092E+02  0.51547615712E+01  0.56627937625E+02  0.00000000000E+00 0. -1.
         -5    1    5    5    0  501  0.30594162522E+02 -0.21305411750E+02 -0.85762093538E+00  0.37586551636E+02  0.47000000000E+01 0.  1.
         13    1    6    6    0    0 -0.53404121394E+01 -0.24305620499E+02 -0.17488736034E+03  0.17664900791E+03  0.00000000000E+00 0. -1.
        -14    1    6    6    0    0 -0.50154924797E+02  0.16994200422E+02 -0.70764658408E+02  0.88385271448E+02  0.00000000000E+00 0.  1.
</event>
<event>
12    1  0.2685360E-002  0.3296493E+03  0.7818608E-02  0.1071292E+00
          1   -1    0    0  502    0  0.00000000000E+00  0.00000000000E+00  0.29287355133E+04  0.29287355133E+04  0.00000000000E+00 0. -1.
         -1   -1    0    0    0  501 -0.00000000000E+00 -0.00000000000E+00 -0.56546859806E+02  0.56546859806E+02  0.00000000000E+00 0.  1.
          6    2    1    2  502    0 -0.12461467359E+03 -0.25213244443E+03  0.23108866073E+04  0.23342583473E+04  0.17165527602E+03 0.  0.
         24    2    3    3    0    0  0.91381302047E+01 -0.74166456996E+02  0.57329026612E+03  0.58245218221E+03  0.70743526668E+02 0.  0.
         -6    2    1    2    0  501  0.12461467359E+03  0.25213244443E+03  0.56130204626E+03  0.65102402586E+03  0.17225768111E+03 0.  0.
        -24    2    5    5    0    0  0.15462534179E+03  0.23513171112E+03  0.47183563183E+03  0.55502405477E+03  0.78910835801E+02 0.  0.
          5    1    3    3  502    0 -0.13375280380E+03 -0.17796598744E+03  0.17375963411E+04  0.17518061651E+04  0.47000000000E+01 0. -1.
        -13    1    4    4    0    0 -0.85562680337E+01 -0.69171150062E+01  0.99441069262E+01  0.14830423636E+02  0.00000000000E+00 0.  1.
         14    1    4    4    0    0  0.17694398238E+02 -0.67249341990E+02  0.56334615919E+03  0.56762175857E+03  0.00000000000E+00 0. -1.
         -5    1    5    5    0  501 -0.30010668197E+02  0.17000733311E+02  0.89466414430E+02  0.95999971092E+02  0.47000000000E+01 0.  1.
         11    1    6    6    0    0 -0.75291525333E+01  0.22581020176E+02  0.26636422400E+02  0.35722396453E+02  0.00000000000E+00 0. -1.
        -12    1    6    6    0    0  0.16215449432E+03  0.21255069095E+03  0.44519920943E+03  0.51930165831E+03  0.00000000000E+00 0.  1.
</event>
<event>
12    1  0.2685360E-002  0.2553882E+03  0.7818608E-02  0.1109946E+00
          2   -1    0    0  502    0  0.00000000000E+00  0.00000000000E+00  0.11200505035E+04  0.11200505035E+04  0.00000000000E+00 0.  1.
         -2   -1    0    0    0  501 -0.00000000000E+00 -0.00000000000E+00 -0.62965698130E+02  0.62965698130E+02  0.00000000000E+00 0. -1.
          6    2    1    2  502    0 -0.16655786117E+03  0.92868087854E+02  0.36404793287E+03  0.44399615636E+03  0.16803477787E+03 0.  0.
         24    2    3    3    0    0 -0.15387328087E+03  0.68906814016E+02  0.18363996530E+03  0.26150186608E+03  0.78958555729E+02 0.  0.
         -6    2    1    2    0  501  0.16655786117E+03 -0.92868087854E+02  0.69303687254E+03  0.73902004531E+03  0.17171056407E+03 0.  0.
        -24    2    5    5    0    0  0.63482208088E+02 -0.99580088659E+02  0.50282999133E+03  0.52252434357E+03  0.79041157894E+02 0.  0.
          5    1    3    3  502    0 -0.12684580297E+02  0.23961273838E+02  0.18040796757E+03  0.18249429028E+03  0.47000000000E+01 0. -1.
        -11    1    4    4    0    0 -0.19489798685E+02 -0.15763062050E+02  0.40813171474E+02  0.47896151659E+02  0.00000000000E+00 0.  1.
         12    1    4    4    0    0 -0.13438348219E+03  0.84669876067E+02  0.14282679383E+03  0.21360571442E+03  0.00000000000E+00 0. -1.
         -5    1    5    5    0  501  0.10307565308E+03  0.67120008048E+01  0.19020688120E+03  0.21649570174E+03  0.47000000000E+01 0.  1.
         13    1    6    6    0    0  0.29880225542E+02 -0.11344464151E+01  0.53289165751E+02  0.61105237366E+02  0.00000000000E+00 0. -1.
        -14    1    6    6    0    0  0.33601982546E+02 -0.98445642244E+02  0.44954082558E+03  0.46141910621E+03  0.00000000000E+00 0.  1.
</event>
<event>
12    1  0.2685360E-002  0.1987196E+03  0.7818608E-02  0.1150824E+00
         -2   -1    0    0    0  501 -0.00000000000E+00  0.00000000000E+00  0.13895363573E+02  0.13895363573E+02  0.00000000000E+00 0. -1.
          2   -1    0    0  502    0  0.00000000000E+00 -0.00000000000E+00 -0.29978698130E+04  0.29978698130E+04  0.00000000000E+00 0.  1.
          6    2    1    2  502    0  0.85742865695E+02 -0.49351258451E+02 -0.18342119793E+04  0.18449265895E+04  0.17214281834E+03 0.  0.
         24    2    3    3    0    0  0.21309880445E+02 -0.37896179869E+02 -0.15702776793E+04  0.15729592511E+04  0.80861512564E+02 0.  0.
         -6    2    1    2    0  501 -0.85742865695E+02  0.49351258451E+02 -0.11497624701E+04  0.11668385871E+04  0.17254322601E+03 0.  0.
        -24    2    5    5    0    0 -0.12592679606E+03  0.37071972024E+02 -0.88806553068E+03  0.90174821145E+03  0.85191319895E+02 0.  0.
          5    1    3    3  502    0  0.64432985250E+02 -0.11455078582E+02 -0.26393430005E+03  0.27196733840E+03  0.47000000000E+01 0. -1.
        -11    1    4    4    0    0  0.36068299839E+02 -0.35091319816E+01 -0.30761370826E+03  0.30974090749E+03  0.00000000000E+00 0.  1.
         12    1    4    4    0    0 -0.14758419393E+02 -0.34387047887E+02 -0.12626639710E+04  0.12632183436E+04  0.00000000000E+00 0. -1.
         -5    1    5    5    0  501  0.40183930370E+02  0.12279286428E+02 -0.26169693945E+03  0.26509037563E+03  0.47000000000E+01 0.  1.
         13    1    6    6    0    0 -0.13696875977E+02 -0.18342819031E+02 -0.58962121066E+02  0.63250258040E+02  0.00000000000E+00 0. -1.
        -14    1    6    6    0    0 -0.11222992009E+03  0.55414791055E+02 -0.82910340962E+03  0.83849795341E+03  0.00000000000E+00 0.  1.
</event>
<event>
12    1  0.2685360E-002  0.2234971E+03  0.7818608E-02  0.1131302E+00
          2   -1    0    0  502    0  0.00000000000E+00  0.00000000000E+00  0.56645887484E+03  0.56645887484E+03  0.00000000000E+00 0. -1.
         -2   -1    0    0    0  501 -0.00000000000E+00 -0.00000000000E+00 -0.90457862981E+02  0.90457862981E+02  0.00000000000E+00 0.  1.
          6    2    1    2  502    0 -0.10637718582E+03  0.96024033965E+02  0.18753373359E+03  0.29293519427E+03  0.17350909499E+03 0.  0.
         24    2    3    3    0    0 -0.39339926413E+02 -0.12790613342E+01  0.30363801782E+02  0.96246699514E+02  0.82414809959E+02 0.  0.
         -6    2    1    2    0  501  0.10637718582E+03 -0.96024033965E+02  0.28846727827E+03  0.36398154356E+03  0.16950655637E+03 0.  0.
        -24    2    5    5    0    0 -0.15948937049E+02 -0.53555631081E+02  0.11999883718E+03  0.15144695526E+03  0.73579107892E+02 0.  0.
          5    1    3    3  502    0 -0.67037259409E+02  0.97303095299E+02  0.15716993181E+03  0.19668849475E+03  0.47000000000E+01 0. -1.
        -13    1    4    4    0    0 -0.54921162945E+02  0.25285343198E+02  0.18294893722E+02  0.63169500996E+02  0.00000000000E+00 0.  1.
         14    1    4    4    0    0  0.15581236531E+02 -0.26564404533E+02  0.12068908060E+02  0.33077198518E+02  0.00000000000E+00 0. -1.
         -5    1    5    5    0  501  0.12232612287E+03 -0.42468402884E+02  0.16846844109E+03  0.21253458830E+03  0.47000000000E+01 0.  1.
         13    1    6    6    0    0 -0.19220500206E+01  0.16987768670E+02  0.42010485933E+02  0.45355920110E+02  0.00000000000E+00 0. -1.
        -14    1    6    6    0    0 -0.14026887028E+02 -0.70543399751E+02  0.77988351251E+02  0.10609103515E+03  0.00000000000E+00 0.  1.
</event>
<event>
12    1  0.2685360E-002  0.2275603E+03  0.7818608E-02  0.1128369E+00
          2   -1    0    0  502    0  0.00000000000E+00  0.00000000000E+00  0.35749691555E+03  0.35749691555E+03  0.00000000000E+00 0.  1.
         -2   -1    0    0    0  501 -0.00000000000E+00 -0.00000000000E+00 -0.16278731023E+03  0.16278731023E+03  0.00000000000E+00 0. -1.
          6    2    1    2  502    0 -0.70671928268E+02 -0.13069721882E+03  0.10930798328E+02  0.22763212154E+03  0.17210640880E+03 0.  0.
         24    2    3    3    0    0 -0.11342547748E+03 -0.97985472134E+02  0.25449555072E+02  0.17167849218E+03  0.79745427033E+02 0.  0.
         -6    2    1    2    0  501  0.70671928268E+02  0.13069721882E+03  0.18377880699E+03  0.29265210425E+03  0.17261031189E+03 0.  0.
        -24    2    5    5    0    0  0.51615858235E+02  0.85837479561E+02  0.29810736069E+02  0.13108544038E+03  0.79135598658E+02 0.  0.
          5    1    3    3  502    0  0.42753549207E+02 -0.32711746687E+02 -0.14518756745E+02  0.55953629360E+02  0.47000000000E+01 0. -1.
        -13    1    4    4    0    0 -0.63383434919E+01 -0.43385067525E+02  0.26949628517E+02  0.51465728010E+02  0.00000000000E+00 0.  1.
         14    1    4    4    0    0 -0.10708713398E+03 -0.54600404609E+02 -0.15000734445E+01  0.12021276417E+03  0.00000000000E+00 0. -1.
         -5    1    5    5    0  501  0.19056070033E+02  0.44859739260E+02  0.15396807092E+03  0.16156666387E+03  0.47000000000E+01 0.  1.
         13    1    6    6    0    0  0.51957667458E+02  0.99575864312E+02  0.32827929237E+02  0.11701549000E+03  0.00000000000E+00 0. -1.
        -14    1    6    6    0    0 -0.34180922326E+00 -0.13738384750E+02 -0.30171931676E+01  0.14069950380E+02  0.00000000000E+00 0.  1.
</event>
<event>
12    1  0.2685360E-002  0.1834137E+03  0.7818608E-02  0.1164540E+00
         -1   -1    0    0    0  501 -0.00000000000E+00  0.00000000000E+00  0.31348177472E+03  0.31348177472E+03  0.00000000000E+00 0.  1.
          1   -1    0    0  502    0  0.00000000000E+00 -0.00000000000E+00 -0.13114830776E+03  0.13114830776E+03  0.00000000000E+00 0. -1.
          6    2    1    2  502    0  0.52311938537E+02  0.36756649622E+02  0.18614145557E+03  0.26166786710E+03  0.17243503410E+03 0.  0.
         24    2    3    3    0    0 -0.38520788098E+02  0.89386905069E+01  0.86996183730E+02  0.12427682661E+03  0.79452138710E+02 0.  0.
         -6    2    1    2    0  501 -0.52311938537E+02 -0.36756649622E+02 -0.38079886034E+01  0.18296221539E+03  0.17138576743E+03 0.  0.
        -24    2    5    5    0    0 -0.16559573299E+02 -0.67004564375E+02 -0.49686584441E+02  0.11723472096E+03  0.80693196808E+02 0.  0.
          5    1    3    3  502    0  0.90832726636E+02  0.27817959115E+02  0.99145271837E+02  0.13739104048E+03  0.47000000000E+01 0. -1.
        -11    1    4    4    0    0 -0.92218363911E+01 -0.37438496466E+01  0.91495510072E+02  0.92035248899E+02  0.00000000000E+00 0.  1.
         12    1    4    4    0    0 -0.29298951707E+02  0.12682540153E+02 -0.44993263422E+01  0.32241577713E+02  0.00000000000E+00 0. -1.
         -5    1    5    5    0  501 -0.35752365238E+02  0.30247914753E+02  0.45878595838E+02  0.65727494422E+02  0.47000000000E+01 0.  1.
         13    1    6    6    0    0 -0.27227328697E+02  0.23308120972E+01 -0.36917136996E+02  0.45930764385E+02  0.00000000000E+00 0. -1.
        -14    1    6    6    0    0  0.10667755398E+02 -0.69335376472E+02 -0.12769447445E+02  0.71303956579E+02  0.00000000000E+00 0.  1.
</event>
<event>
12    1  0.2685360E-002  0.4349734E+03  0.7818608E-02  0.1032300E+00
          2   -1    0    0  502    0  0.00000000000E+00  0.00000000000E+00  0.18381030480E+04  0.18381030480E+04  0.00000000000E+00 0.  1.
         -2   -1    0    0    0  501 -0.00000000000E+00 -0.00000000000E+00 -0.13108320090E+03  0.13108320090E+03  0.00000000000E+00 0. -1.
          6    2    1    2  502    0  0.27923929739E+03  0.28587916481E+03  0.13095013926E+04  0.13797964902E+04  0.17129791346E+03 0.  0.
         24    2    3    3    0    0  0.22334549030E+03  0.21159490652E+03  0.77841928850E+03  0.84061882007E+03  0.77767598993E+02 0.  0.
         -6    2    1    2    0  501 -0.27923929739E+03 -0.28587916481E+03  0.39751845456E+03  0.58938975874E+03  0.17221464488E+03 0.  0.
        -24    2    5    5    0    0 -0.86660899000E+02 -0.49168388065E+02  0.83146967954E+02  0.15124600043E+03  0.77680709098E+02 0.  0.
          5    1    3    3  502    0  0.55893807084E+02  0.74284258291E+02  0.53108210408E+03  0.53917767013E+03  0.47000000000E+01 0. -1.
        -13    1    4    4    0    0  0.15756377264E+03  0.14785874895E+03  0.63193894224E+03  0.66785880155E+03  0.00000000000E+00 0.  1.
         14    1    4    4    0    0  0.65781717668E+02  0.63736157563E+02  0.14648034626E+03  0.17276001853E+03  0.00000000000E+00 0. -1.
         -5    1    5    5    0  501 -0.19257839839E+03 -0.23671077674E+03  0.31437148660E+03  0.43814375830E+03  0.47000000000E+01 0.  1.
         11    1    6    6    0    0 -0.68827944824E+02 -0.28893528770E+02  0.95782045754E+02  0.12143443615E+03  0.00000000000E+00 0. -1.
        -12    1    6    6    0    0 -0.17832954176E+02 -0.20274859295E+02 -0.12635077800E+02  0.29811564284E+02  0.00000000000E+00 0.  1.
</event>
<event>
12    1  0.2685360E-002  0.2149377E+03  0.7818608E-02  0.1137714E+00
          3   -1    0    0  502    0  0.00000000000E+00  0.00000000000E+00  0.48539090872E+02  0.48539090872E+02  0.00000000000E+00 0.  1.
         -3   -1    0    0    0  501 -0.00000000000E+00 -0.00000000000E+00 -0.12189633994E+04  0.12189633994E+04  0.00000000000E+00 0. -1.
          6    2    1    2  502    0  0.33099646518E+02  0.12538202103E+03 -0.28982729564E+03  0.36120064525E+03  0.17219119325E+03 0.  0.
         24    2    3    3    0    0  0.75638614729E+02  0.99302344387E+02 -0.16476701004E+03  0.22647173823E+03  0.92515539147E+02 0.  0.
         -6    2    1    2    0  501 -0.33099646518E+02 -0.12538202103E+03 -0.88059701287E+03  0.90630184500E+03  0.17063322473E+03 0.  0.
        -24    2    5    5    0    0 -0.42687658045E+01 -0.15342351443E+03 -0.72539070226E+03  0.74590036780E+03  0.81355335546E+02 0.  0.
          5    1    3    3  502    0 -0.42538968212E+02  0.26079676645E+02 -0.12506028560E+03  0.13472890701E+03  0.47000000000E+01 0. -1.
        -11    1    4    4    0    0  0.63794926095E+01 -0.17543520704E+00  0.11144441560E+02  0.12842401690E+02  0.00000000000E+00 0.  1.
         12    1    4    4    0    0  0.69259122120E+02  0.99477779594E+02 -0.17591145160E+03  0.21362933654E+03  0.00000000000E+00 0. -1.
         -5    1    5    5    0  501 -0.28830880713E+02  0.28041493400E+02 -0.15520631061E+03  0.16040147720E+03  0.47000000000E+01 0.  1.
         11    1    6    6    0    0 -0.30644339089E+02 -0.54876753972E+02 -0.39954237189E+03  0.40445598101E+03  0.00000000000E+00 0. -1.
        -12    1    6    6    0    0  0.26375573285E+02 -0.98546760460E+02 -0.32584833037E+03  0.34144438679E+03  0.00000000000E+00 0.  1.
</event>
<event>
12    1  0.2685360E-002  0.1800087E+03  0.7818608E-02  0.1167795E+00
         -1   -1    0    0    0  501 -0.00000000000E+00  0.00000000000E+00  0.27586864474E+03  0.27586864474E+03  0.00000000000E+00 0. -1.
          1   -1    0    0  502    0  0.00000000000E+00 -0.00000000000E+00 -0.14237274036E+03  0.14237274036E+03  0.00000000000E+00 0.  1.
          6    2    1    2  502    0  0.17973112914E+02  0.48569675145E+02  0.15429796433E+03  0.23726455875E+03  0.17263998063E+03 0.  0.
         24    2    3    3    0    0  0.22578140552E+02  0.54896840630E+02  0.18231175854E+03  0.20780098854E+03  0.80126387626E+02 0.  0.
         -6    2    1    2    0  501 -0.17973112914E+02 -0.48569675145E+02 -0.20802059943E+02  0.18097682635E+03  0.17215644004E+03 0.  0.
        -24    2    5    5    0    0  0.17854136964E+02 -0.88301573452E+02  0.18385265130E+02  0.11449410662E+03  0.68227152916E+02 0.  0.
          5    1    3    3  502    0 -0.46050276373E+01 -0.63271654847E+01 -0.28013794219E+02  0.29463570204E+02  0.47000000000E+01 0. -1.
        -11    1    4    4    0    0 -0.14536187462E+02 -0.61728255680E+01  0.48972137868E+01  0.16534425430E+02  0.00000000000E+00 0.  1.
         12    1    4    4    0    0  0.37114328014E+02  0.61069666198E+02  0.17741454476E+03  0.19126656311E+03  0.00000000000E+00 0. -1.
         -5    1    5    5    0  501 -0.35827249879E+02  0.39731898307E+02 -0.39187325073E+02  0.66482719735E+02  0.47000000000E+01 0.  1.
         11    1    6    6    0    0  0.32166058785E+02 -0.30906361653E+02 -0.14385959484E+02  0.46870186245E+02  0.00000000000E+00 0. -1.
        -12    1    6    6    0    0 -0.14311921821E+02 -0.57395211799E+02  0.32771224613E+02  0.67623920371E+02  0.00000000000E+00 0.  1.
</event>
<event>
12    1  0.2685360E-002  0.2257122E+03  0.7818608E-02  0.1129695E+00
         -1   -1    0    0    0  501 -0.00000000000E+00  0.00000000000E+00  0.30198764751E+02  0.30198764751E+02  0.00000000000E+00 0. -1.
          1   -1    0    0  502    0  0.00000000000E+00 -0.00000000000E+00 -0.17181020782E+04  0.17181020782E+04  0.00000000000E+00 0.  1.
          6    2    1    2  502    0 -0.71490705267E+02  0.12827408933E+03 -0.96092665593E+03  0.98704267167E+03  0.17119589564E+03 0.  0.
         24    2    3    3    0    0 -0.72059631631E+02  0.16018309162E+03 -0.81898331315E+03  0.84147993377E+03  0.80644890527E+02 0.  0.
         -6    2    1    2    0  501  0.71490705267E+02 -0.12827408933E+03 -0.72697665751E+03  0.76125817127E+03  0.17162103552E+03 0.  0.
        -24    2    5    5    0    0  0.74175591145E+02 -0.92860249890E+02 -0.29378323909E+03  0.32658590807E+03  0.78896891249E+02 0.  0.
          5    1    3    3  502    0  0.56892636446E+00 -0.31909002294E+02 -0.14194334279E+03  0.14556273790E+03  0.47000000000E+01 0. -1.
        -13    1    4    4    0    0 -0.17494835327E+02  0.27570720061E+02 -0.33804532371E+03  0.33961869022E+03  0.00000000000E+00 0.  1.
         14    1    4    4    0    0 -0.54564796304E+02  0.13261237156E+03 -0.48093798944E+03  0.50186124355E+03  0.00000000000E+00 0. -1.
         -5    1    5    5    0  501 -0.26848858782E+01 -0.35413839440E+02 -0.43319341842E+03  0.43467226320E+03  0.47000000000E+01 0.  1.
         11    1    6    6    0    0  0.89263295509E+02 -0.65090443300E+02 -0.21558700783E+03  0.24224462777E+03  0.00000000000E+00 0. -1.
        -12    1    6    6    0    0 -0.15087704364E+02 -0.27769806590E+02 -0.78196231252E+02  0.84341280303E+02  0.00000000000E+00 0.  1.
</event>
<event>
12    1  0.2685360E-002  0.1863461E+03  0.7818608E-02  0.1161799E+00
          1   -1    0    0  502    0  0.00000000000E+00  0.00000000000E+00  0.17764143151E+03  0.17764143151E+03  0.00000000000E+00 0.  1.
         -1   -1    0    0    0  501 -0.00000000000E+00 -0.00000000000E+00 -0.20857867055E+03  0.20857867055E+03  0.00000000000E+00 0. -1.
          6    2    1    2  502    0  0.47838749628E+02 -0.54607106714E+02 -0.63961803274E+02  0.19851415897E+03  0.17333861937E+03 0.  0.
         24    2    3    3    0    0 -0.14477430738E+02 -0.51917019520E+01  0.19354265223E+02  0.83236902614E+02  0.79481095894E+02 0.  0.
         -6    2    1    2    0  501 -0.47838749628E+02  0.54607106714E+02  0.33024564235E+02  0.18770594310E+03  0.16991885464E+03 0.  0.
        -24    2    5    5    0    0  0.34060667208E+02  0.56835802746E+02  0.25253666586E+02  0.10527440535E+03  0.77810765465E+02 0.  0.
          5    1    3    3  502    0  0.62316180366E+02 -0.49415404762E+02 -0.83316068496E+02  0.11527725636E+03  0.47000000000E+01 0. -1.
        -11    1    4    4    0    0 -0.41956183706E+02 -0.97869647130E+01  0.30962955223E+02  0.53054788904E+02  0.00000000000E+00 0.  1.
         12    1    4    4    0    0  0.27478752968E+02  0.45952627610E+01 -0.11608690000E+02  0.30182113711E+02  0.00000000000E+00 0. -1.
         -5    1    5    5    0  501 -0.81899416836E+02 -0.22286960324E+01  0.77708976483E+01  0.82431537741E+02  0.47000000000E+01 0.  1.
         13    1    6    6    0    0  0.56640751459E+02  0.28087205572E+02  0.48460743310E+01  0.63407809292E+02  0.00000000000E+00 0. -1.
        -14    1    6    6    0    0 -0.22580084251E+02  0.28748597174E+02  0.20407592255E+02  0.41866596063E+02  0.00000000000E+00 0.  1.
</event>
<event>
12    1  0.2685360E-002  0.2095745E+03  0.7818608E-02  0.1141903E+00
          2   -1    0    0  502    0  0.00000000000E+00  0.00000000000E+00  0.47467023964E+03  0.47467023964E+03  0.00000000000E+00 0. -1.
         -2   -1    0    0    0  501 -0.00000000000E+00 -0.00000000000E+00 -0.10592632629E+03  0.10592632629E+03  0.00000000000E+00 0.  1.
          6    2    1    2  502    0 -0.43573085831E+02  0.11634722124E+03  0.28917178469E+03  0.35836542467E+03  0.17137726466E+03 0.  0.
         24    2    3    3    0    0  0.13325153502E+01  0.48763704050E+02  0.44918462136E+02  0.10094394074E+03  0.76107401092E+02 0.  0.
         -6    2    1    2    0  501  0.43573085831E+02 -0.11634722124E+03  0.79572128660E+02  0.22223114125E+03  0.16619165678E+03 0.  0.
        -24    2    5    5    0    0  0.46065841781E+02 -0.22501522183E+01  0.41963546919E+02  0.10197786516E+03  0.80693374872E+02 0.  0.
          5    1    3    3  502    0 -0.44905601181E+02  0.67583517186E+02  0.24425332255E+03  0.25742148393E+03  0.47000000000E+01 0. -1.
        -11    1    4    4    0    0 -0.89105545392E+01 -0.15990106819E+02 -0.44943118516E+01  0.18848881593E+02  0.00000000000E+00 0.  1.
         12    1    4    4    0    0  0.10243069889E+02  0.64753810868E+02  0.49412773988E+02  0.82095059144E+02  0.00000000000E+00 0. -1.
         -5    1    5    5    0  501 -0.24927559506E+01 -0.11409706902E+03  0.37608581741E+02  0.12025327609E+03  0.47000000000E+01 0.  1.
         11    1    6    6    0    0  0.60561976738E+02 -0.25362489355E+02  0.30036704171E+02  0.72202579525E+02  0.00000000000E+00 0. -1.
        -12    1    6    6    0    0 -0.14496134957E+02  0.23112337137E+02  0.11926842748E+02  0.29775285633E+02  0.00000000000E+00 0.  1.
</event>
<event>
12    1  0.2685360E-002  0.1768669E+03  0.7818608E-02  0.1170870E+00
         -2   -1    0    0    0  501 -0.00000000000E+00  0.00000000000E+00  0.19520000453E+04  0.19520000453E+04  0.00000000000E+00 0.  1.
          2   -1    0    0  502    0  0.00000000000E+00 -0.00000000000E+00 -0.16773422803E+02  0.16773422803E+02  0.00000000000E+00 0. -1.
          6    2    1    2  502    0 -0.41946532357E+02 -0.17605229875E+01  0.11757450206E+04  0.11889814491E+04  0.17186599975E+03 0.  0.
         24    2    3    3    0    0 -0.63492231796E+02  0.35467437493E+02  0.47195098664E+03  0.48385857299E+03  0.78052432659E+02 0.  0.
         -6    2    1    2    0  501  0.41946532357E+02  0.17605229875E+01  0.75948160190E+03  0.77979201898E+03  0.17175761477E+03 0.  0.
        -24    2    5    5    0    0  0.85590580780E+02 -0.26132175299E+02  0.60379651297E+03  0.61564957324E+03  0.80284057263E+02 0.  0.
          5    1    3    3  502    0  0.21545699439E+02 -0.37227960481E+02  0.70379403395E+03  0.70512287613E+03  0.47000000000E+01 0. -1.
        -13    1    4    4    0    0 -0.26723686857E+01  0.37699158458E+02  0.27869312808E+03  0.28124407148E+03  0.00000000000E+00 0.  1.
         14    1    4    4    0    0 -0.60819863110E+02 -0.22317209647E+01  0.19325785856E+03  0.20261450151E+03  0.00000000000E+00 0. -1.
         -5    1    5    5    0  501 -0.43644048424E+02  0.27892698287E+02  0.15568508893E+03  0.16414244575E+03  0.47000000000E+01 0.  1.
         13    1    6    6    0    0  0.16846655544E+02  0.16629818173E+02  0.43406206898E+02  0.49441475026E+02  0.00000000000E+00 0. -1.
        -14    1    6    6    0    0  0.68743925236E+02 -0.42761993472E+02  0.56039030607E+03  0.56620809821E+03  0.00000000000E+00 0.  1.
</event>
<event>
12    1  0.2685360E-002  0.1746531E+03  0.7818608E-02  0.1173080E+00
          1   -1    0    0  502    0  0.00000000000E+00  0.00000000000E+00  0.63131345123E+03  0.63131345123E+03  0.00000000000E+00 0. -1.
         -1   -1    0    0    0  501 -0.00000000000E+00 -0.00000000000E+00 -0.48648614624E+02  0.48648614624E+02  0.00000000000E+00 0.  1.
          6    2    1    2  502    0 -0.27650014793E+02 -0.17378835826E+02  0.31880046403E+03  0.36334574462E+03  0.17123039163E+03 0.  0.
         24    2    3    3    0    0 -0.36639830454E+02 -0.60730628406E+02  0.29317816495E+03  0.31197662047E+03  0.79657321804E+02 0.  0.
         -6    2    1    2    0  501  0.27650014793E+02  0.17378835826E+02  0.26386437258E+03  0.31661632124E+03  0.17191550396E+03 0.  0.
        -24    2    5    5    0    0 -0.14036526104E+02 -0.37213842287E+02  0.21932367554E+03  0.23461576095E+03  0.73210562818E+02 0.  0.
          5    1    3    3  502    0  0.89898156611E+01  0.43351792580E+02  0.25622299079E+02  0.51369124147E+02  0.47000000000E+01 0. -1.
        -11    1    4    4    0    0  0.36920300402E+01 -0.64974385654E+02  0.15898089734E+03  0.17178541147E+03  0.00000000000E+00 0.  1.
         12    1    4    4    0    0 -0.40331860494E+02  0.42437572481E+01  0.13419726761E+03  0.14019120900E+03  0.00000000000E+00 0. -1.
         -5    1    5    5    0  501  0.41686540897E+02  0.54592678113E+02  0.44540697040E+02  0.82000560292E+02  0.47000000000E+01 0.  1.
         13    1    6    6    0    0  0.21135981663E+02 -0.16522277082E+02  0.16225688316E+03  0.16445975646E+03  0.00000000000E+00 0. -1.
        -14    1    6    6    0    0 -0.35172507766E+02 -0.20691565204E+02  0.57066792382E+02  0.70156004489E+02  0.00000000000E+00 0.  1.
</event>
<event>
12    1  0.2685360E-002  0.1783148E+03  0.7818608E-02  0.1169444E+00
          1   -1    0    0  502    0  0.00000000000E+00  0.00000000000E+00  0.68228674099E+03  0.68228674099E+03  0.00000000000E+00 0.  1.
         -1   -1    0    0    0  501 -0.00000000000E+00 -0.00000000000E+00 -0.46621606242E+02  0.46621606242E+02  0.00000000000E+00 0. -1.
          6    2    1    2  502    0  0.45490074969E+02  0.16749974123E+02  0.30923349018E+03  0.35658374892E+03  0.17081191408E+03 0.  0.
         24    2    3    3    0    0 -0.28542219781E+02  0.47518875675E+02  0.17448269697E+03  0.19971637742E+03  0.79810513189E+02 0.  0.
         -6    2    1    2    0  501 -0.45490074969E+02 -0.16749974123E+02  0.32643164457E+03  0.37232459831E+03  0.17238932501E+03 0.  0.
        -24    2    5    5    0    0 -0.70142207237E+02  0.28119313048E+02  0.28762857050E+03  0.30791381417E+03  0.79812889839E+02 0.  0.
          5    1    3    3  502    0  0.74032294750E+02 -0.30768901552E+02  0.13475079322E+03  0.15686737150E+03  0.47000000000E+01 0. -1.
        -13    1    4    4    0    0 -0.45105847080E+01  0.50224414446E+02  0.16693114001E+03  0.17438131404E+03  0.00000000000E+00 0.  1.
         14    1    4    4    0    0 -0.24031635073E+02 -0.27055387710E+01  0.75515569570E+01  0.25335063386E+02  0.00000000000E+00 0. -1.
         -5    1    5    5    0  501  0.24652132269E+02 -0.44869287171E+02  0.38803074063E+02  0.64410784139E+02  0.47000000000E+01 0.  1.
         13    1    6    6    0    0 -0.36897890456E+02 -0.20360795031E+02  0.18408730905E+03  0.18884955295E+03  0.00000000000E+00 0. -1.
        -14    1    6    6    0    0 -0.33244316781E+02  0.48480108079E+02  0.10354126145E+03  0.11906426122E+03  0.00000000000E+00 0.  1.
</event>
<event>
12    1  0.2685360E-002  0.2287351E+03  0.7818608E-02  0.1127533E+00
         -2   -1    0    0    0  501 -0.00000000000E+00  0.00000000000E+00  0.47203978174E+03  0.47203978174E+03  0.00000000000E+00 0. -1.
          2   -1    0    0  502    0  0.00000000000E+00 -0.00000000000E+00 -0.14783886324E+03  0.14783886324E+03  0.00000000000E+00 0.  1.
          6    2    1    2  502    0  0.18958409474E+02 -0.15021194231E+03  0.70504673270E+01  0.22885664211E+03  0.17147187714E+03 0.  0.
         24    2    3    3    0    0 -0.42581467509E+01 -0.10207010004E+03 -0.59684797482E+02  0.14322761065E+03  0.80718252378E+02 0.  0.
         -6    2    1    2    0  501 -0.18958409474E+02  0.15021194231E+03  0.31715045118E+03  0.39102200287E+03  0.17143730382E+03 0.  0.
        -24    2    5    5    0    0 -0.59740068038E+02  0.54751367983E+02  0.22542806218E+03  0.25241842582E+03  0.79565460168E+02 0.  0.
          5    1    3    3  502    0  0.23216556225E+02 -0.48141842270E+02  0.66735264809E+02  0.85629031463E+02  0.47000000000E+01 0.  1.
        -11    1    4    4    0    0 -0.28343895299E+02 -0.91210935554E+01 -0.31073819462E+02  0.43036647224E+02  0.00000000000E+00 0.  1.
         12    1    4    4    0    0  0.24085748548E+02 -0.92949006482E+02 -0.28610978021E+02  0.10019096343E+03  0.00000000000E+00 0. -1.
         -5    1    5    5    0  501  0.40781658563E+02  0.95460574325E+02  0.91722389000E+02  0.13860357704E+03  0.47000000000E+01 0.  1.
         13    1    6    6    0    0 -0.18131572272E+02  0.39586763582E+02  0.19215368924E+03  0.19702514066E+03  0.00000000000E+00 0. -1.
        -14    1    6    6    0    0 -0.41608495766E+02  0.15164604401E+02  0.33274372940E+02  0.55393285162E+02  0.00000000000E+00 0.  1.
</event>
<event>
12    1  0.2685360E-002  0.2855549E+03  0.7818608E-02  0.1092693E+00
          2   -1    0    0  502    0  0.00000000000E+00  0.00000000000E+00  0.41938102013E+04  0.41938102013E+04  0.00000000000E+00 0.  1.
         -2   -1    0    0    0  501 -0.00000000000E+00 -0.00000000000E+00 -0.19903833647E+02  0.19903833647E+02  0.00000000000E+00 0. -1.
          6    2    1    2  502    0  0.35920888625E+01  0.22819514056E+03  0.24177580408E+04  0.24347363855E+04  0.17407296679E+03 0.  0.
         24    2    3    3    0    0 -0.10764959460E+02  0.90091893855E+02  0.16562296547E+04  0.16606393603E+04  0.79962379853E+02 0.  0.
         -6    2    1    2    0  501 -0.35920888625E+01 -0.22819514056E+03  0.17561483268E+04  0.17789776494E+04  0.16917034618E+03 0.  0.
        -24    2    5    5    0    0  0.49482750706E+02 -0.19178003059E+03  0.11831177818E+04  0.12023242923E+04  0.81165850616E+02 0.  0.
          5    1    3    3  502    0  0.14357048322E+02  0.13810324671E+03  0.76152838605E+03  0.77409702516E+03  0.47000000000E+01 0. -1.
        -13    1    4    4    0    0  0.22816537799E+02  0.59479598981E+02  0.12945239208E+04  0.12960905055E+04  0.00000000000E+00 0.  1.
         14    1    4    4    0    0 -0.33581497258E+02  0.30612294874E+02  0.36170573396E+03  0.36454885480E+03  0.00000000000E+00 0. -1.
         -5    1    5    5    0  501 -0.53074839569E+02 -0.36415109973E+02  0.57303054499E+03  0.57665335716E+03  0.47000000000E+01 0.  1.
         13    1    6    6    0    0 -0.26294039186E+01 -0.61124829448E+02  0.19865326778E+03  0.20786120211E+03  0.00000000000E+00 0. -1.
        -14    1    6    6    0    0  0.52112154625E+02 -0.13065520114E+03  0.98446451406E+03  0.99446309016E+03  0.00000000000E+00 0.  1.
</event>
<event>
12    1  0.2685360E-002  0.1820748E+03  0.7818608E-02  0.1165810E+00
          2   -1    0    0  502    0  0.00000000000E+00  0.00000000000E+00  0.13482187332E+04  0.13482187332E+04  0.00000000000E+00 0.  1.
         -2   -1    0    0    0  501 -0.00000000000E+00 -0.00000000000E+00 -0.33809116469E+02  0.33809116469E+02  0.00000000000E+00 0. -1.
          6    2    1    2  502    0  0.49813473711E+02 -0.29919009451E+02  0.10196495901E+04  0.10358850846E+04  0.17319380062E+03 0.  0.
         24    2    3    3    0    0  0.77302643051E+02 -0.52358074719E+01  0.95292525582E+03  0.95947080793E+03  0.80712922009E+02 0.  0.
         -6    2    1    2    0  501 -0.49813473711E+02  0.29919009451E+02  0.29476002669E+03  0.34614276515E+03  0.17191512802E+03 0.  0.
        -24    2    5    5    0    0 -0.12327570403E+02  0.40141043446E+02  0.60811842631E+02  0.10894342757E+03  0.80045723462E+02 0.  0.
          5    1    3    3  502    0 -0.27489169340E+02 -0.24683201979E+02  0.66724334255E+02  0.76414276629E+02  0.47000000000E+01 0. -1.
        -11    1    4    4    0    0  0.42459610863E+02  0.34400042938E+02  0.61824578532E+03  0.62065613070E+03  0.00000000000E+00 0.  1.
         12    1    4    4    0    0  0.34843032188E+02 -0.39635850410E+02  0.33467947050E+03  0.33881467722E+03  0.00000000000E+00 0. -1.
         -5    1    5    5    0  501 -0.37485903307E+02 -0.10222033996E+02  0.23394818406E+03  0.23719933759E+03  0.47000000000E+01 0.  1.
         13    1    6    6    0    0  0.28013459838E+00 -0.23402356092E+02  0.61945893631E+01  0.24209950091E+02  0.00000000000E+00 0. -1.
        -14    1    6    6    0    0 -0.12607705002E+02  0.63543399538E+02  0.54617253268E+02  0.84733477474E+02  0.00000000000E+00 0.  1.
</event>
<event>
12    1  0.2685360E-002  0.2013708E+03  0.7818608E-02  0.1148588E+00
         -1   -1    0    0    0  501 -0.00000000000E+00  0.00000000000E+00  0.11674871636E+03  0.11674871636E+03  0.00000000000E+00 0.  1.
          1   -1    0    0  502    0  0.00000000000E+00 -0.00000000000E+00 -0.39177869867E+03  0.39177869867E+03  0.00000000000E+00 0. -1.
          6    2    1    2  502    0  0.10324214113E+03  0.50627676809E+01 -0.22327810500E+03  0.30080303846E+03  0.17304561379E+03 0.  0.
         24    2    3    3    0    0  0.11409292254E+02  0.83302401395E+01 -0.18184710254E+03  0.19989433480E+03  0.81791268079E+02 0.  0.
         -6    2    1    2    0  501 -0.10324214113E+03 -0.50627676809E+01 -0.51751877314E+02  0.20772437657E+03  0.17258791526E+03 0.  0.
        -24    2    5    5    0    0 -0.13717234924E+03 -0.11548464097E+02 -0.21233613245E+02  0.16139104383E+03  0.81526574055E+02 0.  0.
          5    1    3    3  502    0  0.91832848872E+02 -0.32674724586E+01 -0.41431002460E+02  0.10090870365E+03  0.47000000000E+01 0. -1.
        -13    1    4    4    0    0  0.40464459277E+02  0.24809430045E+02 -0.83734951665E+02  0.96251869665E+02  0.00000000000E+00 0.  1.
         14    1    4    4    0    0 -0.29055167023E+02 -0.16479189905E+02 -0.98112150873E+02  0.10364246514E+03  0.00000000000E+00 0. -1.
         -5    1    5    5    0  501  0.33930208118E+02  0.64856964165E+01 -0.30518264069E+02  0.46333332739E+02  0.47000000000E+01 0.  1.
         13    1    6    6    0    0 -0.13115954693E+03 -0.34671094097E+02 -0.22253089532E+02  0.13747767640E+03  0.00000000000E+00 0. -1.
        -14    1    6    6    0    0 -0.60128023189E+01  0.23122630000E+02  0.10194762864E+01  0.23913367428E+02  0.00000000000E+00 0.  1.
</event>
<event>
12    1  0.2685360E-002  0.2379022E+03  0.7818608E-02  0.1121198E+00
         -2   -1    0    0    0  501 -0.00000000000E+00  0.00000000000E+00  0.33928817321E+02  0.33928817321E+02  0.00000000000E+00 0.  1.
          2   -1    0    0  502    0  0.00000000000E+00 -0.00000000000E+00 -0.17084722475E+04  0.17084722475E+04  0.00000000000E+00 0. -1.
          6    2    1    2  502    0  0.16333717391E+03 -0.27826980533E+02 -0.70620675002E+03  0.74546124502E+03  0.17184621273E+03 0.  0.
         24    2    3    3    0    0  0.23389206112E+02 -0.42846376895E+02 -0.34940266314E+03  0.36186997508E+03  0.80528199300E+02 0.  0.
         -6    2    1    2    0  501 -0.16333717391E+03  0.27826980533E+02 -0.96833668018E+03  0.99693981982E+03  0.16958686546E+03 0.  0.
        -24    2    5    5    0    0 -0.97841593162E+02  0.47470775414E+02 -0.35915895986E+03  0.38391850313E+03  0.81066680778E+02 0.  0.
          5    1    3    3  502    0  0.13994796780E+03  0.15019396363E+02 -0.35680408688E+03  0.38359126994E+03  0.47000000000E+01 0. -1.
        -11    1    4    4    0    0 -0.20073468175E+02 -0.18135690802E+02 -0.38984878786E+02  0.47451745799E+02  0.00000000000E+00 0.  1.
         12    1    4    4    0    0  0.43462674287E+02 -0.24710686093E+02 -0.31041778435E+03  0.31441822928E+03  0.00000000000E+00 0. -1.
         -5    1    5    5    0  501 -0.65495580748E+02 -0.19643794881E+02 -0.60917772032E+03  0.61302131669E+03  0.47000000000E+01 0.  1.
         11    1    6    6    0    0 -0.62991379238E+02  0.40841872308E+02 -0.32869146125E+03  0.33715582316E+03  0.00000000000E+00 0. -1.
        -12    1    6    6    0    0 -0.34850213924E+02  0.66289031057E+01 -0.30467498604E+02  0.46762679971E+02  0.00000000000E+00 0.  1.
</event>
<event>
12    1  0.2685360E-002  0.1820575E+03  0.7818608E-02  0.1165827E+00
         -1   -1    0    0    0  501 -0.00000000000E+00  0.00000000000E+00  0.20583176136E+02  0.20583176136E+02  0.00000000000E+00 0. -1.
          1   -1    0    0  502    0  0.00000000000E+00 -0.00000000000E+00 -0.17138665367E+04  0.17138665367E+04  0.00000000000E+00 0.  1.
          6    2    1    2  502    0  0.53258400914E+02  0.33152290621E+02 -0.10621408855E+04  0.10777208685E+04  0.17147442411E+03 0.  0.
         24    2    3    3    0    0  0.77268511600E+01  0.42087983748E+02 -0.97282496694E+03  0.97696178979E+03  0.78960875153E+02 0.  0.
         -6    2    1    2    0  501 -0.53258400914E+02 -0.33152290621E+02 -0.63114247513E+03  0.65672884439E+03  0.17034206616E+03 0.  0.
        -24    2    5    5    0    0  0.14620931675E+02  0.22030737396E+02 -0.41603030463E+03  0.42446152799E+03  0.79920268625E+02 0.  0.
          5    1    3    3  502    0  0.45531549754E+02 -0.89356931273E+01 -0.89315918517E+02  0.10075907867E+03  0.47000000000E+01 0. -1.
        -13    1    4    4    0    0  0.40870579038E+02  0.36964115899E+02 -0.67788561052E+03  0.68012179133E+03  0.00000000000E+00 0.  1.
         14    1    4    4    0    0 -0.33143727878E+02  0.51238678485E+01 -0.29493935642E+03  0.29683999846E+03  0.00000000000E+00 0. -1.
         -5    1    5    5    0  501 -0.67879332589E+02 -0.55183028016E+02 -0.21511217049E+03  0.23226731640E+03  0.47000000000E+01 0.  1.
         11    1    6    6    0    0 -0.22367689638E+02  0.16471952400E+02 -0.32301637287E+03  0.32420859936E+03  0.00000000000E+00 0. -1.
        -12    1    6    6    0    0  0.36988621313E+02  0.55587849957E+01 -0.93013931765E+02  0.10025292863E+03  0.00000000000E+00 0.  1.
</event>
<event>
12    1  0.2685360E-002  0.3034441E+03  0.7818608E-02  0.1083531E+00
          2   -1    0    0  502    0  0.00000000000E+00  0.00000000000E+00  0.55823979208E+03  0.55823979208E+03  0.00000000000E+00 0. -1.
         -2   -1    0    0    0  501 -0.00000000000E+00 -0.00000000000E+00 -0.19286926317E+03  0.19286926317E+03  0.00000000000E+00 0.  1.
          6    2    1    2  502    0  0.24998199089E+03 -0.14293451998E+02  0.39452683250E+02  0.30535880576E+03  0.17027092384E+03 0.  0.
         24    2    3    3    0    0  0.18567479335E+03 -0.22126361066E+02  0.90107043058E+02  0.22298936794E+03  0.81487878039E+02 0.  0.
         -6    2    1    2    0  501 -0.24998199089E+03  0.14293451998E+02  0.32591784566E+03  0.44575024948E+03  0.17255591631E+03 0.  0.
        -24    2    5    5    0    0 -0.40590214690E+02 -0.15948030495E+02  0.11912265913E+03  0.14986885031E+03  0.79803252879E+02 0.  0.
          5    1    3    3  502    0  0.64307197536E+02  0.78329090673E+01 -0.50654359807E+02  0.82369437821E+02  0.47000000000E+01 0. -1.
        -11    1    4    4    0    0  0.11571909579E+03 -0.34235940103E+02  0.18382505370E+02  0.12206934599E+03  0.00000000000E+00 0.  1.
         12    1    4    4    0    0  0.69955697557E+02  0.12109579038E+02  0.71724537688E+02  0.10092002196E+03  0.00000000000E+00 0. -1.
         -5    1    5    5    0  501 -0.20939177620E+03  0.30241482493E+02  0.20679518653E+03  0.29588139917E+03  0.47000000000E+01 0.  1.
         11    1    6    6    0    0 -0.13311753013E+02 -0.60158736093E+01  0.11994065623E+03  0.12082696106E+03  0.00000000000E+00 0. -1.
        -12    1    6    6    0    0 -0.27278461677E+02 -0.99321568857E+01 -0.81799709609E+00  0.29041889248E+02  0.00000000000E+00 0.  1.
</event>
<event>
12    1  0.2685360E-002  0.2264969E+03  0.7818608E-02  0.1129130E+00
          1   -1    0    0  502    0  0.00000000000E+00  0.00000000000E+00  0.92886570231E+03  0.92886570231E+03  0.00000000000E+00 0.  1.
         -1   -1    0    0    0  501 -0.00000000000E+00 -0.00000000000E+00 -0.56685070961E+02  0.56685070961E+02  0.00000000000E+00 0. -1.
          6    2    1    2  502    0 -0.60794372755E+02 -0.12774048194E+03  0.50657007199E+03  0.55320114167E+03  0.17147792516E+03 0.  0.
         24    2    3    3    0    0 -0.97414970197E+02 -0.70927036592E+02  0.30536083675E+03  0.34088985587E+03  0.91871281021E+02 0.  0.
         -6    2    1    2    0  501  0.60794372755E+02  0.12774048194E+03  0.36561055935E+03  0.43234963160E+03  0.18232261612E+03 0.  0.
        -24    2    5    5    0    0  0.14237280058E+02 -0.14165465077E+02  0.11534056543E+03  0.14086717838E+03  0.78337445489E+02 0.  0.
          5    1    3    3  502    0  0.36620597442E+02 -0.56813445350E+02  0.20120923524E+03  0.21231128579E+03  0.47000000000E+01 0. -1.
        -13    1    4    4    0    0 -0.97862640696E+02 -0.34056320455E+02  0.27236156131E+03  0.29140650214E+03  0.00000000000E+00 0.  1.
         14    1    4    4    0    0  0.44767049973E+00 -0.36870716137E+02  0.32999275438E+02  0.49483353734E+02  0.00000000000E+00 0. -1.
         -5    1    5    5    0  501  0.46557092697E+02  0.14190594702E+03  0.25026999392E+03  0.29148245323E+03  0.47000000000E+01 0.  1.
         13    1    6    6    0    0  0.11246115370E+02 -0.17753119627E+02 -0.40358192552E+01  0.21399444022E+02  0.00000000000E+00 0. -1.
        -14    1    6    6    0    0  0.29911646878E+01  0.35876545492E+01  0.11937638468E+03  0.11946773435E+03  0.00000000000E+00 0.  1.
</event>
<event>
12    1  0.2685360E-002  0.1852363E+03  0.7818608E-02  0.1162829E+00
          1   -1    0    0  502    0  0.00000000000E+00  0.00000000000E+00  0.19473771685E+04  0.19473771685E+04  0.00000000000E+00 0. -1.
         -1   -1    0    0    0  501 -0.00000000000E+00 -0.00000000000E+00 -0.17645700976E+02  0.17645700976E+02  0.00000000000E+00 0.  1.
          6    2    1    2  502    0  0.24509607702E+02  0.65769072522E+02  0.92104795216E+03  0.93923157474E+03  0.17000096778E+03 0.  0.
         24    2    3    3    0    0 -0.24171460938E+01  0.77660704042E+02  0.88639864823E+03  0.89352462524E+03  0.81527079998E+02 0.  0.
         -6    2    1    2    0  501 -0.24509607702E+02 -0.65769072522E+02  0.10086835153E+04  0.10257912947E+04  0.17285558832E+03 0.  0.
        -24    2    5    5    0    0  0.37789354429E+02 -0.75757235852E+02  0.76001073802E+03  0.76919596297E+03  0.82939215433E+02 0.  0.
          5    1    3    3  502    0  0.26926753796E+02 -0.11891631520E+02  0.34649303926E+02  0.45706949502E+02  0.47000000000E+01 0. -1.
        -11    1    4    4    0    0  0.11377134053E+01 -0.17325896851E+02  0.15756021920E+03  0.15851404912E+03  0.00000000000E+00 0.  1.
         12    1    4    4    0    0 -0.35548594991E+01  0.94986600893E+02  0.72883842903E+03  0.73501057612E+03  0.00000000000E+00 0. -1.
         -5    1    5    5    0  501 -0.62298962131E+02  0.99881633295E+01  0.24867277733E+03  0.25659533174E+03  0.47000000000E+01 0.  1.
         13    1    6    6    0    0  0.30598848464E+02 -0.74641869082E+00  0.92211948783E+02  0.97159097189E+02  0.00000000000E+00 0. -1.
        -14    1    6    6    0    0  0.71905059650E+01 -0.75010817161E+02  0.66779878923E+03  0.67203686578E+03  0.00000000000E+00 0.  1.
</event>
<event>
12    1  0.2685360E-002  0.2523839E+03  0.7818608E-02  0.1111807E+00
          2   -1    0    0  502    0  0.00000000000E+00  0.00000000000E+00  0.17516438023E+04  0.17516438023E+04  0.00000000000E+00 0.  1.
         -2   -1    0    0    0  501 -0.00000000000E+00 -0.00000000000E+00 -0.36389404312E+02  0.36389404312E+02  0.00000000000E+00 0. -1.
          6    2    1    2  502    0 -0.97005733488E+02  0.16058652629E+03  0.88267654866E+03  0.91989878983E+03  0.17859940992E+03 0.  0.
         24    2    3    3    0    0 -0.23226830620E+02  0.67903741668E+02  0.64968333911E+03  0.65847700273E+03  0.79706450285E+02 0.  0.
         -6    2    1    2    0  501  0.97005733488E+02 -0.16058652629E+03  0.83257784932E+03  0.86813441678E+03  0.15897592790E+03 0.  0.
        -24    2    5    5    0    0  0.82327943527E+02 -0.54292466476E+02  0.31899576981E+03  0.34344164280E+03  0.80425733740E+02 0.  0.
          5    1    3    3  502    0 -0.73778902867E+02  0.92682784622E+02  0.23299320954E+03  0.26142178709E+03  0.47000000000E+01 0. -1.
        -13    1    4    4    0    0  0.13639859737E+02  0.61731918136E+02  0.28745430348E+03  0.29432439940E+03  0.00000000000E+00 0.  1.
         14    1    4    4    0    0 -0.36866690357E+02  0.61718235325E+01  0.36222903563E+03  0.36415260333E+03  0.00000000000E+00 0. -1.
         -5    1    5    5    0  501  0.14677789961E+02 -0.10629405981E+03  0.51358207951E+03  0.52469277398E+03  0.47000000000E+01 0.  1.
         11    1    6    6    0    0 -0.23771550400E+01 -0.33504735571E+02  0.14462589061E+03  0.14847513733E+03  0.00000000000E+00 0. -1.
        -12    1    6    6    0    0  0.84705098567E+02 -0.20787730905E+02  0.17436987921E+03  0.19496650547E+03  0.00000000000E+00 0.  1.
</event>
<event>
12    1  0.2685360E-002  0.1823034E+03  0.7818608E-02  0.1165592E+00
          2   -1    0    0  502    0  0.00000000000E+00  0.00000000000E+00  0.88565285871E+03  0.88565285871E+03  0.00000000000E+00 0.  1.
         -2   -1    0    0    0  501 -0.00000000000E+00 -0.00000000000E+00 -0.10545226767E+03  0.10545226767E+03  0.00000000000E+00 0. -1.
          6    2    1    2  502    0  0.36394768476E+02  0.47376313711E+02 -0.77246726797E+01  0.18233511465E+03  0.17209685991E+03 0.  0.
         24    2    3    3    0    0  0.75083672210E+02  0.20878875008E+02 -0.46055621609E+02  0.12158729842E+03  0.81171827637E+02 0.  0.
         -6    2    1    2    0  501 -0.36394768476E+02 -0.47376313711E+02  0.78792526372E+03  0.80877001174E+03  0.17237638008E+03 0.  0.
        -24    2    5    5    0    0  0.96349072414E+01 -0.75294643455E+02  0.33186292355E+03  0.34951723570E+03  0.79165543335E+02 0.  0.
          5    1    3    3  502    0 -0.38688903734E+02  0.26497438703E+02  0.38330948929E+02  0.60747816222E+02  0.47000000000E+01 0. -1.
        -11    1    4    4    0    0 -0.10615809381E+02 -0.14640472075E+01  0.11691456351E+02  0.15859665654E+02  0.00000000000E+00 0.  1.
         12    1    4    4    0    0  0.85699481591E+02  0.22342922216E+02 -0.57747077960E+02  0.10572763277E+03  0.00000000000E+00 0. -1.
         -5    1    5    5    0  501 -0.46029675718E+02  0.27918329743E+02  0.45606234017E+03  0.45925277604E+03  0.47000000000E+01 0.  1.
         13    1    6    6    0    0 -0.19843273679E+02 -0.32780064635E+02  0.24827570594E+03  0.25121527483E+03  0.00000000000E+00 0. -1.
        -14    1    6    6    0    0  0.29478180921E+02 -0.42514578819E+02  0.83587217612E+02  0.98301960869E+02  0.00000000000E+00 0.  1.
</event>
<event>
12    1  0.2685360E-002  0.3389990E+03  0.7818608E-02  0.1067223E+00
          1   -1    0    0  502    0  0.00000000000E+00  0.00000000000E+00  0.23477366629E+04  0.23477366629E+04  0.00000000000E+00 0.  1.
         -1   -1    0    0    0  501 -0.00000000000E+00 -0.00000000000E+00 -0.65132015811E+02  0.65132015811E+02  0.00000000000E+00 0. -1.
          6    2    1    2  502    0  0.97333452563E+02  0.27595740688E+03  0.54125979203E+03  0.63893184931E+03  0.17217855326E+03 0.  0.
         24    2    3    3    0    0  0.74646598227E+02  0.18121702180E+03  0.47798177169E+03  0.52267079917E+03  0.79413264710E+02 0.  0.
         -6    2    1    2    0  501 -0.97333452563E+02 -0.27595740688E+03  0.17413448550E+04  0.17739368294E+04  0.17012841929E+03 0.  0.
        -24    2    5    5    0    0 -0.74262753065E+02 -0.20225787732E+03  0.15583102358E+04  0.15752218585E+04  0.81054962135E+02 0.  0.
          5    1    3    3  502    0  0.22686854336E+02  0.94740385074E+02  0.63278020336E+02  0.11626105015E+03  0.47000000000E+01 0. -1.
        -11    1    4    4    0    0 -0.20493683792E+01  0.81249174356E+02  0.13883906641E+03  0.16087857099E+03  0.00000000000E+00 0.  1.
         12    1    4    4    0    0  0.76695966606E+02  0.99967847447E+02  0.33914270529E+03  0.36179222817E+03  0.00000000000E+00 0. -1.
         -5    1    5    5    0  501 -0.23070699498E+02 -0.73699529557E+02  0.18303461920E+03  0.19871497090E+03  0.47000000000E+01 0.  1.
         11    1    6    6    0    0  0.13260391033E+00 -0.33543781868E+02  0.48745749939E+03  0.48861029113E+03  0.00000000000E+00 0. -1.
        -12    1    6    6    0    0 -0.74395356976E+02 -0.16871409545E+03  0.10708527365E+04  0.10866115674E+04  0.00000000000E+00 0.  1.
</event>
<event>
12    1  0.2685360E-002  0.1877667E+03  0.7818608E-02  0.1160491E+00
         -1   -1    0    0    0  501 -0.00000000000E+00  0.00000000000E+00  0.46193499074E+02  0.46193499074E+02  0.00000000000E+00 0. -1.
          1   -1    0    0  502    0  0.00000000000E+00 -0.00000000000E+00 -0.94513333707E+03  0.94513333707E+03  0.00000000000E+00 0.  1.
          6    2    1    2  502    0 -0.59972071279E+02  0.37841651050E+02 -0.23023333765E+03  0.29650583139E+03  0.17285739322E+03 0.  0.
         24    2    3    3    0    0 -0.22195743172E+02  0.34175857228E+02 -0.26121676179E+02  0.88842282928E+02  0.74498114319E+02 0.  0.
         -6    2    1    2    0  501  0.59972071279E+02 -0.37841651050E+02 -0.66870650034E+03  0.69482100475E+03  0.17486910866E+03 0.  0.
        -24    2    5    5    0    0 -0.12897322262E+02 -0.64239714837E+02 -0.47446665960E+03  0.48563684661E+03  0.80196345501E+02 0.  0.
          5    1    3    3  502    0 -0.37776328107E+02  0.36657938218E+01 -0.20411166147E+03  0.20766354846E+03  0.47000000000E+01 0. -1.
        -11    1    4    4    0    0 -0.12626121827E+02 -0.19805272807E+02 -0.24580138098E+02  0.33997808345E+02  0.00000000000E+00 0.  1.
         12    1    4    4    0    0 -0.95696213456E+01  0.53981130035E+02 -0.15415380809E+01  0.54844474583E+02  0.00000000000E+00 0. -1.
         -5    1    5    5    0  501  0.72869393541E+02  0.26398063787E+02 -0.19423984074E+03  0.20918415814E+03  0.47000000000E+01 0.  1.
         13    1    6    6    0    0  0.45091731535E-01 -0.35182000029E+02 -0.42730140144E+03  0.42874731817E+03  0.00000000000E+00 0. -1.
        -14    1    6    6    0    0 -0.12942413993E+02 -0.29057714808E+02 -0.47165258158E+02  0.56889528447E+02  0.00000000000E+00 0.  1.
</event>
<event>
12    1  0.2685360E-002  0.2200489E+03  0.7818608E-02  0.1133847E+00
          1   -1    0    0  502    0  0.00000000000E+00  0.00000000000E+00  0.17671178372E+04  0.17671178372E+04  0.00000000000E+00 0. -1.
         -1   -1    0    0    0  501 -0.00000000000E+00 -0.00000000000E+00 -0.31191524943E+02  0.31191524943E+02  0.00000000000E+00 0.  1.
          6    2    1    2  502    0  0.10088258171E+03  0.91979016672E+02  0.55621478007E+03  0.59833924566E+03  0.17319796917E+03 0.  0.
         24    2    3    3    0    0  0.10727910828E+03  0.10418683536E+03  0.33604016684E+03  0.37768363911E+03  0.85780147978E+02 0.  0.
         -6    2    1    2    0  501 -0.10088258171E+03 -0.91979016672E+02  0.11797115322E+04  0.11999701165E+04  0.17196379411E+03 0.  0.
        -24    2    5    5    0    0  0.79850297212E+01 -0.25323554912E+02  0.33940196658E+03  0.35000696231E+03  0.81278137381E+02 0.  0.
          5    1    3    3  502    0 -0.63965265680E+01 -0.12207818692E+02  0.22017461323E+03  0.22065560654E+03  0.47000000000E+01 0. -1.
        -13    1    4    4    0    0 -0.76373818607E+01  0.40050419860E+02  0.82279781619E+02  0.91827709304E+02  0.00000000000E+00 0.  1.
         14    1    4    4    0    0  0.11491649014E+03  0.64136415504E+02  0.25376038522E+03  0.28585592981E+03  0.00000000000E+00 0. -1.
         -5    1    5    5    0  501 -0.10886761143E+03 -0.66655461760E+02  0.84030956558E+03  0.84996315415E+03  0.47000000000E+01 0.  1.
         13    1    6    6    0    0 -0.29564607820E+02 -0.27340689859E+02  0.24675868476E+03  0.25002285468E+03  0.00000000000E+00 0. -1.
        -14    1    6    6    0    0  0.37549637541E+02  0.20171349479E+01  0.92643281816E+02  0.99984107629E+02  0.00000000000E+00 0.  1.
</event>
<event>
12    1  0.2685360E-002  0.1922194E+03  0.7818608E-02  0.1156475E+00
          1   -1    0    0  502    0  0.00000000000E+00  0.00000000000E+00  0.31457972894E+03  0.31457972894E+03  0.00000000000E+00 0. -1.
         -1   -1    0    0    0  501 -0.00000000000E+00 -0.00000000000E+00 -0.12726928811E+03  0.12726928811E+03  0.00000000000E+00 0.  1.
          6    2    1    2  502    0 -0.74107531882E+02  0.19107411733E+02  0.30900162771E+02  0.19137703569E+03  0.17266537078E+03 0.  0.
         24    2    3    3    0    0 -0.46949620285E+02  0.71166211027E+01 -0.42965963402E+02  0.11162977355E+03  0.91434234245E+02 0.  0.
         -6    2    1    2    0  501  0.74107531882E+02 -0.19107411733E+02  0.15641027805E+03  0.25047198136E+03  0.18004171433E+03 0.  0.
        -24    2    5    5    0    0  0.43355197496E+02  0.13352806269E+02  0.17850447351E+03  0.20037592068E+03  0.78922062443E+02 0.  0.
          5    1    3    3  502    0 -0.27157911597E+02  0.11990790630E+02  0.73866126173E+02  0.79747262135E+02  0.47000000000E+01 0. -1.
        -11    1    4    4    0    0 -0.22166226626E+02  0.43137872369E+02 -0.47232220725E+02  0.67698599025E+02  0.00000000000E+00 0.  1.
         12    1    4    4    0    0 -0.24783393659E+02 -0.36021251266E+02  0.42662573234E+01  0.43931174530E+02  0.00000000000E+00 0. -1.
         -5    1    5    5    0  501  0.30752334386E+02 -0.32460218002E+02 -0.22094195452E+02  0.50096060679E+02  0.47000000000E+01 0.  1.
         11    1    6    6    0    0  0.26825027830E+01 -0.18637596948E+02  0.12322833452E+03  0.12465864699E+03  0.00000000000E+00 0. -1.
        -12    1    6    6    0    0  0.40672694713E+02  0.31990403217E+02  0.55276138989E+02  0.75717273688E+02  0.00000000000E+00 0.  1.
</event>
<event>
12    1  0.2685360E-002  0.1813563E+03  0.7818608E-02  0.1166497E+00
         -2   -1    0    0    0  501 -0.00000000000E+00  0.00000000000E+00  0.23568341554E+02  0.23568341554E+02  0.00000000000E+00 0. -1.
          2   -1    0    0  502    0  0.00000000000E+00 -0.00000000000E+00 -0.14187311693E+04  0.14187311693E+04  0.00000000000E+00 0.  1.
          6    2    1    2  502    0 -0.54150978504E+02  0.21124137813E+02 -0.60729255581E+03  0.63393982834E+03  0.17232788498E+03 0.  0.
         24    2    3    3    0    0 -0.10239195153E+03  0.15282426742E+02 -0.41674421481E+03  0.43723681025E+03  0.82356683748E+02 0.  0.
         -6    2    1    2    0  501  0.54150978504E+02 -0.21124137813E+02 -0.78787027193E+03  0.80835968251E+03  0.17125201676E+03 0.  0.
        -24    2    5    5    0    0  0.31115799051E+02 -0.17634112477E+02 -0.18427068473E+03  0.20429234236E+03  0.80625808661E+02 0.  0.
          5    1    3    3  502    0  0.48240973023E+02  0.58417110715E+01 -0.19054834101E+03  0.19670301809E+03  0.47000000000E+01 0. -1.
        -13    1    4    4    0    0 -0.46492479878E+02 -0.30110126257E+02 -0.24158273390E+03  0.24785154369E+03  0.00000000000E+00 0.  1.
         14    1    4    4    0    0 -0.55899471649E+02  0.45392552999E+02 -0.17516148090E+03  0.18938526656E+03  0.00000000000E+00 0. -1.
         -5    1    5    5    0  501  0.23035179453E+02 -0.34900253362E+01 -0.60359958720E+03  0.60406734015E+03  0.47000000000E+01 0.  1.
         13    1    6    6    0    0  0.52642641679E+02 -0.22636538194E+02 -0.84461980229E+02  0.10206608981E+03  0.00000000000E+00 0. -1.
        -14    1    6    6    0    0 -0.21526842628E+02  0.50024257167E+01 -0.99808704505E+02  0.10222625256E+03  0.00000000000E+00 0.  1.
</event>
<event>
12    1  0.2685360E-002  0.2171764E+03  0.7818608E-02  0.1136006E+00
          4   -1    0    0  502    0  0.00000000000E+00  0.00000000000E+00  0.36992301184E+02  0.36992301184E+02  0.00000000000E+00 0.  1.
         -4   -1    0    0    0  501 -0.00000000000E+00 -0.00000000000E+00 -0.14471631357E+04  0.14471631357E+04  0.00000000000E+00 0. -1.
          6    2    1    2  502    0  0.10711888694E+03  0.80054183647E+02 -0.45247982601E+03  0.50240300378E+03  0.17259101079E+03 0.  0.
         24    2    3    3    0    0  0.42143533753E+01 -0.82928110244E+01 -0.13384470518E+03  0.15607228796E+03  0.79734700575E+02 0.  0.
         -6    2    1    2    0  501 -0.10711888694E+03 -0.80054183647E+02 -0.95769100853E+03  0.98175243312E+03  0.16965448379E+03 0.  0.
        -24    2    5    5    0    0 -0.11540760946E+03 -0.69622087037E+02 -0.95426293160E+03  0.96721375119E+03  0.81966740480E+02 0.  0.
          5    1    3    3  502    0  0.10290453356E+03  0.88346994671E+02 -0.31863512083E+03  0.34633071582E+03  0.47000000000E+01 0. -1.
        -11    1    4    4    0    0 -0.31617332665E+02 -0.13554203886E+02 -0.28487764545E+02  0.44664582127E+02  0.00000000000E+00 0.  1.
         12    1    4    4    0    0  0.35831686040E+02  0.52613928612E+01 -0.10535694064E+03  0.11140770584E+03  0.00000000000E+00 0. -1.
         -5    1    5    5    0  501  0.82887225269E+01 -0.10432096610E+02 -0.34280769253E+01  0.14538681928E+02  0.47000000000E+01 0.  1.
         11    1    6    6    0    0 -0.76093791654E+01 -0.24226787194E+02 -0.39681649662E+03  0.39762818293E+03  0.00000000000E+00 0. -1.
        -12    1    6    6    0    0 -0.10779823030E+03 -0.45395299843E+02 -0.55744643498E+03  0.56958556827E+03  0.00000000000E+00 0.  1.
</event>
<event>
12    1  0.2685360E-002  0.1951419E+03  0.7818608E-02  0.1153904E+00
          1   -1    0    0  502    0  0.00000000000E+00  0.00000000000E+00  0.13033367807E+04  0.13033367807E+04  0.00000000000E+00 0.  1.
         -1   -1    0    0    0  501 -0.00000000000E+00 -0.00000000000E+00 -0.29980715150E+02  0.29980715150E+02  0.00000000000E+00 0. -1.
          6    2    1    2  502    0  0.83348215922E+02 -0.41768280843E+02  0.74706164382E+03  0.77245711304E+03  0.17290858118E+03 0.  0.
         24    2    3    3    0    0  0.27232865782E+02  0.31618884490E+02  0.23366301556E+03  0.25079165505E+03  0.80973246022E+02 0.  0.
         -6    2    1    2    0  501 -0.83348215922E+02  0.41768280843E+02  0.52629442169E+03  0.56086038276E+03  0.16996186711E+03 0.  0.
        -24    2    5    5    0    0 -0.38169954846E+02  0.73163656837E+01  0.11323840112E+03  0.14388871003E+03  0.79815729822E+02 0.  0.
          5    1    3    3  502    0  0.56115350140E+02 -0.73387165333E+02  0.51339862826E+03  0.52166545799E+03  0.47000000000E+01 0. -1.
        -11    1    4    4    0    0  0.36751969706E+02  0.54757321192E+02  0.17514343035E+03  0.18714778304E+03  0.00000000000E+00 0.  1.
         12    1    4    4    0    0 -0.95191039242E+01 -0.23138436703E+02  0.58519585204E+02  0.63643872015E+02  0.00000000000E+00 0. -1.
         -5    1    5    5    0  501 -0.45178261076E+02  0.34451915159E+02  0.41305602057E+03  0.41697167273E+03  0.47000000000E+01 0.  1.
         13    1    6    6    0    0 -0.29412713486E+02 -0.16961701469E+02  0.71391358801E+01  0.34695450601E+02  0.00000000000E+00 0. -1.
        -14    1    6    6    0    0 -0.87572413602E+01  0.24278067153E+02  0.10609926524E+03  0.10919325943E+03  0.00000000000E+00 0.  1.
</event>
<event>
12    1  0.2685360E-002  0.1831935E+03  0.7818608E-02  0.1164748E+00
         -1   -1    0    0    0  501 -0.00000000000E+00  0.00000000000E+00  0.33733936239E+02  0.33733936239E+02  0.00000000000E+00 0. -1.
          1   -1    0    0  502    0  0.00000000000E+00 -0.00000000000E+00 -0.99720505799E+03  0.99720505799E+03  0.00000000000E+00 0.  1.
          6    2    1    2  502    0 -0.49092321414E+02  0.37720869746E+02 -0.50829285375E+03  0.54049266350E+03  0.17302535676E+03 0.  0.
         24    2    3    3    0    0 -0.86361704359E+02  0.53381271800E+02 -0.46032199121E+03  0.47758361208E+03  0.76693329395E+02 0.  0.
         -6    2    1    2    0  501  0.49092321414E+02 -0.37720869746E+02 -0.45517826800E+03  0.49044633073E+03  0.17180636669E+03 0.  0.
        -24    2    5    5    0    0 -0.11289741674E+02 -0.21638779896E+02 -0.12363228278E+03  0.15303047830E+03  0.86819876074E+02 0.  0.
          5    1    3    3  502    0  0.37269382945E+02 -0.15660402054E+02 -0.47970862544E+02  0.62909051422E+02  0.47000000000E+01 0. -1.
        -13    1    4    4    0    0  0.78602852003E+01  0.14382589385E+02 -0.15098433276E+03  0.15187136563E+03  0.00000000000E+00 0.  1.
         14    1    4    4    0    0 -0.94221989560E+02  0.38998682415E+02 -0.30933765845E+03  0.32571224644E+03  0.00000000000E+00 0. -1.
         -5    1    5    5    0  501  0.60382063088E+02 -0.16082089850E+02 -0.33154598522E+03  0.33741585243E+03  0.47000000000E+01 0.  1.
         11    1    6    6    0    0  0.87463167527E+01  0.30042919094E+02 -0.25665370574E+02  0.40469572411E+02  0.00000000000E+00 0. -1.
        -12    1    6    6    0    0 -0.20036058427E+02 -0.51681698990E+02 -0.97966912207E+02  0.11256090589E+03  0.00000000000E+00 0.  1.
</event>
<event>
12    1  0.2685360E-002  0.1864214E+03  0.7818608E-02  0.1161729E+00
         -2   -1    0    0    0  501 -0.00000000000E+00  0.00000000000E+00  0.52755217644E+02  0.52755217644E+02  0.00000000000E+00 0. -1.
          2   -1    0    0  502    0  0.00000000000E+00 -0.00000000000E+00 -0.80244495319E+03  0.80244495319E+03  0.00000000000E+00 0.  1.
          6    2    1    2  502    0 -0.45026446613E+02  0.56642610649E+02 -0.55547285564E+03  0.58586040431E+03  0.17159998179E+03 0.  0.
         24    2    3    3    0    0 -0.54520557753E+02 -0.25617037253E+02 -0.35938834604E+03  0.37295664031E+03  0.79422594193E+02 0.  0.
         -6    2    1    2    0  501  0.45026446613E+02 -0.56642610649E+02 -0.19421687991E+03  0.26933976653E+03  0.17201147391E+03 0.  0.
        -24    2    5    5    0    0  0.53924038019E+02  0.30103555632E+02 -0.11264271212E+03  0.14983872323E+03  0.77131293581E+02 0.  0.
          5    1    3    3  502    0  0.94941111391E+01  0.82259647902E+02 -0.19608450960E+03  0.21290376400E+03  0.47000000000E+01 0. -1.
        -13    1    4    4    0    0  0.23474291664E+01  0.83531999618E+01 -0.20213172624E+03  0.20231787150E+03  0.00000000000E+00 0.  1.
         14    1    4    4    0    0 -0.56867986919E+02 -0.33970237215E+02 -0.15725661980E+03  0.17063876881E+03  0.00000000000E+00 0. -1.
         -5    1    5    5    0  501 -0.88975914053E+01 -0.86746166280E+02 -0.81574167797E+02  0.11950104330E+03  0.47000000000E+01 0.  1.
         13    1    6    6    0    0 -0.58959757084E+01 -0.19244707510E+02 -0.14757947941E+02  0.24958331758E+02  0.00000000000E+00 0. -1.
        -14    1    6    6    0    0  0.59820013727E+02  0.49348263142E+02 -0.97884764176E+02  0.12488039148E+03  0.00000000000E+00 0.  1.
</event>
<event>
12    1  0.2685360E-002  0.2015302E+03  0.7818608E-02  0.1148454E+00
         -2   -1    0    0    0  501 -0.00000000000E+00  0.00000000000E+00  0.13179023320E+02  0.13179023320E+02  0.00000000000E+00 0.  1.
          2   -1    0    0  502    0  0.00000000000E+00 -0.00000000000E+00 -0.30910520422E+04  0.30910520422E+04  0.00000000000E+00 0. -1.
          6    2    1    2  502    0  0.60632617974E+02  0.85387237747E+02 -0.16217032714E+04  0.16341393781E+04  0.17182174439E+03 0.  0.
         24    2    3    3    0    0  0.60799159366E+02 -0.11747463687E+02 -0.96714526600E+03  0.97239664078E+03  0.79691409646E+02 0.  0.
         -6    2    1    2    0  501 -0.60632617974E+02 -0.85387237747E+02 -0.14561697474E+04  0.14700916874E+04  0.17254547580E+03 0.  0.
        -24    2    5    5    0    0 -0.30807992038E+02 -0.59300860391E+02 -0.13824836524E+04  0.13862958761E+04  0.78035135358E+02 0.  0.
          5    1    3    3  502    0 -0.16654139154E+00  0.97134701433E+02 -0.65455800544E+03  0.66174273736E+03  0.47000000000E+01 0. -1.
        -13    1    4    4    0    0  0.15887516886E+02 -0.39009371195E+02 -0.26904216146E+03  0.27231935090E+03  0.00000000000E+00 0.  1.
         14    1    4    4    0    0  0.44911642480E+02  0.27261907509E+02 -0.69810310454E+03  0.70007728988E+03  0.00000000000E+00 0. -1.
         -5    1    5    5    0  501 -0.29824625936E+02 -0.26086377356E+02 -0.73686094992E+02  0.83795811297E+02  0.47000000000E+01 0.  1.
         13    1    6    6    0    0  0.21383957556E+02 -0.99431330873E+01 -0.16285833213E+03  0.16455690772E+03  0.00000000000E+00 0. -1.
        -14    1    6    6    0    0 -0.52191949594E+02 -0.49357727304E+02 -0.12196253203E+04  0.12217389684E+04  0.00000000000E+00 0.  1.
</event>
<event>
12    1  0.2685360E-002  0.1792826E+03  0.7818608E-02  0.1168499E+00
         -2   -1    0    0    0  501 -0.00000000000E+00  0.00000000000E+00  0.10252397836E+02  0.10252397836E+02  0.00000000000E+00 0.  1.
          2   -1    0    0  502    0  0.00000000000E+00 -0.00000000000E+00 -0.31791004311E+04  0.31791004311E+04  0.00000000000E+00 0. -1.
          6    2    1    2  502    0  0.48401340303E+02  0.27260140862E-01 -0.17671473854E+04  0.17761627370E+04  0.17205085327E+03 0.  0.
         24    2    3    3    0    0 -0.15437601808E+02 -0.18052166699E+02 -0.48030664151E+03  0.48760405912E+03  0.80616675222E+02 0.  0.
         -6    2    1    2    0  501 -0.48401340303E+02 -0.27260140862E-01 -0.14017006478E+04  0.14131900919E+04  0.17320172985E+03 0.  0.
        -24    2    5    5    0    0  0.40835373311E+02 -0.47864247687E+01 -0.75836265471E+03  0.76365818037E+03  0.79808914329E+02 0.  0.
          5    1    3    3  502    0  0.63838942112E+02  0.18079426840E+02 -0.12868407439E+04  0.12885586779E+04  0.47000000000E+01 0. -1.
        -13    1    4    4    0    0 -0.20692145612E+02  0.22061785999E+02 -0.34643353345E+03  0.34775146354E+03  0.00000000000E+00 0.  1.
         14    1    4    4    0    0  0.52545438038E+01 -0.40113952698E+02 -0.13387310806E+03  0.13985259559E+03  0.00000000000E+00 0. -1.
         -5    1    5    5    0  501 -0.89236713614E+02  0.47591646279E+01 -0.64333799312E+03  0.64953191153E+03  0.47000000000E+01 0.  1.
         11    1    6    6    0    0  0.58579017156E+01 -0.29731209632E+02 -0.11707492528E+03  0.12093303092E+03  0.00000000000E+00 0. -1.
        -12    1    6    6    0    0  0.34977471595E+02  0.24944784863E+02 -0.64128772943E+03  0.64272514945E+03  0.00000000000E+00 0.  1.
</event>
<event>
12    1  0.2685360E-002  0.1789377E+03  0.7818608E-02  0.1168835E+00
          1   -1    0    0  502    0  0.00000000000E+00  0.00000000000E+00  0.27760316483E+03  0.27760316483E+03  0.00000000000E+00 0. -1.
         -1   -1    0    0    0  501 -0.00000000000E+00 -0.00000000000E+00 -0.12124722509E+03  0.12124722509E+03  0.00000000000E+00 0.  1.
          6    2    1    2  502    0 -0.22374331470E+02  0.47928695465E+02  0.34256497096E+02  0.18241672703E+03  0.17118581760E+03 0.  0.
         24    2    3    3    0    0 -0.70883436745E+02  0.34708944273E+02  0.57869000600E+02  0.12667145424E+03  0.80421786056E+02 0.  0.
         -6    2    1    2    0  501  0.22374331470E+02 -0.47928695465E+02  0.12209944265E+03  0.21643366290E+03  0.17069705909E+03 0.  0.
        -24    2    5    5    0    0  0.38096600410E+02 -0.92218027314E+02  0.10143079199E+03  0.16487769548E+03  0.83312264280E+02 0.  0.
          5    1    3    3  502    0  0.48509105275E+02  0.13219751192E+02 -0.23612503504E+02  0.55745272785E+02  0.47000000000E+01 0. -1.
        -13    1    4    4    0    0 -0.50226428000E+02  0.11673673785E+02 -0.95953355296E+01  0.52450349791E+02  0.00000000000E+00 0.  1.
         14    1    4    4    0    0 -0.20657008745E+02  0.23035270488E+02  0.67464336129E+02  0.74221104452E+02  0.00000000000E+00 0. -1.
         -5    1    5    5    0  501 -0.15722268940E+02  0.44289331849E+02  0.20668650656E+02  0.51555967416E+02  0.47000000000E+01 0.  1.
         11    1    6    6    0    0  0.48224948956E+01  0.98288552909E+01  0.39432189615E+02  0.40923836956E+02  0.00000000000E+00 0. -1.
        -12    1    6    6    0    0  0.33274105514E+02 -0.10204688261E+03  0.61998602374E+02  0.12395385853E+03  0.00000000000E+00 0.  1.
</event>
<event>
12    1  0.2685360E-002  0.3393481E+03  0.7818608E-02  0.1067074E+00
          2   -1    0    0  502    0  0.00000000000E+00  0.00000000000E+00  0.13182875156E+04  0.13182875156E+04  0.00000000000E+00 0. -1.
         -2   -1    0    0    0  501 -0.00000000000E+00 -0.00000000000E+00 -0.12741727427E+03  0.12741727427E+03  0.00000000000E+00 0.  1.
          6    2    1    2  502    0 -0.36744395807E+02 -0.29026172944E+03  0.18985273177E+03  0.38866431738E+03  0.17150472192E+03 0.  0.
         24    2    3    3    0    0 -0.51530034466E+02 -0.30385800018E+03  0.18072324516E+03  0.36610525679E+03  0.79919578223E+02 0.  0.
         -6    2    1    2    0  501  0.36744395807E+02  0.29026172944E+03  0.10010175096E+04  0.10570404725E+04  0.17232667774E+03 0.  0.
        -24    2    5    5    0    0  0.31900578399E+02  0.92182442529E+02  0.55214761984E+03  0.56636223336E+03  0.79899534859E+02 0.  0.
          5    1    3    3  502    0  0.14785638659E+02  0.13596270742E+02  0.91294866103E+01  0.22559060584E+02  0.47000000000E+01 0. -1.
        -13    1    4    4    0    0 -0.39111837890E+02 -0.29120876037E+03  0.14824160155E+03  0.32910158068E+03  0.00000000000E+00 0.  1.
         14    1    4    4    0    0 -0.12418196577E+02 -0.12649239816E+02  0.32481643609E+02  0.37003676110E+02  0.00000000000E+00 0. -1.
         -5    1    5    5    0  501  0.48438174086E+01  0.19807928691E+03  0.44886988976E+03  0.49067823918E+03  0.47000000000E+01 0.  1.
         11    1    6    6    0    0 -0.10707605796E+01  0.11314801134E+01 -0.27056232914E+01  0.31220462618E+01  0.00000000000E+00 0. -1.
        -12    1    6    6    0    0  0.32971338978E+02  0.91050962415E+02  0.55485324313E+03  0.56324018710E+03  0.00000000000E+00 0.  1.
</event>
<event>
12    1  0.2685360E-002  0.2468906E+03  0.7818608E-02  0.1115286E+00
          2   -1    0    0  502    0  0.00000000000E+00  0.00000000000E+00  0.22382659018E+04  0.22382659018E+04  0.00000000000E+00 0. -1.
         -2   -1    0    0    0  501 -0.00000000000E+00 -0.00000000000E+00 -0.38081579881E+02  0.38081579881E+02  0.00000000000E+00 0.  1.
          6    2    1    2  502    0  0.70751875780E+02 -0.16308888601E+03  0.49124246474E+03  0.54960207866E+03  0.17070287939E+03 0.  0.
         24    2    3    3    0    0 -0.84198202528E+01 -0.11887402527E+03  0.21353512520E+03  0.25742650166E+03  0.80431503788E+02 0.  0.
         -6    2    1    2    0  501 -0.70751875780E+02  0.16308888601E+03  0.17089418571E+04  0.17267454030E+04  0.17194069612E+03 0.  0.
        -24    2    5    5    0    0 -0.55817923921E+02  0.15423940354E+02  0.67373318171E+03  0.68094090368E+03  0.80066070180E+02 0.  0.
          5    1    3    3  502    0  0.79171696033E+02 -0.44214860741E+02  0.27770733954E+03  0.29217557700E+03  0.47000000000E+01 0. -1.
        -13    1    4    4    0    0 -0.36902517011E+01 -0.76490015983E+01 -0.65914305713E+01  0.10750448365E+02  0.00000000000E+00 0.  1.
         14    1    4    4    0    0 -0.47295685517E+01 -0.11122502367E+03  0.22012655578E+03  0.24667605329E+03  0.00000000000E+00 0. -1.
         -5    1    5    5    0  501 -0.14933951859E+02  0.14766494566E+03  0.10352086754E+04  0.10458044993E+04  0.47000000000E+01 0.  1.
         11    1    6    6    0    0  0.10904261341E+02  0.79850970502E+01  0.35290368052E+03  0.35316238817E+03  0.00000000000E+00 0. -1.
        -12    1    6    6    0    0 -0.66722185262E+02  0.74388433035E+01  0.32082950119E+03  0.32777851551E+03  0.00000000000E+00 0.  1.
</event>
<event>
12    1  0.2685360E-002  0.2069954E+03  0.7818608E-02  0.1143968E+00
          2   -1    0    0  502    0  0.00000000000E+00  0.00000000000E+00  0.20173729669E+03  0.20173729669E+03  0.00000000000E+00 0.  1.
         -2   -1    0    0    0  501 -0.00000000000E+00 -0.00000000000E+00 -0.21271848186E+03  0.21271848186E+03  0.00000000000E+00 0. -1.
          6    2    1    2  502    0 -0.98175131056E+02 -0.75685686199E+02  0.66037058883E+00  0.21222141978E+03  0.17225218567E+03 0.  0.
         24    2    3    3    0    0 -0.12130091072E+03 -0.19969451392E+02  0.23451951101E+02  0.14756349955E+03  0.78181215497E+02 0.  0.
         -6    2    1    2    0  501  0.98175131056E+02  0.75685686199E+02 -0.11641555755E+02  0.20223435878E+03  0.15936288965E+03 0.  0.
        -24    2    5    5    0    0  0.10100039640E+02  0.79860912626E+02 -0.46598788395E+01  0.11365959908E+03  0.80106265829E+02 0.  0.
          5    1    3    3  502    0  0.23125779667E+02 -0.55716234807E+02 -0.22791580512E+02  0.64657920230E+02  0.47000000000E+01 0. -1.
        -13    1    4    4    0    0 -0.16547984923E+02  0.26070058524E+02  0.94145331045E+01  0.32281839942E+02  0.00000000000E+00 0.  1.
         14    1    4    4    0    0 -0.10475292580E+03 -0.46039509916E+02  0.14037417996E+02  0.11528165960E+03  0.00000000000E+00 0. -1.
         -5    1    5    5    0  501  0.88075091415E+02 -0.41752264275E+01 -0.69816769157E+01  0.88574759701E+02  0.47000000000E+01 0.  1.
         11    1    6    6    0    0 -0.10503544475E+02  0.36183638167E+01 -0.28968630341E+02  0.31025772304E+02  0.00000000000E+00 0. -1.
        -12    1    6    6    0    0  0.20603584115E+02  0.76242548809E+02  0.24308751502E+02  0.82633826772E+02  0.00000000000E+00 0.  1.
</event>
<event>
12    1  0.2685360E-002  0.1973566E+03  0.7818608E-02  0.1151989E+00
          2   -1    0    0  502    0  0.00000000000E+00  0.00000000000E+00  0.19645989834E+04  0.19645989834E+04  0.00000000000E+00 0.  1.
         -2   -1    0    0    0  501 -0.00000000000E+00 -0.00000000000E+00 -0.20217895496E+02  0.20217895496E+02  0.00000000000E+00 0. -1.
          6    2    1    2  502    0  0.72732160001E+02 -0.63258428808E+02  0.11095307324E+04  0.11269147783E+04  0.17200835897E+03 0.  0.
         24    2    3    3    0    0  0.27069707303E+02 -0.10511156723E+03  0.80238906741E+03  0.81355422376E+03  0.79126789954E+02 0.  0.
         -6    2    1    2    0  501 -0.72732160001E+02  0.63258428808E+02  0.83485035552E+03  0.85790210058E+03  0.17242187264E+03 0.  0.
        -24    2    5    5    0    0  0.46377602427E+01  0.83867907519E+02  0.54021388759E+03  0.55254396101E+03  0.80115228092E+02 0.  0.
          5    1    3    3  502    0  0.45662452698E+02  0.41853138419E+02  0.30714166499E+03  0.31336055456E+03  0.47000000000E+01 0. -1.
        -11    1    4    4    0    0  0.50501455689E+02 -0.77036864018E+02  0.45395245925E+03  0.46320396232E+03  0.00000000000E+00 0.  1.
         12    1    4    4    0    0 -0.23431748386E+02 -0.28074703208E+02  0.34843660815E+03  0.35035026145E+03  0.00000000000E+00 0. -1.
         -5    1    5    5    0  501 -0.77369920244E+02 -0.20609478711E+02  0.29463646793E+03  0.30535813957E+03  0.47000000000E+01 0.  1.
         11    1    6    6    0    0 -0.15278699085E+02  0.40092209483E+02  0.89296834637E+02  0.99069412954E+02  0.00000000000E+00 0. -1.
        -12    1    6    6    0    0  0.19916459328E+02  0.43775698036E+02  0.45091705295E+03  0.45347454806E+03  0.00000000000E+00 0.  1.
</event>
<event>
12    1  0.2685360E-002  0.1949410E+03  0.7818608E-02  0.1154079E+00
         -2   -1    0    0    0  501 -0.00000000000E+00  0.00000000000E+00  0.22447989383E+03  0.22447989383E+03  0.00000000000E+00 0.  1.
          2   -1    0    0  502    0  0.00000000000E+00 -0.00000000000E+00 -0.24687391686E+03  0.24687391686E+03  0.00000000000E+00 0. -1.
          6    2    1    2  502    0  0.70600958601E+02 -0.70696955438E+02 -0.14313137838E+03  0.23920256971E+03  0.16355036844E+03 0.  0.
         24    2    3    3    0    0  0.77838209588E+01 -0.41289480129E+01 -0.98694029271E+01  0.77467797649E+02  0.76329669710E+02 0.  0.
         -6    2    1    2    0  501 -0.70600958601E+02  0.70696955438E+02  0.12073735535E+03  0.23215124098E+03  0.17127210763E+03 0.  0.
        -24    2    5    5    0    0 -0.10383270544E+03  0.58972606634E+02  0.48989129218E+02  0.15207810376E+03  0.80428948821E+02 0.  0.
          5    1    3    3  502    0  0.62817137642E+02 -0.66568007425E+02 -0.13326197545E+03  0.16173477206E+03  0.47000000000E+01 0. -1.
        -11    1    4    4    0    0  0.32172720613E+02 -0.12234516337E+02  0.18591241223E+02  0.39120347543E+02  0.00000000000E+00 0.  1.
         12    1    4    4    0    0 -0.24388899654E+02  0.81055683241E+01 -0.28460644150E+02  0.38347450106E+02  0.00000000000E+00 0. -1.
         -5    1    5    5    0  501  0.33231746839E+02  0.11724348804E+02  0.71748226130E+02  0.80073137228E+02  0.47000000000E+01 0.  1.
         13    1    6    6    0    0  0.71713932614E+01  0.16404531384E+02 -0.87329696429E+01  0.19919896838E+02  0.00000000000E+00 0. -1.
        -14    1    6    6    0    0 -0.11100409870E+03  0.42568075249E+02  0.57722098861E+02  0.13215820692E+03  0.00000000000E+00 0.  1.
</event>
<event>
12    1  0.2685360E-002  0.1921529E+03  0.7818608E-02  0.1156534E+00
          2   -1    0    0  502    0  0.00000000000E+00  0.00000000000E+00  0.40463256503E+03  0.40463256503E+03  0.00000000000E+00 0.  1.
         -2   -1    0    0    0  501 -0.00000000000E+00 -0.00000000000E+00 -0.14616404685E+03  0.14616404685E+03  0.00000000000E+00 0. -1.
          6    2    1    2  502    0 -0.41811081294E+02  0.75670622842E+02  0.29810434678E+03  0.35475300468E+03  0.17178266233E+03 0.  0.
         24    2    3    3    0    0  0.32833764489E+02  0.32822667338E+02  0.90917785727E+02  0.13035121909E+03  0.81055616556E+02 0.  0.
         -6    2    1    2    0  501  0.41811081294E+02 -0.75670622842E+02 -0.39635828608E+02  0.19604360721E+03  0.17142895711E+03 0.  0.
        -24    2    5    5    0    0  0.40375157356E+02 -0.11829810186E+03 -0.25569249486E+02  0.15088696325E+03  0.80551194435E+02 0.  0.
          5    1    3    3  502    0 -0.74644845783E+02  0.42847955504E+02  0.20718656106E+03  0.22440178559E+03  0.47000000000E+01 0. -1.
        -13    1    4    4    0    0  0.30720683570E+02  0.17006121245E+02  0.10396784777E+03  0.10973733152E+03  0.00000000000E+00 0.  1.
         14    1    4    4    0    0  0.21130809188E+01  0.15816546092E+02 -0.13050062047E+02  0.20613887569E+02  0.00000000000E+00 0. -1.
         -5    1    5    5    0  501  0.14359239375E+01  0.42627479018E+02 -0.14066579122E+02  0.45156643953E+02  0.47000000000E+01 0.  1.
         13    1    6    6    0    0 -0.22097902876E+02 -0.55513050608E+02 -0.15628365389E+02  0.61759711010E+02  0.00000000000E+00 0. -1.
        -14    1    6    6    0    0  0.62473060232E+02 -0.62785051252E+02 -0.99408840972E+01  0.89127252242E+02  0.00000000000E+00 0.  1.
</event>
<event>
12    1  0.2685360E-002  0.1799520E+03  0.7818608E-02  0.1167849E+00
         -1   -1    0    0    0  501 -0.00000000000E+00  0.00000000000E+00  0.21135487491E+02  0.21135487491E+02  0.00000000000E+00 0. -1.
          1   -1    0    0  502    0  0.00000000000E+00 -0.00000000000E+00 -0.20982516907E+04  0.20982516907E+04  0.00000000000E+00 0.  1.
          6    2    1    2  502    0 -0.31987892174E+02  0.44596493746E+02 -0.48391216790E+03  0.51593877422E+03  0.17032251762E+03 0.  0.
         24    2    3    3    0    0  0.10641699717E+02  0.69019697136E+02 -0.16491018117E+03  0.19314141905E+03  0.72327557226E+02 0.  0.
         -6    2    1    2    0  501  0.31987892174E+02 -0.44596493746E+02 -0.15932040353E+04  0.16034484039E+04  0.17244017384E+03 0.  0.
        -24    2    5    5    0    0 -0.13413620552E+02  0.30987877520E+02 -0.10095202740E+04  0.10131238172E+04  0.78412445240E+02 0.  0.
          5    1    3    3  502    0 -0.42629591891E+02 -0.24423203390E+02 -0.31900198673E+03  0.32279735517E+03  0.47000000000E+01 0. -1.
        -13    1    4    4    0    0  0.18832236753E+02 -0.89140946571E+01 -0.48798653260E+02  0.53060557712E+02  0.00000000000E+00 0.  1.
         14    1    4    4    0    0 -0.81905370368E+01  0.77933791793E+02 -0.11611152791E+03  0.14008086134E+03  0.00000000000E+00 0. -1.
         -5    1    5    5    0  501  0.45401512727E+02 -0.75584371266E+02 -0.58368376129E+03  0.59032458676E+03  0.47000000000E+01 0.  1.
         13    1    6    6    0    0 -0.31698478859E+02  0.20075611734E+02 -0.93134350596E+03  0.93209900217E+03  0.00000000000E+00 0. -1.
        -14    1    6    6    0    0  0.18284858306E+02  0.10912265786E+02 -0.78176768017E+02  0.81024814998E+02  0.00000000000E+00 0.  1.
</event>
<event>
12    1  0.2685360E-002  0.1857350E+03  0.7818608E-02  0.1162365E+00
          2   -1    0    0  502    0  0.00000000000E+00  0.00000000000E+00  0.16405567791E+04  0.16405567791E+04  0.00000000000E+00 0.  1.
         -2   -1    0    0    0  501 -0.00000000000E+00 -0.00000000000E+00 -0.24575181205E+02  0.24575181205E+02  0.00000000000E+00 0. -1.
          6    2    1    2  502    0  0.40293975747E+02 -0.28870172347E+02  0.51657950665E+03  0.55117359892E+03  0.18569022086E+03 0.  0.
         24    2    3    3    0    0  0.55467323000E+02  0.38585715447E+02  0.41733584787E+03  0.43012847893E+03  0.79220054994E+02 0.  0.
         -6    2    1    2    0  501 -0.40293975747E+02  0.28870172347E+02  0.10994020913E+04  0.11139583614E+04  0.17251429312E+03 0.  0.
        -24    2    5    5    0    0 -0.59461777997E+02  0.64321910264E+02  0.51703463457E+03  0.53017914374E+03  0.78051905324E+02 0.  0.
          5    1    3    3  502    0 -0.15173347253E+02 -0.67455887794E+02  0.99243658776E+02  0.12104511999E+03  0.47000000000E+01 0. -1.
        -13    1    4    4    0    0 -0.31047633673E+01 -0.14216453898E+02  0.16776946412E+03  0.16839934741E+03  0.00000000000E+00 0.  1.
         14    1    4    4    0    0  0.58572086367E+02  0.52802169345E+02  0.24956638375E+03  0.26172913152E+03  0.00000000000E+00 0. -1.
         -5    1    5    5    0  501  0.19167802250E+02 -0.35451737917E+02  0.58236745670E+03  0.58377921767E+03  0.47000000000E+01 0.  1.
         11    1    6    6    0    0 -0.36410294831E+02 -0.67915055048E+01  0.25548480580E+03  0.25815561220E+03  0.00000000000E+00 0. -1.
        -12    1    6    6    0    0 -0.23051483166E+02  0.71113415768E+02  0.26154982878E+03  0.27202353154E+03  0.00000000000E+00 0.  1.
</event>
<event>
12    1  0.2685360E-002  0.1784499E+03  0.7818608E-02  0.1169312E+00
          2   -1    0    0  502    0  0.00000000000E+00  0.00000000000E+00  0.11620307234E+04  0.11620307234E+04  0.00000000000E+00 0.  1.
         -2   -1    0    0    0  501 -0.00000000000E+00 -0.00000000000E+00 -0.35660723265E+02  0.35660723265E+02  0.00000000000E+00 0. -1.
          6    2    1    2  502    0 -0.49343953867E+02  0.13898967562E+01  0.27535175237E+03  0.32819181005E+03  0.17162318915E+03 0.  0.
         24    2    3    3    0    0 -0.63967708957E+02 -0.57430312855E+02  0.19656575381E+03  0.22867801783E+03  0.79154479629E+02 0.  0.
         -6    2    1    2    0  501  0.49343953867E+02 -0.13898967562E+01  0.85101824778E+03  0.86949963663E+03  0.17134994151E+03 0.  0.
        -24    2    5    5    0    0  0.18928714400E+02  0.55305392112E+02  0.65086011133E+03  0.65920267479E+03  0.86673521387E+02 0.  0.
          5    1    3    3  502    0  0.14623755090E+02  0.58820209612E+02  0.78785998561E+02  0.99513792215E+02  0.47000000000E+01 0. -1.
        -13    1    4    4    0    0  0.14913019759E+02 -0.20401416611E+02  0.74730809108E+02  0.78887957179E+02  0.00000000000E+00 0.  1.
         14    1    4    4    0    0 -0.78880728717E+02 -0.37028896245E+02  0.12183494470E+03  0.14979006065E+03  0.00000000000E+00 0. -1.
         -5    1    5    5    0  501  0.30415239468E+02 -0.56695288868E+02  0.20015813645E+03  0.21029696184E+03  0.47000000000E+01 0.  1.
         11    1    6    6    0    0  0.29342139898E+02  0.47025343986E+02  0.18434388833E+03  0.19249678780E+03  0.00000000000E+00 0. -1.
        -12    1    6    6    0    0 -0.10413425498E+02  0.82800481259E+01  0.46651622300E+03  0.46670588699E+03  0.00000000000E+00 0.  1.
</event>
<event>
12    1  0.2685360E-002  0.1802773E+03  0.7818608E-02  0.1167535E+00
         -1   -1    0    0    0  501 -0.00000000000E+00  0.00000000000E+00  0.17703782824E+02  0.17703782824E+02  0.00000000000E+00 0. -1.
          1   -1    0    0  502    0  0.00000000000E+00 -0.00000000000E+00 -0.22164756322E+04  0.22164756322E+04  0.00000000000E+00 0.  1.
          6    2    1    2  502    0 -0.51741129353E+01  0.55107027093E+02 -0.15646967483E+04  0.15751011512E+04  0.17205861342E+03 0.  0.
         24    2    3    3    0    0 -0.36084626015E+02  0.78853830303E+02 -0.14308931279E+04  0.14356562900E+04  0.78318661508E+02 0.  0.
         -6    2    1    2    0  501  0.51741129353E+01 -0.55107027093E+02 -0.63407510103E+03  0.65907826379E+03  0.17108292777E+03 0.  0.
        -24    2    5    5    0    0  0.40549139906E+02 -0.31426004826E+02 -0.19928383385E+03  0.22218271636E+03  0.83781182189E+02 0.  0.
          5    1    3    3  502    0  0.30910513080E+02 -0.23746803211E+02 -0.13380362044E+03  0.13944486123E+03  0.47000000000E+01 0. -1.
        -13    1    4    4    0    0 -0.19122130397E+02  0.77350518513E+02 -0.69282522085E+03  0.69739195954E+03  0.00000000000E+00 0.  1.
         14    1    4    4    0    0 -0.16962495617E+02  0.15033117905E+01 -0.73806790705E+03  0.73826433046E+03  0.00000000000E+00 0. -1.
         -5    1    5    5    0  501 -0.35375026971E+02 -0.23681022266E+02 -0.43479126718E+03  0.43689554743E+03  0.47000000000E+01 0.  1.
         11    1    6    6    0    0  0.44617746865E+02 -0.53993519234E+02 -0.17635154137E+03  0.18975223213E+03  0.00000000000E+00 0. -1.
        -12    1    6    6    0    0 -0.40686069586E+01  0.22567514408E+02 -0.22932292485E+02  0.32430484236E+02  0.00000000000E+00 0.  1.
</event>
<event>
12    1  0.2685360E-002  0.1771663E+03  0.7818608E-02  0.1170574E+00
         -2   -1    0    0    0  501 -0.00000000000E+00  0.00000000000E+00  0.30197928140E+02  0.30197928140E+02  0.00000000000E+00 0. -1.
          2   -1    0    0  502    0  0.00000000000E+00 -0.00000000000E+00 -0.20804406344E+04  0.20804406344E+04  0.00000000000E+00 0.  1.
          6    2    1    2  502    0  0.50295526434E+02 -0.78078422072E+01 -0.17662925637E+04  0.17749749928E+04  0.16779809936E+03 0.  0.
         24    2    3    3    0    0  0.41529946618E+02  0.57808237414E+02 -0.87863502467E+03  0.88484000199E+03  0.76653726336E+02 0.  0.
         -6    2    1    2    0  501 -0.50295526434E+02  0.78078422072E+01 -0.28395014255E+03  0.33566356972E+03  0.17161511065E+03 0.  0.
        -24    2    5    5    0    0  0.34831620540E+02  0.49846019795E+01 -0.19028390506E+03  0.20897475457E+03  0.78894838093E+02 0.  0.
          5    1    3    3  502    0  0.87655798153E+01 -0.65616079621E+02 -0.88765753905E+03  0.89013499085E+03  0.47000000000E+01 0. -1.
        -11    1    4    4    0    0 -0.18760342502E+02  0.71606940061E+01 -0.32670539009E+03  0.32732191785E+03  0.00000000000E+00 0.  1.
         12    1    4    4    0    0  0.60290289120E+02  0.50647543408E+02 -0.55192963458E+03  0.55751808414E+03  0.00000000000E+00 0. -1.
         -5    1    5    5    0  501 -0.85127146974E+02  0.28232402276E+01 -0.93666237491E+02  0.12668881515E+03  0.47000000000E+01 0.  1.
         11    1    6    6    0    0 -0.25071299055E+02  0.61772386890E+01 -0.46121566604E+02  0.52857612698E+02  0.00000000000E+00 0. -1.
        -12    1    6    6    0    0  0.59902919595E+02 -0.11926367095E+01 -0.14416233846E+03  0.15611714188E+03  0.00000000000E+00 0.  1.
</event>
<event>
12    1  0.2685360E-002  0.1741211E+03  0.7818608E-02  0.1173617E+00
          2   -1    0    0  502    0  0.00000000000E+00  0.00000000000E+00  0.95469253921E+02  0.95469253921E+02  0.00000000000E+00 0. -1.
         -2   -1    0    0    0  501 -0.00000000000E+00 -0.00000000000E+00 -0.31774063042E+03  0.31774063042E+03  0.00000000000E+00 0.  1.
          6    2    1    2  502    0  0.71437799295E+01  0.26097265047E+02 -0.11567444436E+03  0.20874159782E+03  0.17164025387E+03 0.  0.
         24    2    3    3    0    0  0.52611603995E+02  0.39175547165E+02 -0.25849785357E+02  0.10711028448E+03  0.80633102798E+02 0.  0.
         -6    2    1    2    0  501 -0.71437799295E+01 -0.26097265047E+02 -0.10659693214E+03  0.20446828652E+03  0.17237248451E+03 0.  0.
        -24    2    5    5    0    0 -0.16620266603E+02 -0.40520755845E+02  0.68722839419E+01  0.89597951422E+02  0.77861413397E+02 0.  0.
          5    1    3    3  502    0 -0.45467824065E+02 -0.13078282117E+02 -0.89824659002E+02  0.10163131335E+03  0.47000000000E+01 0. -1.
        -11    1    4    4    0    0  0.23659795582E+02 -0.93468293586E+01 -0.41323840432E+02  0.48526373593E+02  0.00000000000E+00 0.  1.
         12    1    4    4    0    0  0.28951808413E+02  0.48522376523E+02  0.15474055075E+02  0.58583910883E+02  0.00000000000E+00 0. -1.
         -5    1    5    5    0  501  0.94764866730E+01  0.14423490798E+02 -0.11346921609E+03  0.11487033510E+03  0.47000000000E+01 0.  1.
         11    1    6    6    0    0 -0.74370889145E+01  0.70209480166E+01  0.33020530496E+02  0.34568185328E+02  0.00000000000E+00 0. -1.
        -12    1    6    6    0    0 -0.91831776881E+01 -0.47541703862E+02 -0.26148246555E+02  0.55029766094E+02  0.00000000000E+00 0.  1.
</event>
<event>
12    1  0.2685360E-002  0.2576360E+03  0.7818608E-02  0.1108572E+00
         -1   -1    0    0    0  501 -0.00000000000E+00  0.00000000000E+00  0.90264814141E+02  0.90264814141E+02  0.00000000000E+00 0. -1.
          1   -1    0    0  502    0  0.00000000000E+00 -0.00000000000E+00 -0.23457245518E+04  0.23457245518E+04  0.00000000000E+00 0.  1.
          6    2    1    2  502    0 -0.51609364150E+02 -0.18514224457E+03 -0.21365868332E+04  0.21520355812E+04  0.17120943271E+03 0.  0.
         24    2    3    3    0    0 -0.29068240365E+02 -0.11836017585E+03 -0.73723671608E+03  0.75090361483E+03  0.74055178085E+02 0.  0.
         -6    2    1    2    0  501  0.51609364150E+02  0.18514224457E+03 -0.11887290449E+03  0.28395378475E+03  0.17192384145E+03 0.  0.
        -24    2    5    5    0    0 -0.60226691347E+01  0.20913326048E+02 -0.32972198113E+02  0.89805361383E+02  0.80648604047E+02 0.  0.
          5    1    3    3  502    0 -0.22541123785E+02 -0.66782068720E+02 -0.13993501171E+04  0.14011319664E+04  0.47000000000E+01 0. -1.
        -11    1    4    4    0    0  0.69436466033E+01 -0.61435368545E+02 -0.51458137444E+03  0.51828226832E+03  0.00000000000E+00 0.  1.
         12    1    4    4    0    0 -0.36011886968E+02 -0.56924807308E+02 -0.22265534164E+03  0.23262134651E+03  0.00000000000E+00 0. -1.
         -5    1    5    5    0  501  0.57632033285E+02  0.16422891852E+03 -0.85900706381E+02  0.19414842337E+03  0.47000000000E+01 0.  1.
         11    1    6    6    0    0  0.23117361188E+01 -0.14223580313E+02  0.20635548260E+02  0.25169032814E+02  0.00000000000E+00 0. -1.
        -12    1    6    6    0    0 -0.83344052535E+01  0.35136906361E+02 -0.53607746374E+02  0.64636328569E+02  0.00000000000E+00 0.  1.
</event>
<event>
12    1  0.2685360E-002  0.1894479E+03  0.7818608E-02  0.1158960E+00
          2   -1    0    0  502    0  0.00000000000E+00  0.00000000000E+00  0.82470075616E+03  0.82470075616E+03  0.00000000000E+00 0.  1.
         -2   -1    0    0    0  501 -0.00000000000E+00 -0.00000000000E+00 -0.47776941280E+02  0.47776941280E+02  0.00000000000E+00 0. -1.
          6    2    1    2  502    0  0.16082243206E+02 -0.83298559503E+02  0.25418595626E+03  0.31570363937E+03  0.16691614359E+03 0.  0.
         24    2    3    3    0    0  0.23410760796E+02 -0.71089671136E+02  0.27108193034E+03  0.29311319747E+03  0.82632490646E+02 0.  0.
         -6    2    1    2    0  501 -0.16082243206E+02  0.83298559503E+02  0.52273785862E+03  0.55677405807E+03  0.17188715584E+03 0.  0.
        -24    2    5    5    0    0  0.55657444426E+02  0.12745466569E+02  0.18056578903E+03  0.20008352425E+03  0.64569454640E+02 0.  0.
          5    1    3    3  502    0 -0.73285175894E+01 -0.12208888367E+02 -0.16895974080E+02  0.22590441902E+02  0.47000000000E+01 0. -1.
        -11    1    4    4    0    0 -0.14372261210E+01  0.16263245011E+02  0.18364614067E+02  0.24572704512E+02  0.00000000000E+00 0.  1.
         12    1    4    4    0    0  0.24847986917E+02 -0.87352916147E+02  0.25271731628E+03  0.26854049296E+03  0.00000000000E+00 0. -1.
         -5    1    5    5    0  501 -0.71739687632E+02  0.70553092934E+02  0.34217206959E+03  0.35669053382E+03  0.47000000000E+01 0.  1.
         13    1    6    6    0    0 -0.10157099397E+02 -0.57886989553E+01  0.63042870509E+02  0.64117698225E+02  0.00000000000E+00 0. -1.
        -14    1    6    6    0    0  0.65814543823E+02  0.18534165524E+02  0.11752291852E+03  0.13596582603E+03  0.00000000000E+00 0.  1.
</event>
<event>
12    1  0.2685360E-002  0.2685176E+03  0.7818608E-02  0.1102131E+00
          2   -1    0    0  502    0  0.00000000000E+00  0.00000000000E+00  0.55486702933E+03  0.55486702933E+03  0.00000000000E+00 0. -1.
         -2   -1    0    0    0  501 -0.00000000000E+00 -0.00000000000E+00 -0.23945767014E+03  0.23945767014E+03  0.00000000000E+00 0.  1.
          6    2    1    2  502    0  0.14911520639E+03 -0.14202642102E+03  0.42626381111E+03  0.50373888351E+03  0.17217774844E+03 0.  0.
         24    2    3    3    0    0  0.85568750919E+02 -0.99146763968E+02  0.13890841368E+03  0.20629639929E+03  0.78170103163E+02 0.  0.
         -6    2    1    2    0  501 -0.14911520639E+03  0.14202642102E+03 -0.11085445193E+03  0.29058581596E+03  0.17246610646E+03 0.  0.
        -24    2    5    5    0    0 -0.94957481809E+02  0.14904349793E+03 -0.12512656510E+03  0.23394588556E+03  0.88561461438E+02 0.  0.
          5    1    3    3  502    0  0.63546455475E+02 -0.42879657054E+02  0.28735539743E+03  0.29744248423E+03  0.47000000000E+01 0. -1.
        -11    1    4    4    0    0  0.92714453311E+02 -0.10469985014E+03  0.13909513139E+03  0.19724473136E+03  0.00000000000E+00 0.  1.
         12    1    4    4    0    0 -0.71457023911E+01  0.55530861765E+01 -0.18671771057E+00  0.90516679264E+01  0.00000000000E+00 0. -1.
         -5    1    5    5    0  501 -0.54157724586E+02 -0.70170769041E+01  0.14272113174E+02  0.56639930394E+02  0.47000000000E+01 0.  1.
         11    1    6    6    0    0  0.15477803705E+02  0.91524324551E+01 -0.39071049719E+01  0.18400948254E+02  0.00000000000E+00 0. -1.
        -12    1    6    6    0    0 -0.11043528551E+03  0.13989106547E+03 -0.12121946013E+03  0.21554493731E+03  0.00000000000E+00 0.  1.
</event>
<event>
12    1  0.2685360E-002  0.2145649E+03  0.7818608E-02  0.1138001E+00
          1   -1    0    0  502    0  0.00000000000E+00  0.00000000000E+00  0.91055236034E+03  0.91055236034E+03  0.00000000000E+00 0. -1.
         -1   -1    0    0    0  501 -0.00000000000E+00 -0.00000000000E+00 -0.78770490309E+02  0.78770490309E+02  0.00000000000E+00 0.  1.
          6    2    1    2  502    0 -0.11670581684E+03 -0.49959848962E+02  0.71269593744E+03  0.74447627954E+03  0.17376189850E+03 0.  0.
         24    2    3    3    0    0 -0.89097050514E+02  0.38835224656E+02  0.38360566013E+03  0.40246851692E+03  0.73356291774E+02 0.  0.
         -6    2    1    2    0  501  0.11670581684E+03  0.49959848962E+02  0.11908593259E+03  0.24484657110E+03  0.17219799606E+03 0.  0.
        -24    2    5    5    0    0  0.11824062997E+03  0.70892497123E+02  0.41055011115E+02  0.16390556718E+03  0.78567985144E+02 0.  0.
          5    1    3    3  502    0 -0.27608766321E+02 -0.88795073618E+02  0.32909027731E+03  0.34200776263E+03  0.47000000000E+01 0. -1.
        -11    1    4    4    0    0 -0.42072238074E+02  0.47780904015E+02  0.13451278853E+03  0.14881793669E+03  0.00000000000E+00 0.  1.
         12    1    4    4    0    0 -0.47024812440E+02 -0.89456793590E+01  0.24909287160E+03  0.25365058022E+03  0.00000000000E+00 0. -1.
         -5    1    5    5    0  501 -0.15348131349E+01 -0.20932648160E+02  0.78030921474E+02  0.80941003925E+02  0.47000000000E+01 0.  1.
         11    1    6    6    0    0  0.75302174832E+02  0.14952346471E+02  0.51741838848E+02  0.92580819216E+02  0.00000000000E+00 0. -1.
        -12    1    6    6    0    0  0.42938455138E+02  0.55940150651E+02 -0.10686827733E+02  0.71324747960E+02  0.00000000000E+00 0.  1.
</event>
<event>
12    1  0.2685360E-002  0.1758328E+03  0.7818608E-02  0.1171898E+00
         -1   -1    0    0    0  501 -0.00000000000E+00  0.00000000000E+00  0.34829366767E+02  0.34829366767E+02  0.00000000000E+00 0.  1.
          1   -1    0    0  502    0  0.00000000000E+00 -0.00000000000E+00 -0.88980577332E+03  0.88980577332E+03  0.00000000000E+00 0. -1.
          6    2    1    2  502    0  0.20756687814E+02 -0.32601220831E+02 -0.44974141702E+03  0.48283731298E+03  0.17137925468E+03 0.  0.
         24    2    3    3    0    0  0.72795782501E+02  0.21718484740E+01 -0.33653334295E+03  0.35339469342E+03  0.79556115684E+02 0.  0.
         -6    2    1    2    0  501 -0.20756687814E+02  0.32601220831E+02 -0.40523498953E+03  0.44179782710E+03  0.17168646891E+03 0.  0.
        -24    2    5    5    0    0 -0.43312872401E+02  0.60164053172E+02 -0.38559942488E+03  0.40085717996E+03  0.80646413695E+02 0.  0.
          5    1    3    3  502    0 -0.52039094687E+02 -0.34773069305E+02 -0.11320807407E+03  0.12944261956E+03  0.47000000000E+01 0. -1.
        -11    1    4    4    0    0  0.39076523057E+02  0.15478458006E+02 -0.53431577600E+02  0.67981547506E+02  0.00000000000E+00 0.  1.
         12    1    4    4    0    0  0.33719259443E+02 -0.13306609532E+02 -0.28310176535E+03  0.28541314591E+03  0.00000000000E+00 0. -1.
         -5    1    5    5    0  501  0.22556184588E+02 -0.27562832341E+02 -0.19635564645E+02  0.40940647146E+02  0.47000000000E+01 0.  1.
         11    1    6    6    0    0 -0.55089710396E+02  0.35499037383E+02 -0.34942593541E+03  0.35551869456E+03  0.00000000000E+00 0. -1.
        -12    1    6    6    0    0  0.11776837995E+02  0.24665015789E+02 -0.36173489474E+02  0.45338485393E+02  0.00000000000E+00 0.  1.
</event>
<event>
12    1  0.2685360E-002  0.2123917E+03  0.7818608E-02  0.1139686E+00
          2   -1    0    0  502    0  0.00000000000E+00  0.00000000000E+00  0.13433697197E+04  0.13433697197E+04  0.00000000000E+00 0. -1.
         -2   -1    0    0    0  501 -0.00000000000E+00 -0.00000000000E+00 -0.50175640122E+02  0.50175640122E+02  0.00000000000E+00 0.  1.
          6    2    1    2  502    0  0.11213909667E+03 -0.56406524781E+02  0.10485451448E+04  0.10699600583E+04  0.17207769343E+03 0.  0.
         24    2    3    3    0    0  0.25429179770E+02 -0.45092846279E+02  0.23503287764E+03  0.25174803940E+03  0.73868896024E+02 0.  0.
         -6    2    1    2    0  501 -0.11213909667E+03  0.56406524781E+02  0.24464893472E+03  0.32358530149E+03  0.17057981429E+03 0.  0.
        -24    2    5    5    0    0 -0.86071261767E+02 -0.10097734060E+01  0.23201707443E+03  0.25910416310E+03  0.76770845790E+02 0.  0.
          5    1    3    3  502    0  0.86709916897E+02 -0.11313678503E+02  0.81351226721E+03  0.81821201892E+03  0.47000000000E+01 0. -1.
        -13    1    4    4    0    0  0.44394264699E+02 -0.10042603728E+02  0.83922224209E+02  0.95470646505E+02  0.00000000000E+00 0.  1.
         14    1    4    4    0    0 -0.18965084929E+02 -0.35050242551E+02  0.15111065343E+03  0.15627739289E+03  0.00000000000E+00 0. -1.
         -5    1    5    5    0  501 -0.26067834900E+02  0.57416298187E+02  0.12631860287E+02  0.64481138391E+02  0.47000000000E+01 0.  1.
         11    1    6    6    0    0  0.79170573404E+01  0.17799223951E+02  0.40219783153E+02  0.44689183557E+02  0.00000000000E+00 0. -1.
        -12    1    6    6    0    0 -0.93988319107E+02 -0.18808997357E+02  0.19179729128E+03  0.21441497954E+03  0.00000000000E+00 0.  1.
</event>
<event>
12    1  0.2685360E-002  0.1754959E+03  0.7818608E-02  0.1172235E+00
         -2   -1    0    0    0  501 -0.00000000000E+00  0.00000000000E+00  0.14624736944E+03  0.14624736944E+03  0.00000000000E+00 0.  1.
          2   -1    0    0  502    0  0.00000000000E+00 -0.00000000000E+00 -0.21649622994E+03  0.21649622994E+03  0.00000000000E+00 0. -1.
          6    2    1    2  502    0  0.36727715340E+02 -0.99182754459E+01 -0.65032457498E+02  0.18697332520E+03  0.17112132113E+03 0.  0.
         24    2    3    3    0    0  0.16633946586E+02 -0.46232911658E+02 -0.97459615474E+02  0.13409494663E+03  0.77903194820E+02 0.  0.
         -6    2    1    2    0  501 -0.36727715340E+02  0.99182754459E+01 -0.52164030055E+01  0.17577027418E+03  0.17152457889E+03 0.  0.
        -24    2    5    5    0    0 -0.74527237874E+02 -0.19156776713E+01  0.39057158507E+02  0.11617929668E+03  0.80088628037E+02 0.  0.
          5    1    3    3  502    0  0.20093768753E+02  0.36314636212E+02  0.32427157977E+02  0.52878378571E+02  0.47000000000E+01 0. -1.
        -11    1    4    4    0    0  0.15374923629E+02 -0.54091842245E+02 -0.25585239185E+02  0.61781228041E+02  0.00000000000E+00 0.  1.
         12    1    4    4    0    0  0.12590229573E+01  0.78589305878E+01 -0.71874376289E+02  0.72313718586E+02  0.00000000000E+00 0. -1.
         -5    1    5    5    0  501  0.37799522534E+02  0.11833953117E+02 -0.44273561513E+02  0.59590977499E+02  0.47000000000E+01 0.  1.
         11    1    6    6    0    0 -0.16558619196E+02  0.47407782926E+01 -0.24468556715E+02  0.29922785903E+02  0.00000000000E+00 0. -1.
        -12    1    6    6    0    0 -0.57968618678E+02 -0.66564559638E+01  0.63525715222E+02  0.86256510780E+02  0.00000000000E+00 0.  1.
</event>
<event>
12    1  0.2685360E-002  0.3211491E+03  0.7818608E-02  0.1075122E+00
         -2   -1    0    0    0  501 -0.00000000000E+00  0.00000000000E+00  0.26111802287E+03  0.26111802287E+03  0.00000000000E+00 0.  1.
          2   -1    0    0  502    0  0.00000000000E+00 -0.00000000000E+00 -0.41457556593E+03  0.41457556593E+03  0.00000000000E+00 0. -1.
          6    2    1    2  502    0  0.80907180850E+02 -0.25840853674E+03 -0.33250796340E+01  0.32136149397E+03  0.17303528508E+03 0.  0.
         24    2    3    3    0    0  0.68850327598E+02 -0.68238597578E+02  0.29034633064E+02  0.12802444508E+03  0.78424325376E+02 0.  0.
         -6    2    1    2    0  501 -0.80907180850E+02  0.25840853674E+03 -0.15013246342E+03  0.35433209483E+03  0.17230941089E+03 0.  0.
        -24    2    5    5    0    0 -0.49664566199E+02  0.22429186287E+03 -0.55906889427E+02  0.24925784870E+03  0.78933427441E+02 0.  0.
          5    1    3    3  502    0  0.12056853252E+02 -0.19016993916E+03 -0.32359712698E+02  0.19333704890E+03  0.47000000000E+01 0. -1.
        -11    1    4    4    0    0  0.29402553967E+02 -0.44355015300E+02  0.53806913503E+02  0.75677351320E+02  0.00000000000E+00 0.  1.
         12    1    4    4    0    0  0.39447773630E+02 -0.23883582277E+02 -0.24772280439E+02  0.52347093758E+02  0.00000000000E+00 0. -1.
         -5    1    5    5    0  501 -0.31242614651E+02  0.34116673870E+02 -0.94225573991E+02  0.10507424613E+03  0.47000000000E+01 0.  1.
         13    1    6    6    0    0 -0.15805844998E+01  0.43430178874E+02 -0.43831622272E+02  0.61724304738E+02  0.00000000000E+00 0. -1.
        -14    1    6    6    0    0 -0.48083981700E+02  0.18086168399E+03 -0.12075267154E+02  0.18753354396E+03  0.00000000000E+00 0.  1.
</event>
<event>
12    1  0.2685360E-002  0.2272977E+03  0.7818608E-02  0.1128556E+00
          1   -1    0    0  502    0  0.00000000000E+00  0.00000000000E+00  0.80829020170E+03  0.80829020170E+03  0.00000000000E+00 0.  1.
         -1   -1    0    0    0  501 -0.00000000000E+00 -0.00000000000E+00 -0.97168164978E+02  0.97168164978E+02  0.00000000000E+00 0. -1.
          6    2    1    2  502    0  0.11483720862E+03  0.99325452700E+02  0.61822037335E+03  0.65796755018E+03  0.16634824020E+03 0.  0.
         24    2    3    3    0    0  0.90038163524E+02  0.40674855766E+01  0.41445265134E+03  0.43162169209E+03  0.80017932684E+02 0.  0.
         -6    2    1    2    0  501 -0.11483720862E+03 -0.99325452700E+02  0.92901663368E+02  0.24749081650E+03  0.17195306091E+03 0.  0.
        -24    2    5    5    0    0 -0.72178739197E+02 -0.24952204231E+02 -0.17670619994E+02  0.10749279884E+03  0.73553165146E+02 0.  0.
          5    1    3    3  502    0  0.24799045095E+02  0.95257967124E+02  0.20376772201E+03  0.22634585809E+03  0.47000000000E+01 0. -1.
        -11    1    4    4    0    0  0.12203771132E+02 -0.31290195182E+02  0.88935250037E+02  0.95065698564E+02  0.00000000000E+00 0.  1.
         12    1    4    4    0    0  0.77834392392E+02  0.35357680759E+02  0.32551740130E+03  0.33655599353E+03  0.00000000000E+00 0. -1.
         -5    1    5    5    0  501 -0.42658469423E+02 -0.74373248470E+02  0.11057228336E+03  0.13999801766E+03  0.47000000000E+01 0.  1.
         13    1    6    6    0    0 -0.20933388600E+02  0.25199213718E+02  0.29272615708E+01  0.32890363188E+02  0.00000000000E+00 0. -1.
        -14    1    6    6    0    0 -0.51245350596E+02 -0.50151417949E+02 -0.20597881565E+02  0.74602435650E+02  0.00000000000E+00 0.  1.
</event>
<event>
12    1  0.2685360E-002  0.2068958E+03  0.7818608E-02  0.1144048E+00
          2   -1    0    0  502    0  0.00000000000E+00  0.00000000000E+00  0.61081249354E+03  0.61081249354E+03  0.00000000000E+00 0. -1.
         -2   -1    0    0    0  501 -0.00000000000E+00 -0.00000000000E+00 -0.10371650820E+03  0.10371650820E+03  0.00000000000E+00 0.  1.
          6    2    1    2  502    0  0.11288306405E+03 -0.85036482050E+01  0.45721194073E+03  0.50194921284E+03  0.17348012954E+03 0.  0.
         24    2    3    3    0    0  0.41017299621E+02  0.16673397534E+01  0.86519376988E+02  0.12418843681E+03  0.79069376837E+02 0.  0.
         -6    2    1    2    0  501 -0.11288306405E+03  0.85036482050E+01  0.49884044615E+02  0.21257978890E+03  0.17287813789E+03 0.  0.
        -24    2    5    5    0    0 -0.44140917082E+02 -0.35928104850E+02 -0.23766637519E+02  0.10237009592E+03  0.81703942378E+02 0.  0.
          5    1    3    3  502    0  0.71865764428E+02 -0.10170987958E+02  0.37069256374E+03  0.37776077603E+03  0.47000000000E+01 0. -1.
        -13    1    4    4    0    0  0.48305352991E+02 -0.26861350631E+02  0.36791687637E+02  0.66397044848E+02  0.00000000000E+00 0.  1.
         14    1    4    4    0    0 -0.72880533699E+01  0.28528690385E+02  0.49727689351E+02  0.57791391964E+02  0.00000000000E+00 0. -1.
         -5    1    5    5    0  501 -0.68742146967E+02  0.44431753055E+02  0.73650682135E+02  0.11020969299E+03  0.47000000000E+01 0.  1.
         11    1    6    6    0    0 -0.13066657016E+02 -0.47581910619E+02  0.14775676383E+02  0.51508216396E+02  0.00000000000E+00 0. -1.
        -12    1    6    6    0    0 -0.31074260067E+02  0.11653805768E+02 -0.38542313902E+02  0.50861879522E+02  0.00000000000E+00 0.  1.
</event>
<event>
12    1  0.2685360E-002  0.3994247E+03  0.7818608E-02  0.1043979E+00
         -2   -1    0    0    0  501 -0.00000000000E+00  0.00000000000E+00  0.12616933114E+03  0.12616933114E+03  0.00000000000E+00 0. -1.
          2   -1    0    0  502    0  0.00000000000E+00 -0.00000000000E+00 -0.16986950977E+04  0.16986950977E+04  0.00000000000E+00 0.  1.
          6    2    1    2  502    0  0.20221069236E+03  0.29825028928E+03 -0.12477793085E+04  0.13101938705E+04  0.17266260818E+03 0.  0.
         24    2    3    3    0    0  0.16966691968E+03  0.30748732374E+03 -0.10837032586E+04  0.11426007319E+04  0.88251696156E+02 0.  0.
         -6    2    1    2    0  501 -0.20221069236E+03 -0.29825028928E+03 -0.32474645803E+03  0.51467055837E+03  0.17199744907E+03 0.  0.
        -24    2    5    5    0    0 -0.11219537537E+03 -0.14082819119E+03 -0.25027799156E+03  0.31857844542E+03  0.80204558094E+02 0.  0.
          5    1    3    3  502    0  0.32543772683E+02 -0.92370344580E+01 -0.16407604992E+03  0.16759313859E+03  0.47000000000E+01 0. -1.
        -13    1    4    4    0    0  0.78403661094E+00  0.28837049800E+02 -0.17243768221E+03  0.17483404817E+03  0.00000000000E+00 0.  1.
         14    1    4    4    0    0  0.16888288307E+03  0.27865027394E+03 -0.91126557640E+03  0.96776668371E+03  0.00000000000E+00 0. -1.
         -5    1    5    5    0  501 -0.90015316990E+02 -0.15742209810E+03 -0.74468466465E+02  0.19609211295E+03  0.47000000000E+01 0.  1.
         13    1    6    6    0    0 -0.53003588035E+02 -0.32226633635E+02 -0.37563452276E+02  0.72518612830E+02  0.00000000000E+00 0. -1.
        -14    1    6    6    0    0 -0.59191787336E+02 -0.10860155755E+03 -0.21271453929E+03  0.24605983259E+03  0.00000000000E+00 0.  1.
</event>
<event>
12    1  0.2685360E-002  0.1803512E+03  0.7818608E-02  0.1167464E+00
          1   -1    0    0  502    0  0.00000000000E+00  0.00000000000E+00  0.80016260695E+03  0.80016260695E+03  0.00000000000E+00 0.  1.
         -1   -1    0    0    0  501 -0.00000000000E+00 -0.00000000000E+00 -0.74131291608E+02  0.74131291608E+02  0.00000000000E+00 0. -1.
          6    2    1    2  502    0 -0.53786626027E+02 -0.16125383910E+02  0.69460941498E+02  0.19345880672E+03  0.17160553126E+03 0.  0.
         24    2    3    3    0    0 -0.48856416499E+02  0.11059969464E+02  0.10962472394E+03  0.14448361071E+03  0.79678487094E+02 0.  0.
         -6    2    1    2    0  501  0.53786626027E+02  0.16125383910E+02  0.65657037384E+03  0.68083509184E+03  0.17116873934E+03 0.  0.
        -24    2    5    5    0    0  0.34251927670E+02 -0.19288857388E+02  0.16431207969E+03  0.18689573211E+03  0.79914332761E+02 0.  0.
          5    1    3    3  502    0 -0.49302095278E+01 -0.27185353374E+02 -0.40163782445E+02  0.48975196011E+02  0.47000000000E+01 0. -1.
        -11    1    4    4    0    0 -0.33067760118E+02 -0.16377037993E+02  0.10645570316E+03  0.11266987560E+03  0.00000000000E+00 0.  1.
         12    1    4    4    0    0 -0.15788656381E+02  0.27437007457E+02  0.31690207804E+01  0.31813735104E+02  0.00000000000E+00 0. -1.
         -5    1    5    5    0  501  0.19534698357E+02  0.35414241298E+02  0.49225829416E+03  0.49393935973E+03  0.47000000000E+01 0.  1.
         13    1    6    6    0    0  0.10387394902E+02 -0.38573274463E+01 -0.70893200959E+01  0.13154292353E+02  0.00000000000E+00 0. -1.
        -14    1    6    6    0    0  0.23864532768E+02 -0.15431529941E+02  0.17140139978E+03  0.17374143976E+03  0.00000000000E+00 0.  1.
</event>
<event>
12    1  0.2685360E-002  0.4982444E+03  0.7818608E-02  0.1014238E+00
          2   -1    0    0  502    0  0.00000000000E+00  0.00000000000E+00  0.43931260417E+04  0.43931260417E+04  0.00000000000E+00 0.  1.
         -2   -1    0    0    0  501 -0.00000000000E+00 -0.00000000000E+00 -0.70954215957E+02  0.70954215957E+02  0.00000000000E+00 0. -1.
          6    2    1    2  502    0 -0.38699468620E+03 -0.26127561997E+03  0.31656030401E+04  0.32044558955E+04  0.17165413315E+03 0.  0.
         24    2    3    3    0    0 -0.33663351215E+03 -0.17512058146E+03  0.22257267601E+04  0.22592847732E+04  0.80738691769E+02 0.  0.
         -6    2    1    2    0  501  0.38699468620E+03  0.26127561997E+03  0.11565687856E+04  0.12596243622E+04  0.17598960562E+03 0.  0.
        -24    2    5    5    0    0  0.19640365413E+03  0.10942284006E+03  0.47444839362E+03  0.53526635166E+03  0.10421629303E+03 0.  0.
          5    1    3    3  502    0 -0.50361174050E+02 -0.86155038508E+02  0.93987628005E+03  0.94517112223E+03  0.47000000000E+01 0. -1.
        -13    1    4    4    0    0 -0.59300217759E+02 -0.62364575848E+02  0.61222977597E+03  0.61824845712E+03  0.00000000000E+00 0.  1.
         14    1    4    4    0    0 -0.27733329440E+03 -0.11275600562E+03  0.16134969841E+04  0.16410363161E+04  0.00000000000E+00 0. -1.
         -5    1    5    5    0  501  0.19059103207E+03  0.15185277992E+03  0.68212039202E+03  0.72435801057E+03  0.47000000000E+01 0.  1.
         13    1    6    6    0    0  0.20551981563E+03  0.10406375080E+03  0.47069842696E+03  0.52404643687E+03  0.00000000000E+00 0. -1.
        -14    1    6    6    0    0 -0.91161614981E+01  0.53590892545E+01  0.37499666545E+01  0.11219914795E+02  0.00000000000E+00 0.  1.
</event>
<event>
12    1  0.2685360E-002  0.1967826E+03  0.7818608E-02  0.1152482E+00
          2   -1    0    0  502    0  0.00000000000E+00  0.00000000000E+00  0.13815997437E+04  0.13815997437E+04  0.00000000000E+00 0.  1.
         -2   -1    0    0    0  501 -0.00000000000E+00 -0.00000000000E+00 -0.28078843639E+02  0.28078843639E+02  0.00000000000E+00 0. -1.
          6    2    1    2  502    0  0.33480370261E+02 -0.89904942184E+02  0.64653620170E+03  0.67580184127E+03  0.17174176758E+03 0.  0.
         24    2    3    3    0    0 -0.34665269420E+02 -0.60442782631E+02  0.50199829394E+03  0.51324371680E+03  0.81005029674E+02 0.  0.
         -6    2    1    2    0  501 -0.33480370261E+02  0.89904942184E+02  0.70698469838E+03  0.73387674609E+03  0.17188333510E+03 0.  0.
        -24    2    5    5    0    0  0.45885914115E+02  0.52591981239E+02  0.48395250036E+03  0.49417544133E+03  0.71609430972E+02 0.  0.
          5    1    3    3  502    0  0.68145639681E+02 -0.29462159553E+02  0.14453790776E+03  0.16255812447E+03  0.47000000000E+01 0. -1.
        -13    1    4    4    0    0 -0.19949509915E+02 -0.11770826299E+02  0.27182659867E+02  0.35713194972E+02  0.00000000000E+00 0.  1.
         14    1    4    4    0    0 -0.14715759505E+02 -0.48671956332E+02  0.47481563408E+03  0.47753052182E+03  0.00000000000E+00 0. -1.
         -5    1    5    5    0  501 -0.79366284376E+02  0.37312960945E+02  0.22303219802E+03  0.23970130476E+03  0.47000000000E+01 0.  1.
         13    1    6    6    0    0  0.50560689007E+01 -0.13982552109E+02  0.29221644342E+02  0.32786889061E+02  0.00000000000E+00 0. -1.
        -14    1    6    6    0    0  0.40829845214E+02  0.66574533348E+02  0.45473085602E+03  0.46138855227E+03  0.00000000000E+00 0.  1.
</event>
<event>
12    1  0.2685360E-002  0.2497073E+03  0.7818608E-02  0.1113490E+00
         -2   -1    0    0    0  501 -0.00000000000E+00  0.00000000000E+00  0.19907248627E+03  0.19907248627E+03  0.00000000000E+00 0. -1.
          2   -1    0    0  502    0  0.00000000000E+00 -0.00000000000E+00 -0.15742365624E+04  0.15742365624E+04  0.00000000000E+00 0.  1.
          6    2    1    2  502    0  0.17927980136E+03  0.27107015524E+02  0.10605559135E+03  0.27116505180E+03  0.17148370008E+03 0.  0.
         24    2    3    3    0    0  0.83126823799E+02  0.71138639893E+02  0.93648249963E+02  0.16458076047E+03  0.79662143292E+02 0.  0.
         -6    2    1    2    0  501 -0.17927980136E+03 -0.27107015524E+02 -0.14812196674E+04  0.15021439968E+04  0.17189777934E+03 0.  0.
        -24    2    5    5    0    0 -0.18761476234E+03 -0.57113119623E+02 -0.13851689503E+04  0.14010615151E+04  0.76283291916E+02 0.  0.
          5    1    3    3  502    0  0.96152977563E+02 -0.44031624369E+02  0.12407341386E+02  0.10658429133E+03  0.47000000000E+01 0. -1.
        -13    1    4    4    0    0 -0.10696415524E+02  0.31365865575E+02  0.27761170472E+02  0.43230931222E+02  0.00000000000E+00 0.  1.
         14    1    4    4    0    0  0.93823239322E+02  0.39772774318E+02  0.65887079492E+02  0.12134982924E+03  0.00000000000E+00 0. -1.
         -5    1    5    5    0  501  0.83349609815E+01  0.30006104100E+02 -0.96050717099E+02  0.10108248173E+03  0.47000000000E+01 0.  1.
         13    1    6    6    0    0 -0.12696022796E+02 -0.66725821402E+01 -0.25476805422E+02  0.29236620218E+02  0.00000000000E+00 0. -1.
        -14    1    6    6    0    0 -0.17491873955E+03 -0.50440537483E+02 -0.13596921449E+04  0.13718248949E+04  0.00000000000E+00 0.  1.
</event>
<event>
12    1  0.2685360E-002  0.2021388E+03  0.7818608E-02  0.1147947E+00
         -2   -1    0    0    0  501 -0.00000000000E+00  0.00000000000E+00  0.15259930151E+03  0.15259930151E+03  0.00000000000E+00 0.  1.
          2   -1    0    0  502    0  0.00000000000E+00 -0.00000000000E+00 -0.40450133936E+03  0.40450133936E+03  0.00000000000E+00 0. -1.
          6    2    1    2  502    0  0.42857812312E+02 -0.10042151962E+03 -0.28735908492E+03  0.35058804724E+03  0.16856886281E+03 0.  0.
         24    2    3    3    0    0  0.11287141152E+02 -0.12449791758E+03 -0.25761829183E+03  0.30075848784E+03  0.91985611316E+02 0.  0.
         -6    2    1    2    0  501 -0.42857812312E+02  0.10042151962E+03  0.35457047067E+02  0.20651259363E+03  0.17166530069E+03 0.  0.
        -24    2    5    5    0    0 -0.18915442925E+02  0.58769010782E+01 -0.31303666516E+02  0.88229015630E+02  0.80075637458E+02 0.  0.
          5    1    3    3  502    0  0.31570671160E+02  0.24076397965E+02 -0.29740793091E+02  0.49829559401E+02  0.47000000000E+01 0. -1.
        -11    1    4    4    0    0  0.38055238378E+02 -0.41987169240E+02 -0.49334318655E+02  0.75133205349E+02  0.00000000000E+00 0.  1.
         12    1    4    4    0    0 -0.26768097226E+02 -0.82510748341E+02 -0.20828397317E+03  0.22562528249E+03  0.00000000000E+00 0. -1.
         -5    1    5    5    0  501 -0.23942369387E+02  0.94544618537E+02  0.66760713583E+02  0.11828357800E+03  0.47000000000E+01 0.  1.
         13    1    6    6    0    0 -0.36660796959E+02  0.11198445426E+02 -0.49267549125E+02  0.62423638235E+02  0.00000000000E+00 0. -1.
        -14    1    6    6    0    0  0.17745354035E+02 -0.53215443482E+01  0.17963882610E+02  0.25805377395E+02  0.00000000000E+00 0.  1.
</event>
<event>
12    1  0.2685360E-002  0.3025058E+03  0.7818608E-02  0.1083995E+00
         -2   -1    0    0    0  501 -0.00000000000E+00  0.00000000000E+00  0.97694257389E+02  0.97694257389E+02  0.00000000000E+00 0. -1.
          2   -1    0    0  502    0  0.00000000000E+00 -0.00000000000E+00 -0.10530130838E+04  0.10530130838E+04  0.00000000000E+00 0.  1.
          6    2    1    2  502    0 -0.11099322400E+03 -0.22178527311E+03 -0.66982543709E+03  0.73524470317E+03  0.17438593471E+03 0.  0.
         24    2    3    3    0    0 -0.54939308833E+02 -0.56821822478E+02 -0.38451120399E+03  0.40090762317E+03  0.81431008596E+02 0.  0.
         -6    2    1    2    0  501  0.11099322400E+03  0.22178527311E+03 -0.28549338937E+03  0.41546263806E+03  0.17203059353E+03 0.  0.
        -24    2    5    5    0    0 -0.40924287258E+01  0.69980752762E+02 -0.50980499847E+02  0.11329098947E+03  0.72950553121E+02 0.  0.
          5    1    3    3  502    0 -0.56053915168E+02 -0.16496345063E+03 -0.28531423310E+03  0.33433707999E+03  0.47000000000E+01 0. -1.
        -11    1    4    4    0    0 -0.16655405960E+02  0.19844886708E+02 -0.61764437564E+02  0.66978114513E+02  0.00000000000E+00 0.  1.
         12    1    4    4    0    0 -0.38283902873E+02 -0.76666709186E+02 -0.32274676642E+03  0.33392950866E+03  0.00000000000E+00 0. -1.
         -5    1    5    5    0  501  0.11508565273E+03  0.15180452035E+03 -0.23451288952E+03  0.30217164859E+03  0.47000000000E+01 0.  1.
         11    1    6    6    0    0 -0.26369609098E+02  0.23211794156E+02 -0.50460279310E+02  0.61484823005E+02  0.00000000000E+00 0. -1.
        -12    1    6    6    0    0  0.22277180372E+02  0.46768958606E+02 -0.52022053636E+00  0.51806166465E+02  0.00000000000E+00 0.  1.
</event>
<event>
12    1  0.2685360E-002  0.1819571E+03  0.7818608E-02  0.1165922E+00
          2   -1    0    0  502    0  0.00000000000E+00  0.00000000000E+00  0.58356720901E+03  0.58356720901E+03  0.00000000000E+00 0. -1.
         -2   -1    0    0    0  501 -0.00000000000E+00 -0.00000000000E+00 -0.58464794542E+02  0.58464794542E+02  0.00000000000E+00 0.  1.
          6    2    1    2  502    0  0.56818197735E+02  0.43537612098E+02  0.21695559859E+03  0.28719265722E+03  0.17402890375E+03 0.  0.
         24    2    3    3    0    0  0.60724000155E+02  0.78674770082E+02  0.95242011985E+02  0.16036142160E+03  0.82265552016E+02 0.  0.
         -6    2    1    2    0  501 -0.56818197735E+02 -0.43537612098E+02  0.30814681587E+03  0.35483934633E+03  0.16072545010E+03 0.  0.
        -24    2    5    5    0    0 -0.59311005992E+02  0.25707648505E+02  0.14892534258E+03  0.18113071740E+03  0.80317498083E+02 0.  0.
          5    1    3    3  502    0 -0.39058024196E+01 -0.35137157984E+02  0.12171358661E+03  0.12683123562E+03  0.47000000000E+01 0. -1.
        -11    1    4    4    0    0 -0.16155431079E+02  0.16398190240E+02 -0.15404592335E-01  0.23019531572E+02  0.00000000000E+00 0.  1.
         12    1    4    4    0    0  0.76879431234E+02  0.62276579842E+02  0.95257416577E+02  0.13734189003E+03  0.00000000000E+00 0. -1.
         -5    1    5    5    0  501  0.24928082570E+01 -0.69245260603E+02  0.15922147329E+03  0.17370862893E+03  0.47000000000E+01 0.  1.
         11    1    6    6    0    0  0.32322662534E+01 -0.84364708164E+01  0.84765329851E+02  0.85245426445E+02  0.00000000000E+00 0. -1.
        -12    1    6    6    0    0 -0.62543272245E+02  0.34144119321E+02  0.64160012730E+02  0.95885290952E+02  0.00000000000E+00 0.  1.
</event>
<event>
12    1  0.2685360E-002  0.1790703E+03  0.7818608E-02  0.1168706E+00
          1   -1    0    0  502    0  0.00000000000E+00  0.00000000000E+00  0.18285370042E+04  0.18285370042E+04  0.00000000000E+00 0.  1.
         -1   -1    0    0    0  501 -0.00000000000E+00 -0.00000000000E+00 -0.28692744308E+02  0.28692744308E+02  0.00000000000E+00 0. -1.
          6    2    1    2  502    0  0.10654407152E+02  0.50997808523E+02  0.32128069740E+03  0.36787754080E+03  0.17145934107E+03 0.  0.
         24    2    3    3    0    0 -0.55656832993E+02  0.34592709588E+01  0.18405399446E+03  0.20815793924E+03  0.79650519005E+02 0.  0.
         -6    2    1    2    0  501 -0.10654407152E+02 -0.50997808523E+02  0.14785635625E+04  0.14893522077E+04  0.17118848502E+03 0.  0.
        -24    2    5    5    0    0 -0.25288738120E+02 -0.47174612437E+02  0.14660888320E+04  0.14691906261E+04  0.78991570956E+02 0.  0.
          5    1    3    3  502    0  0.66311240145E+02  0.47538537564E+02  0.13722670294E+03  0.15971960156E+03  0.47000000000E+01 0. -1.
        -11    1    4    4    0    0  0.15808212824E+02 -0.15733803296E+02  0.55729529383E+02  0.60026932323E+02  0.00000000000E+00 0.  1.
         12    1    4    4    0    0 -0.71465045818E+02  0.19193074255E+02  0.12832446508E+03  0.14813100692E+03  0.00000000000E+00 0. -1.
         -5    1    5    5    0  501  0.14634330969E+02 -0.38231960855E+01  0.12474730542E+02  0.20161581617E+02  0.47000000000E+01 0.  1.
         13    1    6    6    0    0 -0.27423619730E+02 -0.51947762931E+02  0.55739801899E+03  0.56048476926E+03  0.00000000000E+00 0. -1.
        -14    1    6    6    0    0  0.21348816100E+01  0.47731504934E+01  0.90869081297E+03  0.90870585684E+03  0.00000000000E+00 0.  1.
</event>
<event>
12    1  0.2685360E-002  0.2112320E+03  0.7818608E-02  0.1140594E+00
         -2   -1    0    0    0  501 -0.00000000000E+00  0.00000000000E+00  0.24179345302E+03  0.24179345302E+03  0.00000000000E+00 0. -1.
          2   -1    0    0  502    0  0.00000000000E+00 -0.00000000000E+00 -0.19302472157E+03  0.19302472157E+03  0.00000000000E+00 0.  1.
          6    2    1    2  502    0  0.11131084106E+03 -0.28697864292E+02 -0.21472979473E+02  0.20823577190E+03  0.17230025276E+03 0.  0.
         24    2    3    3    0    0  0.92662997448E+02  0.65496096203E+01 -0.73114003764E+02  0.14282161534E+03  0.80143794394E+02 0.  0.
         -6    2    1    2    0  501 -0.11131084106E+03  0.28697864292E+02  0.70241710924E+02  0.22658240270E+03  0.18218676271E+03 0.  0.
        -24    2    5    5    0    0 -0.17961124388E+02 -0.37971990822E+02 -0.18783951233E+01  0.91000549638E+02  0.80703764410E+02 0.  0.
          5    1    3    3  502    0  0.18647843609E+02 -0.35247473912E+02  0.51641024291E+02  0.65414156559E+02  0.47000000000E+01 0. -1.
        -11    1    4    4    0    0  0.61917167941E+02  0.42255346356E+02 -0.37900645179E+02  0.83998267163E+02  0.00000000000E+00 0.  1.
         12    1    4    4    0    0  0.30745829507E+02 -0.35705736736E+02 -0.35213358586E+02  0.58823348177E+02  0.00000000000E+00 0. -1.
         -5    1    5    5    0  501 -0.93349716669E+02  0.66669855114E+02  0.72120106047E+02  0.13558185306E+03  0.47000000000E+01 0.  1.
         13    1    6    6    0    0 -0.47590405010E+02 -0.74879277125E+01 -0.46479483464E+01  0.48399577831E+02  0.00000000000E+00 0. -1.
        -14    1    6    6    0    0  0.29629280622E+02 -0.30484063109E+02  0.27695532231E+01  0.42600971806E+02  0.00000000000E+00 0.  1.
</event>
<event>
12    1  0.2685360E-002  0.2078171E+03  0.7818608E-02  0.1143306E+00
         -2   -1    0    0    0  501 -0.00000000000E+00  0.00000000000E+00  0.13313604373E+03  0.13313604373E+03  0.00000000000E+00 0.  1.
          2   -1    0    0  502    0  0.00000000000E+00 -0.00000000000E+00 -0.34997407236E+03  0.34997407236E+03  0.00000000000E+00 0. -1.
          6    2    1    2  502    0  0.10940000722E+03  0.28873230313E+02 -0.41991827075E+02  0.20964552738E+03  0.17142318572E+03 0.  0.
         24    2    3    3    0    0  0.27087989796E+02 -0.17254372249E+02  0.29322862970E+02  0.91277884224E+02  0.80251786913E+02 0.  0.
         -6    2    1    2    0  501 -0.10940000722E+03 -0.28873230313E+02 -0.17484620155E+03  0.27346458871E+03  0.17722771249E+03 0.  0.
        -24    2    5    5    0    0 -0.12285205034E+03 -0.31857719432E+01 -0.18994225718E+03  0.24043757133E+03  0.81421061347E+02 0.  0.
          5    1    3    3  502    0  0.82312017420E+02  0.46127602561E+02 -0.71314690046E+02  0.11836764316E+03  0.47000000000E+01 0. -1.
        -13    1    4    4    0    0  0.28795689013E+02 -0.44414596326E+02  0.23847739282E+01  0.52986179511E+02  0.00000000000E+00 0.  1.
         14    1    4    4    0    0 -0.17076992174E+01  0.27160224077E+02  0.26938089042E+02  0.38291704712E+02  0.00000000000E+00 0. -1.
         -5    1    5    5    0  501  0.13452043126E+02 -0.25687458370E+02  0.15096055621E+02  0.33027017381E+02  0.47000000000E+01 0.  1.
         11    1    6    6    0    0  0.63943429420E+00  0.99581333910E+01 -0.59503224142E+02  0.60334127823E+02  0.00000000000E+00 0. -1.
        -12    1    6    6    0    0 -0.12349148464E+03 -0.13143905334E+02 -0.13043903303E+03  0.18010344351E+03  0.00000000000E+00 0.  1.
</event>
<event>
12    1  0.2685360E-002  0.2322907E+03  0.7818608E-02  0.1125038E+00
          1   -1    0    0  502    0  0.00000000000E+00  0.00000000000E+00  0.21894781678E+03  0.21894781678E+03  0.00000000000E+00 0.  1.
         -1   -1    0    0    0  501 -0.00000000000E+00 -0.00000000000E+00 -0.24652301677E+03  0.24652301677E+03  0.00000000000E+00 0. -1.
          6    2    1    2  502    0 -0.97101710543E+02  0.11813082446E+03 -0.10367043534E+02  0.23008657779E+03  0.17160630469E+03 0.  0.
         24    2    3    3    0    0 -0.22072622589E+02  0.10915776674E+03 -0.50112412708E+02  0.14457830816E+03  0.77388723833E+02 0.  0.
         -6    2    1    2    0  501  0.97101710543E+02 -0.11813082446E+03 -0.17208156455E+02  0.23538425575E+03  0.17811791973E+03 0.  0.
        -24    2    5    5    0    0 -0.98903837293E+01 -0.17049366989E+02 -0.28356733823E+02  0.87698271112E+02  0.80612541195E+02 0.  0.
          5    1    3    3  502    0 -0.75029087954E+02  0.89730577278E+01  0.39745369174E+02  0.85508269629E+02  0.47000000000E+01 0. -1.
        -13    1    4    4    0    0 -0.42874957665E+02  0.98942754229E+02 -0.25569950910E+02  0.11082307070E+03  0.00000000000E+00 0.  1.
         14    1    4    4    0    0  0.20802335076E+02  0.10215012507E+02 -0.24542461798E+02  0.33755237464E+02  0.00000000000E+00 0. -1.
         -5    1    5    5    0  501  0.10699209427E+03 -0.10108145747E+03  0.11148577368E+02  0.14768598464E+03  0.47000000000E+01 0.  1.
         13    1    6    6    0    0 -0.41511115211E+01  0.31512900582E+02 -0.12998334269E+01  0.31811699057E+02  0.00000000000E+00 0. -1.
        -14    1    6    6    0    0 -0.57392722081E+01 -0.48562267571E+02 -0.27056900396E+02  0.55886572056E+02  0.00000000000E+00 0.  1.
</event>
<event>
12    1  0.2685360E-002  0.2348807E+03  0.7818608E-02  0.1123251E+00
          4   -1    0    0  502    0  0.00000000000E+00  0.00000000000E+00  0.98321999247E+02  0.98321999247E+02  0.00000000000E+00 0. -1.
         -4   -1    0    0    0  501 -0.00000000000E+00 -0.00000000000E+00 -0.59057559354E+03  0.59057559354E+03  0.00000000000E+00 0.  1.
          6    2    1    2  502    0  0.15501844744E+03  0.60521469177E+01 -0.32598499906E+03  0.40359594928E+03  0.18043315419E+03 0.  0.
         24    2    3    3    0    0  0.80467496520E+02  0.20347242357E+02 -0.30281817945E+03  0.32409132320E+03  0.80295128755E+02 0.  0.
         -6    2    1    2    0  501 -0.15501844744E+03 -0.60521469177E+01 -0.16626859523E+03  0.28530164351E+03  0.17229171338E+03 0.  0.
        -24    2    5    5    0    0 -0.12305021656E+03  0.56082131521E+02 -0.13985524485E+03  0.21045251912E+03  0.80275849557E+02 0.  0.
          5    1    3    3  502    0  0.74550950920E+02 -0.14295095440E+02 -0.23166819613E+02  0.79504626077E+02  0.47000000000E+01 0. -1.
        -13    1    4    4    0    0  0.79870637976E+02  0.37504135133E+02 -0.18427378041E+03  0.20431031572E+03  0.00000000000E+00 0.  1.
         14    1    4    4    0    0  0.59685854444E+00 -0.17156892776E+02 -0.11854439904E+03  0.11978100748E+03  0.00000000000E+00 0. -1.
         -5    1    5    5    0  501 -0.31968230880E+02 -0.62134278439E+02 -0.26413350384E+02  0.74849124385E+02  0.47000000000E+01 0.  1.
         11    1    6    6    0    0 -0.46583356587E+02 -0.17388010272E+02 -0.58636314890E+02  0.76880227861E+02  0.00000000000E+00 0. -1.
        -12    1    6    6    0    0 -0.76466859973E+02  0.73470141793E+02 -0.81218929956E+02  0.13357229126E+03  0.00000000000E+00 0.  1.
</event>
<event>
12    1  0.2685360E-002  0.1937564E+03  0.7818608E-02  0.1155116E+00
          2   -1    0    0  502    0  0.00000000000E+00  0.00000000000E+00  0.76606792325E+03  0.76606792325E+03  0.00000000000E+00 0. -1.
         -2   -1    0    0    0  501 -0.00000000000E+00 -0.00000000000E+00 -0.83142671015E+02  0.83142671015E+02  0.00000000000E+00 0.  1.
          6    2    1    2  502    0  0.45905614569E+02  0.79635727337E+02  0.73369691112E+02  0.21071211181E+03  0.17483508793E+03 0.  0.
         24    2    3    3    0    0  0.99601606920E+02  0.66584186202E+02  0.70337284316E+02  0.15517034544E+03  0.69112723750E+02 0.  0.
         -6    2    1    2    0  501 -0.45905614569E+02 -0.79635727337E+02  0.60955556113E+03  0.63849848246E+03  0.16635250371E+03 0.  0.
        -24    2    5    5    0    0 -0.54363768235E+01 -0.84356354537E+01  0.47133694660E+03  0.47776986743E+03  0.77490740469E+02 0.  0.
          5    1    3    3  502    0 -0.53695992351E+02  0.13051541135E+02  0.30324067961E+01  0.55541766370E+02  0.47000000000E+01 0. -1.
        -13    1    4    4    0    0  0.84336585015E+02  0.25816689598E+02  0.23604365896E+02  0.91303489107E+02  0.00000000000E+00 0.  1.
         14    1    4    4    0    0  0.15265021905E+02  0.40767496604E+02  0.46732918421E+02  0.63866856328E+02  0.00000000000E+00 0. -1.
         -5    1    5    5    0  501 -0.40469237746E+02 -0.71200091884E+02  0.13821861453E+03  0.16072861503E+03  0.47000000000E+01 0.  1.
         11    1    6    6    0    0 -0.34302036672E+02 -0.17794407719E+02  0.14622710478E+03  0.15124693993E+03  0.00000000000E+00 0. -1.
        -12    1    6    6    0    0  0.28865659849E+02  0.93587722655E+01  0.32510984182E+03  0.32652292750E+03  0.00000000000E+00 0.  1.
</event>
<event>
12    1  0.2685360E-002  0.2723892E+03  0.7818608E-02  0.1099920E+00
         -1   -1    0    0    0  501 -0.00000000000E+00  0.00000000000E+00  0.34512093623E+03  0.34512093623E+03  0.00000000000E+00 0. -1.
          1   -1    0    0  502    0  0.00000000000E+00 -0.00000000000E+00 -0.23723132191E+03  0.23723132191E+03  0.00000000000E+00 0.  1.
          6    2    1    2  502    0  0.23680229558E+02 -0.20973511995E+03  0.14310132410E+03  0.30764624735E+03  0.17210069941E+03 0.  0.
         24    2    3    3    0    0  0.20356568920E+02 -0.16865610060E+03  0.33579362004E+02  0.19053227409E+03  0.79471402096E+02 0.  0.
         -6    2    1    2    0  501 -0.23680229558E+02  0.20973511995E+03 -0.35211709775E+02  0.27470601080E+03  0.17226129586E+03 0.  0.
        -24    2    5    5    0    0 -0.28705489935E+01  0.24845502170E+02 -0.42964592876E+02  0.88428232292E+02  0.73130410882E+02 0.  0.
          5    1    3    3  502    0  0.33236606385E+01 -0.41079019350E+02  0.10952196209E+03  0.11711397325E+03  0.47000000000E+01 0. -1.
        -13    1    4    4    0    0  0.22953923765E+02 -0.12333347634E+03 -0.12221273436E+02  0.12604518447E+03  0.00000000000E+00 0.  1.
         14    1    4    4    0    0 -0.25973548450E+01 -0.45322624256E+02  0.45800635440E+02  0.64487089626E+02  0.00000000000E+00 0. -1.
         -5    1    5    5    0  501 -0.20809680565E+02  0.18488961778E+03  0.77528831007E+01  0.18627777850E+03  0.47000000000E+01 0.  1.
         13    1    6    6    0    0  0.28862835948E+02 -0.64185734262E+01 -0.29792493181E+02  0.41974445008E+02  0.00000000000E+00 0. -1.
        -14    1    6    6    0    0 -0.31733384941E+02  0.31264075596E+02 -0.13172099695E+02  0.46453787285E+02  0.00000000000E+00 0.  1.
</event>
<event>
12    1  0.2685360E-002  0.1735384E+03  0.7818608E-02  0.1174207E+00
          1   -1    0    0  502    0  0.00000000000E+00  0.00000000000E+00  0.29355293905E+03  0.29355293905E+03  0.00000000000E+00 0.  1.
         -1   -1    0    0    0  501 -0.00000000000E+00 -0.00000000000E+00 -0.12218510182E+03  0.12218510182E+03  0.00000000000E+00 0. -1.
          6    2    1    2  502    0  0.24676017174E+02 -0.47051723057E+01  0.16900952106E+03  0.24238015234E+03  0.17190949819E+03 0.  0.
         24    2    3    3    0    0  0.27501103237E+02 -0.53708715351E+02  0.48640538580E+02  0.11230282808E+03  0.81271682752E+02 0.  0.
         -6    2    1    2    0  501 -0.24676017174E+02  0.47051723057E+01  0.23583161729E+01  0.17335788853E+03  0.17151195699E+03 0.  0.
        -24    2    5    5    0    0  0.40606001175E+02 -0.35214525312E+02 -0.45060987556E+01  0.96386891589E+02  0.79882525121E+02 0.  0.
          5    1    3    3  502    0 -0.28250860631E+01  0.49003543046E+02  0.12036898248E+03  0.13007732426E+03  0.47000000000E+01 0. -1.
        -13    1    4    4    0    0 -0.27439423068E+02 -0.31516989533E+02  0.16821421609E+02  0.45046673490E+02  0.00000000000E+00 0.  1.
         14    1    4    4    0    0  0.54940526305E+02 -0.22191725818E+02  0.31819116971E+02  0.67256154590E+02  0.00000000000E+00 0. -1.
         -5    1    5    5    0  501 -0.65282018349E+02  0.39919697618E+02  0.68644149284E+01  0.76970996940E+02  0.47000000000E+01 0.  1.
         13    1    6    6    0    0 -0.10656931338E+02 -0.42330494674E+02 -0.85272001593E+01  0.44476444411E+02  0.00000000000E+00 0. -1.
        -14    1    6    6    0    0  0.51262932513E+02  0.71159693612E+01  0.40211014038E+01  0.51910447179E+02  0.00000000000E+00 0.  1.
</event>
<event>
12    1  0.2685360E-002  0.3506052E+03  0.7818608E-02  0.1062367E+00
          2   -1    0    0  502    0  0.00000000000E+00  0.00000000000E+00  0.21524835242E+04  0.21524835242E+04  0.00000000000E+00 0. -1.
         -2   -1    0    0    0  501 -0.00000000000E+00 -0.00000000000E+00 -0.57193098934E+02  0.57193098934E+02  0.00000000000E+00 0.  1.
          6    2    1    2  502    0 -0.28921625383E+03  0.99088225224E+02  0.10908903493E+04  0.11459120852E+04  0.17207043624E+03 0.  0.
         24    2    3    3    0    0 -0.68492257877E+02  0.28214740599E+02  0.47462495769E+03  0.48746903067E+03  0.82885127844E+02 0.  0.
         -6    2    1    2    0  501  0.28921625383E+03 -0.99088225224E+02  0.10044000760E+04  0.10637645380E+04  0.17120444400E+03 0.  0.
        -24    2    5    5    0    0  0.85406545006E+02 -0.86047327607E+02  0.39708591203E+03  0.42301416050E+03  0.81026772957E+02 0.  0.
          5    1    3    3  502    0 -0.22072399595E+03  0.70873484626E+02  0.61626539159E+03  0.65844305455E+03  0.47000000000E+01 0. -1.
        -13    1    4    4    0    0 -0.45653239704E+02 -0.33032918061E+01  0.90889385726E+02  0.10176448531E+03  0.00000000000E+00 0.  1.
         14    1    4    4    0    0 -0.22839018173E+02  0.31518032405E+02  0.38373557197E+03  0.38570454536E+03  0.00000000000E+00 0. -1.
         -5    1    5    5    0  501  0.20380970882E+03 -0.13040897617E+02  0.60731416400E+03  0.64075037746E+03  0.47000000000E+01 0.  1.
         11    1    6    6    0    0  0.57688863056E+02 -0.83924269063E+02  0.20473708335E+03  0.22866692187E+03  0.00000000000E+00 0. -1.
        -12    1    6    6    0    0  0.27717681950E+02 -0.21230585445E+01  0.19234882868E+03  0.19434723864E+03  0.00000000000E+00 0.  1.
</event>
<event>
12    1  0.2685360E-002  0.3520584E+03  0.7818608E-02  0.1061773E+00
         -2   -1    0    0    0  501 -0.00000000000E+00  0.00000000000E+00  0.46116753232E+02  0.46116753232E+02  0.00000000000E+00 0.  1.
          2   -1    0    0  502    0  0.00000000000E+00 -0.00000000000E+00 -0.28739034127E+04  0.28739034127E+04  0.00000000000E+00 0. -1.
          6    2    1    2  502    0  0.13130901104E+03 -0.27861731095E+03 -0.17824493773E+04  0.18167241839E+04  0.16879370703E+03 0.  0.
         24    2    3    3    0    0  0.99656272300E+02 -0.17557584655E+03 -0.81415970664E+03  0.84244167072E+03  0.78062091655E+02 0.  0.
         -6    2    1    2    0  501 -0.13130901104E+03  0.27861731095E+03 -0.10453372822E+04  0.11032959820E+04  0.17222754732E+03 0.  0.
        -24    2    5    5    0    0 -0.68967230527E+02  0.22926173430E+03 -0.59752802757E+03  0.64845789097E+03  0.78361156991E+02 0.  0.
          5    1    3    3  502    0  0.31652738745E+02 -0.10304146440E+03 -0.96828967063E+03  0.97428251319E+03  0.47000000000E+01 0. -1.
        -11    1    4    4    0    0  0.28065807130E+02 -0.10613769352E+02 -0.59317116714E+02  0.66474521171E+02  0.00000000000E+00 0.  1.
         12    1    4    4    0    0  0.71590465170E+02 -0.16496207719E+03 -0.75484258993E+03  0.77596714955E+03  0.00000000000E+00 0. -1.
         -5    1    5    5    0  501 -0.62341780517E+02  0.49355576642E+02 -0.44780925464E+03  0.45483809106E+03  0.47000000000E+01 0.  1.
         13    1    6    6    0    0  0.34446540009E+01  0.43987050096E+02 -0.54373332451E+02  0.70022749869E+02  0.00000000000E+00 0. -1.
        -14    1    6    6    0    0 -0.72411884528E+02  0.18527468421E+03 -0.54315469512E+03  0.57843514110E+03  0.00000000000E+00 0.  1.
</event>
<event>
12    1  0.2685360E-002  0.2167344E+03  0.7818608E-02  0.1136341E+00
         -3   -1    0    0    0  501 -0.00000000000E+00  0.00000000000E+00  0.86276110678E+02  0.86276110678E+02  0.00000000000E+00 0.  1.
          3   -1    0    0  502    0  0.00000000000E+00 -0.00000000000E+00 -0.66421583444E+03  0.66421583444E+03  0.00000000000E+00 0. -1.
          6    2    1    2  502    0  0.12974307001E+03 -0.20343903033E+02 -0.44821874994E+03  0.49783499659E+03  0.17231511082E+03 0.  0.
         24    2    3    3    0    0  0.32395600416E+02  0.42659225457E+02 -0.16260988873E+03  0.18954870815E+03  0.81347725255E+02 0.  0.
         -6    2    1    2    0  501 -0.12974307001E+03  0.20343903033E+02 -0.12972097381E+03  0.25265694853E+03  0.17251337335E+03 0.  0.
        -24    2    5    5    0    0 -0.13289011967E+03  0.65871428963E+02 -0.85266437812E+02  0.18877459329E+03  0.79791306517E+02 0.  0.
          5    1    3    3  502    0  0.97347469598E+02 -0.63003128490E+02 -0.28560886121E+03  0.30828628844E+03  0.47000000000E+01 0. -1.
        -13    1    4    4    0    0  0.53838405536E+02  0.49392802911E+02 -0.10696804134E+03  0.12953912443E+03  0.00000000000E+00 0.  1.
         14    1    4    4    0    0 -0.21442805120E+02 -0.67335774547E+01 -0.55641847391E+02  0.60009583716E+02  0.00000000000E+00 0. -1.
         -5    1    5    5    0  501  0.31470496604E+01 -0.45527525930E+02 -0.44454536001E+02  0.63882355231E+02  0.47000000000E+01 0.  1.
         11    1    6    6    0    0 -0.53039198872E+01 -0.10863177879E+02 -0.25729302932E+02  0.28427754557E+02  0.00000000000E+00 0. -1.
        -12    1    6    6    0    0 -0.12758619979E+03  0.76734606842E+02 -0.59537134880E+02  0.16034683874E+03  0.00000000000E+00 0.  1.
</event>
<event>
12    1  0.2685360E-002  0.1775769E+03  0.7818608E-02  0.1170169E+00
          4   -1    0    0  502    0  0.00000000000E+00  0.00000000000E+00  0.11741572372E+03  0.11741572372E+03  0.00000000000E+00 0.  1.
         -4   -1    0    0    0  501 -0.00000000000E+00 -0.00000000000E+00 -0.30383550985E+03  0.30383550985E+03  0.00000000000E+00 0. -1.
          6    2    1    2  502    0 -0.63121538445E+01 -0.46502114155E+02 -0.20227987024E+02  0.17597900237E+03  0.16839580728E+03 0.  0.
         24    2    3    3    0    0  0.17072526708E+02 -0.74611208727E+02  0.29158088058E+02  0.11435077106E+03  0.79797249999E+02 0.  0.
         -6    2    1    2    0  501  0.63121538445E+01  0.46502114155E+02 -0.16619179911E+03  0.24527223120E+03  0.17417365875E+03 0.  0.
        -24    2    5    5    0    0 -0.62582400458E+02  0.41265916226E+02 -0.11623910968E+03  0.15988348158E+03  0.80198281613E+02 0.  0.
          5    1    3    3  502    0 -0.23384680553E+02  0.28109094572E+02 -0.49386075081E+02  0.61628231308E+02  0.47000000000E+01 0. -1.
        -11    1    4    4    0    0  0.20778032502E+02 -0.59092694947E+02  0.55410653521E+02  0.83630220342E+02  0.00000000000E+00 0.  1.
         12    1    4    4    0    0 -0.37055057940E+01 -0.15518513780E+02 -0.26252565464E+02  0.30720550720E+02  0.00000000000E+00 0. -1.
         -5    1    5    5    0  501  0.68894554302E+02  0.52361979284E+01 -0.49952689431E+02  0.85388749626E+02  0.47000000000E+01 0.  1.
         11    1    6    6    0    0 -0.24980534826E+01  0.83005774799E+01 -0.83469552666E+02  0.83918448985E+02  0.00000000000E+00 0. -1.
        -12    1    6    6    0    0 -0.60084346975E+02  0.32965338746E+02 -0.32769557011E+02  0.75965032592E+02  0.00000000000E+00 0.  1.
</event>
<event>
12    1  0.2685360E-002  0.2015568E+03  0.7818608E-02  0.1148432E+00
          2   -1    0    0  502    0  0.00000000000E+00  0.00000000000E+00  0.10222133449E+03  0.10222133449E+03  0.00000000000E+00 0.  1.
         -2   -1    0    0    0  501 -0.00000000000E+00 -0.00000000000E+00 -0.42453899495E+03  0.42453899495E+03  0.00000000000E+00 0. -1.
          6    2    1    2  502    0  0.10227503202E+03  0.51178957527E+02 -0.91422659736E+02  0.21718901795E+03  0.16041664171E+03 0.  0.
         24    2    3    3    0    0  0.67696788205E+02  0.75233507943E+02 -0.18231693245E+02  0.13261192935E+03  0.83729285895E+02 0.  0.
         -6    2    1    2    0  501 -0.10227503202E+03 -0.51178957527E+02 -0.23089500072E+03  0.30957131148E+03  0.17158795899E+03 0.  0.
        -24    2    5    5    0    0 -0.87120589994E+02 -0.86106850527E+02 -0.11027536908E+03  0.18299801115E+03  0.79518728293E+02 0.  0.
          5    1    3    3  502    0  0.34578243812E+02 -0.24054550417E+02 -0.73190966491E+02  0.84577088604E+02  0.47000000000E+01 0. -1.
        -13    1    4    4    0    0  0.61068684914E+02  0.60638747303E+01 -0.28018667153E+01  0.61432933440E+02  0.00000000000E+00 0.  1.
         14    1    4    4    0    0  0.66281032909E+01  0.69169633213E+02 -0.15429826529E+02  0.71178995910E+02  0.00000000000E+00 0. -1.
         -5    1    5    5    0  501 -0.15154442023E+02  0.34927893000E+02 -0.12061963163E+03  0.12657330034E+03  0.47000000000E+01 0.  1.
         11    1    6    6    0    0 -0.84333568495E+02 -0.34779782833E+02 -0.88742227951E+02  0.12726730566E+03  0.00000000000E+00 0. -1.
        -12    1    6    6    0    0 -0.27870214992E+01 -0.51327067694E+02 -0.21533141132E+02  0.55730705485E+02  0.00000000000E+00 0.  1.
</event>
<event>
12    1  0.2685360E-002  0.1889238E+03  0.7818608E-02  0.1159436E+00
         -2   -1    0    0    0  501 -0.00000000000E+00  0.00000000000E+00  0.30101464378E+02  0.30101464378E+02  0.00000000000E+00 0.  1.
          2   -1    0    0  502    0  0.00000000000E+00 -0.00000000000E+00 -0.11876923851E+04  0.11876923851E+04  0.00000000000E+00 0. -1.
          6    2    1    2  502    0 -0.42643639020E+02 -0.65359010649E+02 -0.54737733835E+03  0.57819695488E+03  0.16911383113E+03 0.  0.
         24    2    3    3    0    0 -0.72237013971E+02  0.59414111930E+01 -0.32989054438E+03  0.34736776794E+03  0.81136356688E+02 0.  0.
         -6    2    1    2    0  501  0.42643639020E+02  0.65359010649E+02 -0.61021358240E+03  0.63959689462E+03  0.17502368765E+03 0.  0.
        -24    2    5    5    0    0  0.85884096771E+02  0.20764241974E+02 -0.48978538986E+03  0.50401123853E+03  0.79563613653E+02 0.  0.
          5    1    3    3  502    0  0.29593374951E+02 -0.71300421842E+02 -0.21748679397E+03  0.23082918695E+03  0.47000000000E+01 0. -1.
        -13    1    4    4    0    0 -0.36868634451E+02 -0.37615111936E+02 -0.15660893510E+03  0.16522878503E+03  0.00000000000E+00 0.  1.
         14    1    4    4    0    0 -0.35368379521E+02  0.43556523129E+02 -0.17328160928E+03  0.18213898290E+03  0.00000000000E+00 0. -1.
         -5    1    5    5    0  501 -0.43240457751E+02  0.44594768675E+02 -0.12042819253E+03  0.13558565609E+03  0.47000000000E+01 0.  1.
         13    1    6    6    0    0  0.46611021063E+02  0.47801807501E+02 -0.21526917725E+03  0.22538504555E+03  0.00000000000E+00 0. -1.
        -14    1    6    6    0    0  0.39273075708E+02 -0.27037565527E+02 -0.27451621261E+03  0.27862619298E+03  0.00000000000E+00 0.  1.
</event>
<event>
12    1  0.2685360E-002  0.1840861E+03  0.7818608E-02  0.1163906E+00
          1   -1    0    0  502    0  0.00000000000E+00  0.00000000000E+00  0.31075212553E+02  0.31075212553E+02  0.00000000000E+00 0. -1.
         -1   -1    0    0    0  501 -0.00000000000E+00 -0.00000000000E+00 -0.11256975893E+04  0.11256975893E+04  0.00000000000E+00 0.  1.
          6    2    1    2  502    0 -0.20975229864E+02  0.19930892820E+02 -0.48078203242E+03  0.51877904937E+03  0.19272555257E+03 0.  0.
         24    2    3    3    0    0 -0.79921186355E+02 -0.15911898954E+02 -0.20618211761E+03  0.23560677897E+03  0.79742737096E+02 0.  0.
         -6    2    1    2    0  501  0.20975229864E+02 -0.19930892820E+02 -0.61384034432E+03  0.63799375247E+03  0.17146095510E+03 0.  0.
        -24    2    5    5    0    0  0.51933901486E+02  0.53293674507E+02 -0.28314585323E+03  0.29784494232E+03  0.54796802839E+02 0.  0.
          5    1    3    3  502    0  0.58945956491E+02  0.35842791775E+02 -0.27459991481E+03  0.28317227040E+03  0.47000000000E+01 0. -1.
        -13    1    4    4    0    0 -0.77462387051E+02  0.18279968201E+02 -0.13855597048E+03  0.15978840884E+03  0.00000000000E+00 0.  1.
         14    1    4    4    0    0 -0.24587993044E+01 -0.34191867155E+02 -0.67626147129E+02  0.75818370129E+02  0.00000000000E+00 0. -1.
         -5    1    5    5    0  501 -0.30958671621E+02 -0.73224567327E+02 -0.33069449109E+03  0.34014881015E+03  0.47000000000E+01 0.  1.
         11    1    6    6    0    0  0.27519676361E+02  0.59305196009E+02 -0.22892555894E+03  0.23807845429E+03  0.00000000000E+00 0. -1.
        -12    1    6    6    0    0  0.24414225125E+02 -0.60115215026E+01 -0.54220294284E+02  0.59766488031E+02  0.00000000000E+00 0.  1.
</event>
<event>
12    1  0.2685360E-002  0.2448940E+03  0.7818608E-02  0.1116575E+00
         -2   -1    0    0    0  501 -0.00000000000E+00  0.00000000000E+00  0.38799631842E+03  0.38799631842E+03  0.00000000000E+00 0. -1.
          2   -1    0    0  502    0  0.00000000000E+00 -0.00000000000E+00 -0.15690561160E+03  0.15690561160E+03  0.00000000000E+00 0.  1.
          6    2    1    2  502    0 -0.37136114048E+02 -0.17103605846E+03  0.82226787560E+02  0.25815255276E+03  0.17102359967E+03 0.  0.
         24    2    3    3    0    0 -0.51056270897E+02 -0.25997466725E+02  0.22845354695E+02  0.10074159879E+03  0.79651418204E+02 0.  0.
         -6    2    1    2    0  501  0.37136114048E+02  0.17103605846E+03  0.14886391926E+03  0.28674937726E+03  0.17155848751E+03 0.  0.
        -24    2    5    5    0    0  0.66514132558E+02  0.18336382124E+03  0.13714016868E+03  0.25247725981E+03  0.83011565973E+02 0.  0.
          5    1    3    3  502    0  0.13920156849E+02 -0.14503859174E+03  0.59381432865E+02  0.15741095397E+03  0.47000000000E+01 0. -1.
        -11    1    4    4    0    0  0.74034785912E+00  0.15400596729E+02 -0.17343086239E+02  0.23205799596E+02  0.00000000000E+00 0.  1.
         12    1    4    4    0    0 -0.51796618756E+02 -0.41398063454E+02  0.40188440934E+02  0.77535799196E+02  0.00000000000E+00 0. -1.
         -5    1    5    5    0  501 -0.29378018510E+02 -0.12327762775E+02  0.11723750580E+02  0.34272117447E+02  0.47000000000E+01 0.  1.
         11    1    6    6    0    0  0.54356516304E+02  0.15352452042E+03  0.68561180604E+02  0.17670609701E+03  0.00000000000E+00 0. -1.
        -12    1    6    6    0    0  0.12157616254E+02  0.29839300824E+02  0.68578988079E+02  0.75771162803E+02  0.00000000000E+00 0.  1.
</event>
<event>
12    1  0.2685360E-002  0.2201162E+03  0.7818608E-02  0.1133796E+00
         -2   -1    0    0    0  501 -0.00000000000E+00  0.00000000000E+00  0.19296195848E+03  0.19296195848E+03  0.00000000000E+00 0. -1.
          2   -1    0    0  502    0  0.00000000000E+00 -0.00000000000E+00 -0.33672074602E+03  0.33672074602E+03  0.00000000000E+00 0.  1.
          6    2    1    2  502    0 -0.13433752905E+03 -0.27789748444E+02 -0.20542237098E+03  0.30104300269E+03  0.17207468478E+03 0.  0.
         24    2    3    3    0    0 -0.14040754705E+03 -0.69642414006E+02 -0.17020661018E+03  0.24580958399E+03  0.82992266719E+02 0.  0.
         -6    2    1    2    0  501  0.13433752905E+03  0.27789748444E+02  0.61663583432E+02  0.22863970181E+03  0.17220590551E+03 0.  0.
        -24    2    5    5    0    0  0.43565640876E+02  0.63163091869E+02 -0.65464885575E+01  0.10962074102E+03  0.78014800578E+02 0.  0.
          5    1    3    3  502    0  0.60700179968E+01  0.41852665563E+02 -0.35215760801E+02  0.55233418706E+02  0.47000000000E+01 0. -1.
        -11    1    4    4    0    0 -0.63164727302E+02  0.65886562185E+01 -0.93034181477E+02  0.11264347335E+03  0.00000000000E+00 0.  1.
         12    1    4    4    0    0 -0.77242819745E+02 -0.76231070225E+02 -0.77172428700E+02  0.13316611063E+03  0.00000000000E+00 0. -1.
         -5    1    5    5    0  501  0.90771888174E+02 -0.35373343425E+02  0.68210071989E+02  0.11901896079E+03  0.47000000000E+01 0.  1.
         13    1    6    6    0    0  0.49473358215E+02  0.12785461154E+02  0.16790813790E+02  0.53786732729E+02  0.00000000000E+00 0. -1.
        -14    1    6    6    0    0 -0.59077173384E+01  0.50377630715E+02 -0.23337302347E+02  0.55834008288E+02  0.00000000000E+00 0.  1.
</event>
<event>
12    1  0.2685360E-002  0.1773655E+03  0.7818608E-02  0.1170377E+00
         -1   -1    0    0    0  501 -0.00000000000E+00  0.00000000000E+00  0.11825676654E+02  0.11825676654E+02  0.00000000000E+00 0. -1.
          1   -1    0    0  502    0  0.00000000000E+00 -0.00000000000E+00 -0.31324427267E+04  0.31324427267E+04  0.00000000000E+00 0.  1.
          6    2    1    2  502    0  0.33991805563E+02 -0.25772439164E+02 -0.94962460639E+03  0.96604006527E+03  0.17212452811E+03 0.  0.
         24    2    3    3    0    0  0.86224361058E+02  0.53734970626E-01 -0.54377163090E+03  0.55599865414E+03  0.77538851613E+02 0.  0.
         -6    2    1    2    0  501 -0.33991805563E+02  0.25772439164E+02 -0.21709924437E+04  0.21782283381E+04  0.17219419549E+03 0.  0.
        -24    2    5    5    0    0  0.10110976071E+02 -0.45523684814E+02 -0.12431527176E+04  0.12465970592E+04  0.80005692863E+02 0.  0.
          5    1    3    3  502    0 -0.52232555495E+02 -0.25826174134E+02 -0.40585297549E+03  0.41004141113E+03  0.47000000000E+01 0. -1.
        -11    1    4    4    0    0  0.62246340644E+02  0.20681106736E+02 -0.48352746818E+03  0.48795607137E+03  0.00000000000E+00 0.  1.
         12    1    4    4    0    0  0.23978020414E+02 -0.20627371765E+02 -0.60244162718E+02  0.68042582773E+02  0.00000000000E+00 0. -1.
         -5    1    5    5    0  501 -0.44102781634E+02  0.71296123978E+02 -0.92783972607E+03  0.93163127895E+03  0.47000000000E+01 0.  1.
         13    1    6    6    0    0 -0.30752985207E+02 -0.17594024768E+02 -0.78059239982E+03  0.78139605225E+03  0.00000000000E+00 0. -1.
        -14    1    6    6    0    0  0.40863961278E+02 -0.27929660047E+02 -0.46256031780E+03  0.46520100693E+03  0.00000000000E+00 0.  1.
</event>
<event>
12    1  0.2685360E-002  0.1778541E+03  0.7818608E-02  0.1169896E+00
         -2   -1    0    0    0  501 -0.00000000000E+00  0.00000000000E+00  0.15616678653E+02  0.15616678653E+02  0.00000000000E+00 0. -1.
          2   -1    0    0  502    0  0.00000000000E+00 -0.00000000000E+00 -0.29038904248E+04  0.29038904248E+04  0.00000000000E+00 0.  1.
          6    2    1    2  502    0 -0.29284558812E+02 -0.22938702196E+02 -0.63698917619E+03  0.66114755557E+03  0.17313899100E+03 0.  0.
         24    2    3    3    0    0 -0.70011686861E+02  0.21709758873E+02 -0.30466644959E+03  0.32334188858E+03  0.79720646487E+02 0.  0.
         -6    2    1    2    0  501  0.29284558812E+02  0.22938702196E+02 -0.22512845699E+04  0.22583595479E+04  0.17470507478E+03 0.  0.
        -24    2    5    5    0    0 -0.24414671494E+02 -0.36456577650E+02 -0.15214452328E+04  0.15241259647E+04  0.78988617203E+02 0.  0.
          5    1    3    3  502    0  0.40727128049E+02 -0.44648461069E+02 -0.33232272659E+03  0.33780566698E+03  0.47000000000E+01 0. -1.
        -13    1    4    4    0    0 -0.52013445536E+02 -0.10508002406E+02 -0.26020213014E+03  0.26555783769E+03  0.00000000000E+00 0.  1.
         14    1    4    4    0    0 -0.17998241325E+02  0.32217761279E+02 -0.44464319454E+02  0.57784050889E+02  0.00000000000E+00 0. -1.
         -5    1    5    5    0  501  0.53699230306E+02  0.59395279846E+02 -0.72983933712E+03  0.73423358314E+03  0.47000000000E+01 0.  1.
         11    1    6    6    0    0 -0.10273603342E+02 -0.39774660806E+02 -0.14724517038E+04  0.14730246401E+04  0.00000000000E+00 0. -1.
        -12    1    6    6    0    0 -0.14141068152E+02  0.33180831554E+01 -0.48993529049E+02  0.51101324572E+02  0.00000000000E+00 0.  1.
</event>
<event>
12    1  0.2685360E-002  0.1757936E+03  0.7818608E-02  0.1171937E+00
          1   -1    0    0  502    0  0.00000000000E+00  0.00000000000E+00  0.52154722433E+03  0.52154722433E+03  0.00000000000E+00 0.  1.
         -1   -1    0    0    0  501 -0.00000000000E+00 -0.00000000000E+00 -0.66643664659E+02  0.66643664659E+02  0.00000000000E+00 0. -1.
          6    2    1    2  502    0 -0.49726329893E+02  0.42924916091E+02  0.13142590709E+03  0.22080263474E+03  0.16482044214E+03 0.  0.
         24    2    3    3    0    0 -0.61905493304E+02 -0.29335663377E+02  0.79841729785E+02  0.13106445605E+03  0.78168526767E+02 0.  0.
         -6    2    1    2    0  501  0.49726329893E+02 -0.42924916091E+02  0.32347765258E+03  0.36738825425E+03  0.16131051217E+03 0.  0.
        -24    2    5    5    0    0  0.89042859472E+02 -0.53919097811E+02  0.22703650873E+03  0.26255674298E+03  0.80960280710E+02 0.  0.
          5    1    3    3  502    0  0.12179163411E+02  0.72260579468E+02  0.51584177309E+02  0.89738178693E+02  0.47000000000E+01 0. -1.
        -13    1    4    4    0    0  0.10831957770E+02 -0.18087132453E+02  0.44870764794E+02  0.49576821224E+02  0.00000000000E+00 0.  1.
         14    1    4    4    0    0 -0.72737451074E+02 -0.11248530924E+02  0.34970964990E+02  0.81487634823E+02  0.00000000000E+00 0. -1.
         -5    1    5    5    0  501 -0.39316529578E+02  0.10994181719E+02  0.96441143849E+02  0.10483151128E+03  0.47000000000E+01 0.  1.
         11    1    6    6    0    0  0.74198614909E+02 -0.24914881374E+02  0.79873672197E+02  0.11183018054E+03  0.00000000000E+00 0. -1.
        -12    1    6    6    0    0  0.14844244562E+02 -0.29004216436E+02  0.14716283654E+03  0.15072656244E+03  0.00000000000E+00 0.  1.
</event>
<event>
12    1  0.2685360E-002  0.1810238E+03  0.7818608E-02  0.1166816E+00
          2   -1    0    0  502    0  0.00000000000E+00  0.00000000000E+00  0.49619222029E+03  0.49619222029E+03  0.00000000000E+00 0.  1.
         -2   -1    0    0    0  501 -0.00000000000E+00 -0.00000000000E+00 -0.68005232464E+02  0.68005232464E+02  0.00000000000E+00 0. -1.
          6    2    1    2  502    0  0.18514600312E+02 -0.57482664861E+02  0.26114017940E+03  0.31731907449E+03  0.16985333248E+03 0.  0.
         24    2    3    3    0    0  0.41311257592E+02  0.70882731350E+01  0.21894798539E+03  0.23675006772E+03  0.79721456583E+02 0.  0.
         -6    2    1    2    0  501 -0.18514600312E+02  0.57482664861E+02  0.16704680843E+03  0.24687837826E+03  0.17145626342E+03 0.  0.
        -24    2    5    5    0    0  0.55127519275E+02  0.15077877753E+02  0.81084857847E+02  0.12591195857E+03  0.77541481540E+02 0.  0.
          5    1    3    3  502    0 -0.22796657280E+02 -0.64570937996E+02  0.42192194017E+02  0.80569006775E+02  0.47000000000E+01 0. -1.
        -11    1    4    4    0    0  0.43452901359E+02 -0.27940508697E+02  0.16014039201E+03  0.16826696591E+03  0.00000000000E+00 0.  1.
         12    1    4    4    0    0 -0.21416437677E+01  0.35028781832E+02  0.58807593374E+02  0.68483101808E+02  0.00000000000E+00 0. -1.
         -5    1    5    5    0  501 -0.73642119587E+02  0.42404787108E+02  0.85961950580E+02  0.12096641970E+03  0.47000000000E+01 0.  1.
         13    1    6    6    0    0  0.98916364605E+00  0.28237639345E+02  0.89780394866E+00  0.28269219523E+02  0.00000000000E+00 0. -1.
        -14    1    6    6    0    0  0.54138355629E+02 -0.13159761592E+02  0.80187053898E+02  0.97642739045E+02  0.00000000000E+00 0.  1.
</event>
<event>
12    1  0.2685360E-002  0.3073714E+03  0.7818608E-02  0.1081613E+00
         -1   -1    0    0    0  501 -0.00000000000E+00  0.00000000000E+00  0.59655337478E+03  0.59655337478E+03  0.00000000000E+00 0.  1.
          1   -1    0    0  502    0  0.00000000000E+00 -0.00000000000E+00 -0.15922898727E+03  0.15922898727E+03  0.00000000000E+00 0. -1.
          6    2    1    2  502    0  0.18693248890E+03  0.17341970022E+03  0.19143951874E+03  0.36270381934E+03  0.17287805932E+03 0.  0.
         24    2    3    3    0    0  0.65825145399E+02  0.15681897285E+03  0.10900399058E+03  0.21519016200E+03  0.74160608437E+02 0.  0.
         -6    2    1    2    0  501 -0.18693248890E+03 -0.17341970022E+03  0.24588486877E+03  0.39307854271E+03  0.17039138541E+03 0.  0.
        -24    2    5    5    0    0 -0.56861486200E+02 -0.13350753341E+03  0.98316623253E+02  0.19230522803E+03  0.79105323662E+02 0.  0.
          5    1    3    3  502    0  0.12110734350E+03  0.16600727368E+02  0.82435528153E+02  0.14751365734E+03  0.47000000000E+01 0. -1.
        -13    1    4    4    0    0  0.55251841461E+02  0.86410323689E+02  0.10031049187E+03  0.14346325245E+03  0.00000000000E+00 0.  1.
         14    1    4    4    0    0  0.10573303938E+02  0.70408649165E+02  0.86934987168E+01  0.71726909548E+02  0.00000000000E+00 0. -1.
         -5    1    5    5    0  501 -0.13007100270E+03 -0.39912166816E+02  0.14756824552E+03  0.20077331468E+03  0.47000000000E+01 0.  1.
         13    1    6    6    0    0  0.15177174226E+02 -0.13906983788E+02  0.31229170441E+02  0.37403367522E+02  0.00000000000E+00 0. -1.
        -14    1    6    6    0    0 -0.72038660426E+02 -0.11960054962E+03  0.67087452812E+02  0.15490186051E+03  0.00000000000E+00 0.  1.
</event>
<event>
12    1  0.2685360E-002  0.1797356E+03  0.7818608E-02  0.1168059E+00
         -2   -1    0    0    0  501 -0.00000000000E+00  0.00000000000E+00  0.16671632596E+03  0.16671632596E+03  0.00000000000E+00 0.  1.
          2   -1    0    0  502    0  0.00000000000E+00 -0.00000000000E+00 -0.29237170697E+03  0.29237170697E+03  0.00000000000E+00 0. -1.
          6    2    1    2  502    0  0.42425738070E+02 -0.37464106582E+02 -0.19585653542E+03  0.26505528242E+03  0.16938423107E+03 0.  0.
         24    2    3    3    0    0  0.89037436637E+02 -0.50685481645E+01 -0.16981812697E+03  0.20242772169E+03  0.64694906714E+02 0.  0.
         -6    2    1    2    0  501 -0.42425738070E+02  0.37464106582E+02  0.70201154416E+02  0.19403275051E+03  0.17180513280E+03 0.  0.
        -24    2    5    5    0    0 -0.37382907656E+02  0.89252424490E+02  0.33869005594E+02  0.13039647902E+03  0.80577013720E+02 0.  0.
          5    1    3    3  502    0 -0.46611698568E+02 -0.32395558418E+02 -0.26038408450E+02  0.62627560732E+02  0.47000000000E+01 0. -1.
        -13    1    4    4    0    0  0.93189319124E+02 -0.16927608911E+02 -0.13118918512E+03  0.16180666066E+03  0.00000000000E+00 0.  1.
         14    1    4    4    0    0 -0.41518824864E+01  0.11859060747E+02 -0.38628941854E+02  0.40621061025E+02  0.00000000000E+00 0. -1.
         -5    1    5    5    0  501 -0.50428304136E+01 -0.51788317907E+02  0.36332148822E+02  0.63636271483E+02  0.47000000000E+01 0.  1.
         13    1    6    6    0    0 -0.60387157744E+02  0.45248433776E+02  0.27600470520E+02  0.80348089911E+02  0.00000000000E+00 0. -1.
        -14    1    6    6    0    0  0.23004250088E+02  0.44003990714E+02  0.62685350747E+01  0.50048389114E+02  0.00000000000E+00 0.  1.
</event>
<event>
12    1  0.2685360E-002  0.1859752E+03  0.7818608E-02  0.1162142E+00
          2   -1    0    0  502    0  0.00000000000E+00  0.00000000000E+00  0.64009657690E+03  0.64009657690E+03  0.00000000000E+00 0.  1.
         -2   -1    0    0    0  501 -0.00000000000E+00 -0.00000000000E+00 -0.63949361151E+02  0.63949361151E+02  0.00000000000E+00 0. -1.
          6    2    1    2  502    0 -0.19635736858E+01  0.69919998129E+02  0.14817053968E+03  0.23701061027E+03  0.17125086509E+03 0.  0.
         24    2    3    3    0    0  0.45779086694E+02 -0.97203807553E+01  0.56854613749E+02  0.10669315213E+03  0.77206029723E+02 0.  0.
         -6    2    1    2    0  501  0.19635736858E+01 -0.69919998129E+02  0.42797667608E+03  0.46703532778E+03  0.17339348423E+03 0.  0.
        -24    2    5    5    0    0  0.89994166559E+01 -0.10114457792E+03  0.22558528161E+03  0.26207473640E+03  0.86505682084E+02 0.  0.
          5    1    3    3  502    0 -0.47742660380E+02  0.79640378885E+02  0.91315925927E+02  0.13031745814E+03  0.47000000000E+01 0. -1.
        -13    1    4    4    0    0  0.78979972803E+00 -0.36401744004E+02  0.33248454114E+02  0.49306900644E+02  0.00000000000E+00 0.  1.
         14    1    4    4    0    0  0.44989286966E+02  0.26681363248E+02  0.23606159634E+02  0.57386251482E+02  0.00000000000E+00 0. -1.
         -5    1    5    5    0  501 -0.70358429700E+01  0.31224579796E+02  0.20239139446E+03  0.20496059139E+03  0.47000000000E+01 0.  1.
         13    1    6    6    0    0  0.17660800867E+02 -0.16022620231E+02  0.35302570563E+01  0.24105828366E+02  0.00000000000E+00 0. -1.
        -14    1    6    6    0    0 -0.86613842112E+01 -0.85121957694E+02  0.22205502456E+03  0.23796890803E+03  0.00000000000E+00 0.  1.
</event>
<event>
12    1  0.2685360E-002  0.2173208E+03  0.7818608E-02  0.1135896E+00
         -2   -1    0    0    0  501 -0.00000000000E+00  0.00000000000E+00  0.27938992442E+02  0.27938992442E+02  0.00000000000E+00 0. -1.
          2   -1    0    0  502    0  0.00000000000E+00 -0.00000000000E+00 -0.16929616898E+04  0.16929616898E+04  0.00000000000E+00 0.  1.
          6    2    1    2  502    0 -0.10629697460E+03 -0.75275683430E+02 -0.85638097151E+03  0.88299051708E+03  0.17122619411E+03 0.  0.
         24    2    3    3    0    0 -0.56934984097E+02 -0.49316628252E+02 -0.78376476700E+03  0.79130801160E+03  0.78787289549E+02 0.  0.
         -6    2    1    2    0  501  0.10629697460E+03  0.75275683430E+02 -0.80864172587E+03  0.83791016519E+03  0.17671029621E+03 0.  0.
        -24    2    5    5    0    0  0.19871785572E+02  0.97932641329E+02 -0.41991394762E+03  0.43901916927E+03  0.80152464001E+02 0.  0.
          5    1    3    3  502    0 -0.49361990507E+02 -0.25959055178E+02 -0.72616204518E+02  0.91682505480E+02  0.47000000000E+01 0. -1.
        -11    1    4    4    0    0  0.89273574716E+00 -0.50325273962E+02 -0.31646427011E+03  0.32044198295E+03  0.00000000000E+00 0.  1.
         12    1    4    4    0    0 -0.57827719844E+02  0.10086457099E+01 -0.46730049688E+03  0.47086602865E+03  0.00000000000E+00 0. -1.
         -5    1    5    5    0  501  0.86425189032E+02 -0.22656957899E+02 -0.38872777825E+03  0.39889099592E+03  0.47000000000E+01 0.  1.
         13    1    6    6    0    0  0.20147979130E+02 -0.82969917281E+01 -0.65726982733E+02  0.69244619964E+02  0.00000000000E+00 0. -1.
        -14    1    6    6    0    0 -0.27619355771E+00  0.10622963306E+03 -0.35418696489E+03  0.36977454931E+03  0.00000000000E+00 0.  1.
</event>
<event>
12    1  0.2685360E-002  0.2118108E+03  0.7818608E-02  0.1140140E+00
         -2   -1    0    0    0  501 -0.00000000000E+00  0.00000000000E+00  0.20529729665E+03  0.20529729665E+03  0.00000000000E+00 0. -1.
          2   -1    0    0  502    0  0.00000000000E+00 -0.00000000000E+00 -0.25626043076E+03  0.25626043076E+03  0.00000000000E+00 0.  1.
          6    2    1    2  502    0  0.41713434431E+02 -0.11103229651E+03 -0.11371941473E+03  0.23811846565E+03  0.17233721861E+03 0.  0.
         24    2    3    3    0    0  0.62730019545E+02 -0.11943698757E+03 -0.41336891604E+02  0.16213389264E+03  0.79864955916E+02 0.  0.
         -6    2    1    2    0  501 -0.41713434431E+02  0.11103229651E+03  0.62756280624E+02  0.22343926175E+03  0.17865769352E+03 0.  0.
        -24    2    5    5    0    0 -0.38472953829E+02 -0.36523059485E+01 -0.42922124752E+01  0.90470659505E+02  0.81688491407E+02 0.  0.
          5    1    3    3  502    0 -0.21016585114E+02  0.84046910572E+01 -0.72382523130E+02  0.75984573015E+02  0.47000000000E+01 0. -1.
        -13    1    4    4    0    0 -0.10149706454E+02 -0.10067696983E+02 -0.26188740097E+02  0.29836641425E+02  0.00000000000E+00 0.  1.
         14    1    4    4    0    0  0.72879725999E+02 -0.10936929059E+03 -0.15148151507E+02  0.13229725121E+03  0.00000000000E+00 0. -1.
         -5    1    5    5    0  501 -0.32404806021E+01  0.11468460246E+03  0.67048493100E+02  0.13296860224E+03  0.47000000000E+01 0.  1.
         11    1    6    6    0    0  0.12559020165E+02 -0.18420811830E+02 -0.24958892009E+02  0.33466424762E+02  0.00000000000E+00 0. -1.
        -12    1    6    6    0    0 -0.51031973994E+02  0.14768505882E+02  0.20666679534E+02  0.57004234743E+02  0.00000000000E+00 0.  1.
</event>
<event>
12    1  0.2685360E-002  0.1900441E+03  0.7818608E-02  0.1158422E+00
         -2   -1    0    0    0  501 -0.00000000000E+00  0.00000000000E+00  0.91623414328E+02  0.91623414328E+02  0.00000000000E+00 0. -1.
          2   -1    0    0  502    0  0.00000000000E+00 -0.00000000000E+00 -0.53535977327E+03  0.53535977327E+03  0.00000000000E+00 0.  1.
          6    2    1    2  502    0 -0.33599711468E+02 -0.73577969241E+02 -0.38265992076E+03  0.42715491933E+03  0.17172667814E+03 0.  0.
         24    2    3    3    0    0 -0.21025963728E+01  0.20464317387E+02 -0.10804706288E+03  0.13514407768E+03  0.78527350242E+02 0.  0.
         -6    2    1    2    0  501  0.33599711468E+02  0.73577969241E+02 -0.61076438182E+02  0.19982826826E+03  0.17221599034E+03 0.  0.
        -24    2    5    5    0    0  0.41983256479E+02  0.64535840893E+01  0.22968342797E+02  0.91839462739E+02  0.78119777093E+02 0.  0.
          5    1    3    3  502    0 -0.31497115095E+02 -0.94042286628E+02 -0.27461285788E+03  0.29201084166E+03  0.47000000000E+01 0. -1.
        -11    1    4    4    0    0  0.26345485183E+02 -0.18987474357E+02 -0.45897840200E+02  0.56224732165E+02  0.00000000000E+00 0.  1.
         12    1    4    4    0    0 -0.28448081555E+02  0.39451791745E+02 -0.62149222683E+02  0.78919345513E+02  0.00000000000E+00 0. -1.
         -5    1    5    5    0  501 -0.83835450110E+01  0.67124385152E+02 -0.84044780980E+02  0.10798880553E+03  0.47000000000E+01 0.  1.
         11    1    6    6    0    0  0.17938397164E+02  0.19435128904E+02  0.47985594120E+02  0.54791674289E+02  0.00000000000E+00 0. -1.
        -12    1    6    6    0    0  0.24044859316E+02 -0.12981544815E+02 -0.25017251323E+02  0.37047788450E+02  0.00000000000E+00 0.  1.
</event>
<event>
12    1  0.2685360E-002  0.1758088E+03  0.7818608E-02  0.1171922E+00
          3   -1    0    0  502    0  0.00000000000E+00  0.00000000000E+00  0.27092712708E+02  0.27092712708E+02  0.00000000000E+00 0. -1.
         -3   -1    0    0    0  501 -0.00000000000E+00 -0.00000000000E+00 -0.12493546121E+04  0.12493546121E+04  0.00000000000E+00 0.  1.
          6    2    1    2  502    0  0.17749687264E+02 -0.36189523988E+02 -0.79992683838E+03  0.81906703945E+03  0.17135674867E+03 0.  0.
         24    2    3    3    0    0 -0.54374524461E+02 -0.15688343940E+02 -0.51322626443E+03  0.52268635621E+03  0.81222628716E+02 0.  0.
         -6    2    1    2    0  501 -0.17749687264E+02  0.36189523988E+02 -0.42233506103E+03  0.45738028537E+03  0.17089496373E+03 0.  0.
        -24    2    5    5    0    0 -0.69617401677E+01  0.62204381679E+02 -0.13548559125E+03  0.16911328945E+03  0.79530549522E+02 0.  0.
          5    1    3    3  502    0  0.72124211725E+02 -0.20501180048E+02 -0.28670057394E+03  0.29638068324E+03  0.47000000000E+01 0. -1.
        -13    1    4    4    0    0  0.82788274554E+01 -0.29810805501E+02 -0.10586882571E+03  0.11029701431E+03  0.00000000000E+00 0.  1.
         14    1    4    4    0    0 -0.62653351917E+02  0.14122461562E+02 -0.40735743872E+03  0.41238934189E+03  0.00000000000E+00 0. -1.
         -5    1    5    5    0  501 -0.10787947096E+02 -0.26014857691E+02 -0.28684946978E+03  0.28826699592E+03  0.47000000000E+01 0.  1.
         11    1    6    6    0    0  0.34963381790E+01  0.73418542553E+02 -0.13506982427E+03  0.15377374353E+03  0.00000000000E+00 0. -1.
        -12    1    6    6    0    0 -0.10458078347E+02 -0.11214160874E+02 -0.41576697628E+00  0.15339545919E+02  0.00000000000E+00 0.  1.
</event>
<event>
12    1  0.2685360E-002  0.2220766E+03  0.7818608E-02  0.1132344E+00
          1   -1    0    0  502    0  0.00000000000E+00  0.00000000000E+00  0.76307075840E+02  0.76307075840E+02  0.00000000000E+00 0. -1.
         -1   -1    0    0    0  501 -0.00000000000E+00 -0.00000000000E+00 -0.66840153134E+03  0.66840153134E+03  0.00000000000E+00 0.  1.
          6    2    1    2  502    0  0.13701030407E+03  0.34481941868E+02 -0.22891791810E+03  0.31924133157E+03  0.17190342294E+03 0.  0.
         24    2    3    3    0    0  0.14405504547E+03  0.74654084507E+02 -0.19514032720E+03  0.26607701015E+03  0.79950857198E+02 0.  0.
         -6    2    1    2    0  501 -0.13701030407E+03 -0.34481941868E+02 -0.36317653739E+03  0.42546727561E+03  0.17077581083E+03 0.  0.
        -24    2    5    5    0    0 -0.42520067226E+02  0.42429716829E+02 -0.17476017415E+03  0.20104217888E+03  0.79174504949E+02 0.  0.
          5    1    3    3  502    0 -0.70447414071E+01 -0.40172142639E+02 -0.33777590898E+02  0.53164321425E+02  0.47000000000E+01 0. -1.
        -11    1    4    4    0    0  0.63063264267E+02  0.71364782381E+02 -0.13469508337E+03  0.16496264107E+03  0.00000000000E+00 0.  1.
         12    1    4    4    0    0  0.80991781206E+02  0.32893021257E+01 -0.60445243830E+02  0.10111436907E+03  0.00000000000E+00 0. -1.
         -5    1    5    5    0  501 -0.94490236840E+02 -0.76911658697E+02 -0.18841636325E+03  0.22442509673E+03  0.47000000000E+01 0.  1.
         11    1    6    6    0    0 -0.45668830095E+02 -0.58412511892E+00 -0.44259787922E+02  0.63599623201E+02  0.00000000000E+00 0. -1.
        -12    1    6    6    0    0  0.31487628686E+01  0.43013841947E+02 -0.13050038623E+03  0.13744255568E+03  0.00000000000E+00 0.  1.
</event>
<event>
12    1  0.2685360E-002  0.2056749E+03  0.7818608E-02  0.1145038E+00
          2   -1    0    0  502    0  0.00000000000E+00  0.00000000000E+00  0.35302378684E+03  0.35302378684E+03  0.00000000000E+00 0. -1.
         -2   -1    0    0    0  501 -0.00000000000E+00 -0.00000000000E+00 -0.13910674630E+03  0.13910674630E+03  0.00000000000E+00 0.  1.
          6    2    1    2  502    0 -0.48325389255E+02  0.10117025564E+03  0.15495058552E+02  0.20656936004E+03  0.17280057811E+03 0.  0.
         24    2    3    3    0    0 -0.73630294881E+02  0.85082223037E+02 -0.39563026835E+02  0.14369928919E+03  0.80148909039E+02 0.  0.
         -6    2    1    2    0  501  0.48325389255E+02 -0.10117025564E+03  0.19842198199E+03  0.28556117310E+03  0.17205562116E+03 0.  0.
        -24    2    5    5    0    0  0.52702196394E+02 -0.12672240623E+03  0.20391636567E+03  0.25864747599E+03  0.80501819264E+02 0.  0.
          5    1    3    3  502    0  0.25304905626E+02  0.16088032602E+02  0.55058085388E+02  0.62870070847E+02  0.47000000000E+01 0. -1.
        -13    1    4    4    0    0 -0.15238840747E+02  0.57174916108E+02  0.12694603844E+02  0.60517322033E+02  0.00000000000E+00 0.  1.
         14    1    4    4    0    0 -0.58391454134E+02  0.27907306929E+02 -0.52257630680E+02  0.83181967158E+02  0.00000000000E+00 0. -1.
         -5    1    5    5    0  501 -0.43768071394E+01  0.25552150587E+02 -0.54943836760E+01  0.26913697114E+02  0.47000000000E+01 0.  1.
         13    1    6    6    0    0  0.70382607729E+02 -0.70827834927E+02  0.13943132954E+03  0.17149749074E+03  0.00000000000E+00 0. -1.
        -14    1    6    6    0    0 -0.17680411334E+02 -0.55894571299E+02  0.64485036123E+02  0.87149985252E+02  0.00000000000E+00 0.  1.
</event>
<event>
12    1  0.2685360E-002  0.2165926E+03  0.7818608E-02  0.1136449E+00
          1   -1    0    0  502    0  0.00000000000E+00  0.00000000000E+00  0.11293059186E+04  0.11293059186E+04  0.00000000000E+00 0. -1.
         -1   -1    0    0    0  501 -0.00000000000E+00 -0.00000000000E+00 -0.41560152048E+02  0.41560152048E+02  0.00000000000E+00 0.  1.
          6    2    1    2  502    0  0.12181777051E+03  0.51260171371E+02  0.55680377172E+03  0.59749351496E+03  0.17175821914E+03 0.  0.
         24    2    3    3    0    0  0.74635375767E+02 -0.31696821443E+02  0.32744723272E+03  0.34902912514E+03  0.89579641508E+02 0.  0.
         -6    2    1    2    0  501 -0.12181777051E+03 -0.51260171371E+02  0.53094199487E+03  0.57337255573E+03  0.17143369377E+03 0.  0.
        -24    2    5    5    0    0 -0.84174305974E+01 -0.99418800731E+01  0.31992886391E+03  0.33023582521E+03  0.80817870373E+02 0.  0.
          5    1    3    3  502    0  0.47182394739E+02  0.82956992814E+02  0.22935653900E+03  0.24846438982E+03  0.47000000000E+01 0. -1.
        -11    1    4    4    0    0  0.54633297240E+02  0.99395906999E+01  0.80474777760E+02  0.97774140171E+02  0.00000000000E+00 0.  1.
         12    1    4    4    0    0  0.20002078527E+02 -0.41636412143E+02  0.24697245496E+03  0.25125498497E+03  0.00000000000E+00 0. -1.
         -5    1    5    5    0  501 -0.11340033991E+03 -0.41318291298E+02  0.21101313096E+03  0.24313673052E+03  0.47000000000E+01 0.  1.
         11    1    6    6    0    0 -0.40440310218E+02  0.12891755740E+02  0.17359252460E+03  0.17870640910E+03  0.00000000000E+00 0. -1.
        -12    1    6    6    0    0  0.32022879621E+02 -0.22833635813E+02  0.14633633931E+03  0.15152941611E+03  0.00000000000E+00 0.  1.
</event>
<event>
12    1  0.2685360E-002  0.2000571E+03  0.7818608E-02  0.1149691E+00
          1   -1    0    0  502    0  0.00000000000E+00  0.00000000000E+00  0.50903579368E+03  0.50903579368E+03  0.00000000000E+00 0.  1.
         -1   -1    0    0    0  501 -0.00000000000E+00 -0.00000000000E+00 -0.80986950517E+02  0.80986950517E+02  0.00000000000E+00 0. -1.
          6    2    1    2  502    0  0.98825809942E+02 -0.11529255546E+02  0.16520200850E+03  0.26058061699E+03  0.17524579852E+03 0.  0.
         24    2    3    3    0    0  0.87512497193E+02 -0.70479757932E+02  0.13747022161E+03  0.19429113985E+03  0.78899630852E+02 0.  0.
         -6    2    1    2    0  501 -0.98825809942E+02  0.11529255546E+02  0.26284683467E+03  0.32944212720E+03  0.17188424081E+03 0.  0.
        -24    2    5    5    0    0  0.83522808467E+01 -0.13914688313E+02  0.74101102768E+02  0.11085214863E+03  0.80832210644E+02 0.  0.
          5    1    3    3  502    0  0.11313312748E+02  0.58950502386E+02  0.27731786882E+02  0.66289477148E+02  0.47000000000E+01 0. -1.
        -11    1    4    4    0    0  0.42949299962E+02  0.10104281936E+02  0.56371613265E+02  0.71585596755E+02  0.00000000000E+00 0.  1.
         12    1    4    4    0    0  0.44563197231E+02 -0.80584039868E+02  0.81098608350E+02  0.12270554309E+03  0.00000000000E+00 0. -1.
         -5    1    5    5    0  501 -0.10717809079E+03  0.25443943859E+02  0.18874573190E+03  0.21858997858E+03  0.47000000000E+01 0.  1.
         13    1    6    6    0    0 -0.96889808355E+01 -0.64415280207E+01 -0.15368696174E+02  0.19276059114E+02  0.00000000000E+00 0. -1.
        -14    1    6    6    0    0  0.18041261682E+02 -0.74731602920E+01  0.89469798942E+02  0.91576089513E+02  0.00000000000E+00 0.  1.
</event>
<event>
12    1  0.2685360E-002  0.2533143E+03  0.7818608E-02  0.1111228E+00
         -1   -1    0    0    0  501 -0.00000000000E+00  0.00000000000E+00  0.11884038175E+03  0.11884038175E+03  0.00000000000E+00 0. -1.
          1   -1    0    0  502    0  0.00000000000E+00 -0.00000000000E+00 -0.54087463586E+03  0.54087463586E+03  0.00000000000E+00 0.  1.
          6    2    1    2  502    0  0.16979141893E+03  0.76100794515E+02 -0.19945095099E+03  0.32409306978E+03  0.17502908090E+03 0.  0.
         24    2    3    3    0    0  0.11436223096E+03  0.79646230889E+02 -0.21292349349E+03  0.26674706381E+03  0.79970869753E+02 0.  0.
         -6    2    1    2    0  501 -0.16979141893E+03 -0.76100794515E+02 -0.22258330313E+03  0.33562194784E+03  0.16875517228E+03 0.  0.
        -24    2    5    5    0    0 -0.73176494386E+02 -0.16464471963E+02 -0.18739493613E+03  0.21666293900E+03  0.78740643126E+02 0.  0.
          5    1    3    3  502    0  0.55429187970E+02 -0.35454363748E+01  0.13472542505E+02  0.57346005961E+02  0.47000000000E+01 0. -1.
        -13    1    4    4    0    0  0.77138208563E+01  0.13384321001E+02 -0.89011644892E+02  0.90342216086E+02  0.00000000000E+00 0.  1.
         14    1    4    4    0    0  0.10664841010E+03  0.66261909888E+02 -0.12391184860E+03  0.17640484773E+03  0.00000000000E+00 0. -1.
         -5    1    5    5    0  501 -0.96614924542E+02 -0.59636322551E+02 -0.35188366994E+02  0.11895900884E+03  0.47000000000E+01 0.  1.
         13    1    6    6    0    0 -0.41357204918E+01 -0.10129763236E+02  0.50937460893E+01  0.12069073553E+02  0.00000000000E+00 0. -1.
        -14    1    6    6    0    0 -0.69040773894E+02 -0.63347087271E+01 -0.19248868222E+03  0.20459386545E+03  0.00000000000E+00 0.  1.
</event>
<event>
12    1  0.2685360E-002  0.1758017E+03  0.7818608E-02  0.1171929E+00
         -4   -1    0    0    0  501 -0.00000000000E+00  0.00000000000E+00  0.63520381577E+02  0.63520381577E+02  0.00000000000E+00 0.  1.
          4   -1    0    0  502    0  0.00000000000E+00 -0.00000000000E+00 -0.49017220478E+03  0.49017220478E+03  0.00000000000E+00 0. -1.
          6    2    1    2  502    0  0.32627007484E+02 -0.13077956792E+02 -0.23398516428E+03  0.29127372202E+03  0.16986986038E+03 0.  0.
         24    2    3    3    0    0 -0.28380629713E+02  0.36146935046E+02 -0.10158191008E+03  0.13733304028E+03  0.80183654449E+02 0.  0.
         -6    2    1    2    0  501 -0.32627007484E+02  0.13077956792E+02 -0.19266665892E+03  0.26241886433E+03  0.17466443349E+03 0.  0.
        -24    2    5    5    0    0 -0.67662155826E+02  0.25377886937E+02 -0.19756549542E+03  0.22467183134E+03  0.78886642329E+02 0.  0.
          5    1    3    3  502    0  0.61007637196E+02 -0.49224891839E+02 -0.13240325420E+03  0.15394068174E+03  0.47000000000E+01 0. -1.
        -11    1    4    4    0    0  0.19440756971E+02  0.26033384906E+02 -0.74904339170E+02  0.81647658801E+02  0.00000000000E+00 0.  1.
         12    1    4    4    0    0 -0.47821386684E+02  0.10113550140E+02 -0.26677570913E+02  0.55685381480E+02  0.00000000000E+00 0. -1.
         -5    1    5    5    0  501  0.35035148342E+02 -0.12299930144E+02  0.48988365017E+01  0.37747032996E+02  0.47000000000E+01 0.  1.
         11    1    6    6    0    0  0.16584957894E+02  0.11141380670E+02 -0.54345663793E+02  0.57902006569E+02  0.00000000000E+00 0. -1.
        -12    1    6    6    0    0 -0.84247113720E+02  0.14236506267E+02 -0.14321983163E+03  0.16676982477E+03  0.00000000000E+00 0.  1.
</event>
<event>
12    1  0.2685360E-002  0.1718443E+03  0.7818608E-02  0.1175938E+00
          1   -1    0    0  502    0  0.00000000000E+00  0.00000000000E+00  0.11402780357E+03  0.11402780357E+03  0.00000000000E+00 0. -1.
         -1   -1    0    0    0  501 -0.00000000000E+00 -0.00000000000E+00 -0.26505401951E+03  0.26505401951E+03  0.00000000000E+00 0.  1.
          6    2    1    2  502    0  0.17653640073E+02 -0.13108344417E+02 -0.47604557703E+02  0.17996808617E+03  0.17215934022E+03 0.  0.
         24    2    3    3    0    0 -0.21923972185E+02  0.42009660526E+02 -0.35810165164E+02  0.11093490895E+03  0.93694791539E+02 0.  0.
         -6    2    1    2    0  501 -0.17653640073E+02  0.13108344417E+02 -0.10342165824E+03  0.19911373691E+03  0.16872095642E+03 0.  0.
        -24    2    5    5    0    0  0.19407141059E+02  0.59040457074E+02 -0.88957224840E+02  0.13816646212E+03  0.85522925044E+02 0.  0.
          5    1    3    3  502    0  0.39577612258E+02 -0.55118004943E+02 -0.11794392540E+02  0.69033177214E+02  0.47000000000E+01 0. -1.
        -11    1    4    4    0    0  0.33679657045E+02  0.33890073626E+01 -0.25663685998E+02  0.42478576348E+02  0.00000000000E+00 0.  1.
         12    1    4    4    0    0 -0.55603629229E+02  0.38620653164E+02 -0.10146479166E+02  0.68456332605E+02  0.00000000000E+00 0. -1.
         -5    1    5    5    0  501 -0.37060781132E+02 -0.45932112657E+02 -0.14464433396E+02  0.60947274794E+02  0.47000000000E+01 0.  1.
         13    1    6    6    0    0 -0.13489852810E+02  0.69807602134E+02 -0.59132245646E+02  0.92475401701E+02  0.00000000000E+00 0. -1.
        -14    1    6    6    0    0  0.32896993869E+02 -0.10767145061E+02 -0.29824979194E+02  0.45691060420E+02  0.00000000000E+00 0.  1.
</event>
<event>
12    1  0.2685360E-002  0.1808587E+03  0.7818608E-02  0.1166975E+00
          1   -1    0    0  502    0  0.00000000000E+00  0.00000000000E+00  0.80016403254E+03  0.80016403254E+03  0.00000000000E+00 0. -1.
         -1   -1    0    0    0  501 -0.00000000000E+00 -0.00000000000E+00 -0.41103865620E+02  0.41103865620E+02  0.00000000000E+00 0.  1.
          6    2    1    2  502    0  0.60381416730E+02  0.31804524374E+02  0.34044667235E+03  0.38329893168E+03  0.16234743932E+03 0.  0.
         24    2    3    3    0    0  0.28727938820E+02 -0.33883998031E+01  0.32049954085E+03  0.33171925902E+03  0.80504257029E+02 0.  0.
         -6    2    1    2    0  501 -0.60381416730E+02 -0.31804524374E+02  0.41861349457E+03  0.45796896648E+03  0.17274511041E+03 0.  0.
        -24    2    5    5    0    0 -0.98085611156E+02 -0.28498310059E+02  0.38582052248E+03  0.40766979802E+03  0.83091803762E+02 0.  0.
          5    1    3    3  502    0  0.31653477910E+02  0.35192924177E+02  0.19947131502E+02  0.51579672654E+02  0.47000000000E+01 0. -1.
        -11    1    4    4    0    0  0.42525249812E+02 -0.18510601442E+02  0.99552536561E+02  0.10982598405E+03  0.00000000000E+00 0.  1.
         12    1    4    4    0    0 -0.13797310992E+02  0.15122201639E+02  0.22094700429E+03  0.22189327497E+03  0.00000000000E+00 0. -1.
         -5    1    5    5    0  501  0.37704194425E+02 -0.33062143150E+01  0.32792972082E+02  0.50299168466E+02  0.47000000000E+01 0.  1.
         13    1    6    6    0    0 -0.44317605893E+02 -0.25568266647E+02  0.31271709574E+03  0.31687500441E+03  0.00000000000E+00 0. -1.
        -14    1    6    6    0    0 -0.53768005263E+02 -0.29300434116E+01  0.73103426745E+02  0.90794793608E+02  0.00000000000E+00 0.  1.
</event>
<event>
12    1  0.2685360E-002  0.2174010E+03  0.7818608E-02  0.1135836E+00
         -1   -1    0    0    0  501 -0.00000000000E+00  0.00000000000E+00  0.84441725635E+02  0.84441725635E+02  0.00000000000E+00 0.  1.
          1   -1    0    0  502    0  0.00000000000E+00 -0.00000000000E+00 -0.60420911978E+03  0.60420911978E+03  0.00000000000E+00 0. -1.
          6    2    1    2  502    0  0.11132376290E+03 -0.50550156142E+02 -0.17149409553E+03  0.28034866244E+03  0.18503202225E+03 0.  0.
         24    2    3    3    0    0  0.78519577524E+01 -0.71643426936E+02 -0.11627896557E+03  0.16109204372E+03  0.85061241762E+02 0.  0.
         -6    2    1    2    0  501 -0.11132376290E+03  0.50550156142E+02 -0.34827329862E+03  0.40830218298E+03  0.17455109173E+03 0.  0.
        -24    2    5    5    0    0 -0.13312949633E+03  0.82683830733E+02 -0.25971299187E+03  0.31148750958E+03  0.70806439131E+02 0.  0.
          5    1    3    3  502    0  0.10347180515E+03  0.21093270793E+02 -0.55215129955E+02  0.11925661872E+03  0.47000000000E+01 0. -1.
        -11    1    4    4    0    0  0.13306471629E+02 -0.42509753365E+02 -0.37231515836E+01  0.44699028804E+02  0.00000000000E+00 0.  1.
         12    1    4    4    0    0 -0.54545138764E+01 -0.29133673571E+02 -0.11255581399E+03  0.11639301491E+03  0.00000000000E+00 0. -1.
         -5    1    5    5    0  501  0.21805733434E+02 -0.32133674591E+02 -0.88560306746E+02  0.96814673394E+02  0.47000000000E+01 0.  1.
         11    1    6    6    0    0 -0.55497646332E+02 -0.33324600381E+01 -0.73321909321E+02  0.92017370234E+02  0.00000000000E+00 0. -1.
        -12    1    6    6    0    0 -0.77631850000E+02  0.86016290771E+02 -0.18639108255E+03  0.21947013935E+03  0.00000000000E+00 0.  1.
</event>
<event>
12    1  0.2685360E-002  0.1906271E+03  0.7818608E-02  0.1157897E+00
         -1   -1    0    0    0  501 -0.00000000000E+00  0.00000000000E+00  0.73881195761E+02  0.73881195761E+02  0.00000000000E+00 0.  1.
          1   -1    0    0  502    0  0.00000000000E+00 -0.00000000000E+00 -0.49577771609E+03  0.49577771609E+03  0.00000000000E+00 0. -1.
          6    2    1    2  502    0 -0.80004217397E+02 -0.35025156314E+01 -0.18444361842E+03  0.26445777364E+03  0.17177171841E+03 0.  0.
         24    2    3    3    0    0 -0.17016206657E+02  0.25598145387E+02 -0.21418847377E+02  0.87219222691E+02  0.78762995421E+02 0.  0.
         -6    2    1    2    0  501  0.80004217397E+02  0.35025156314E+01 -0.23745290190E+03  0.30520113821E+03  0.17421513058E+03 0.  0.
        -24    2    5    5    0    0  0.24326628595E+02  0.11334407144E+01 -0.23607050078E+03  0.24925824372E+03  0.76205781765E+02 0.  0.
          5    1    3    3  502    0 -0.62988010741E+02 -0.29100661018E+02 -0.16302477105E+03  0.17723855095E+03  0.47000000000E+01 0. -1.
        -11    1    4    4    0    0 -0.24713664065E+02 -0.22508620790E+02  0.13234504029E+01  0.33453769928E+02  0.00000000000E+00 0.  1.
         12    1    4    4    0    0  0.76974574086E+01  0.48106766177E+02 -0.22742297780E+02  0.53765452763E+02  0.00000000000E+00 0. -1.
         -5    1    5    5    0  501  0.55677588802E+02  0.23690749169E+01 -0.13824011184E+01  0.55942894487E+02  0.47000000000E+01 0.  1.
         13    1    6    6    0    0  0.10167292517E+02 -0.31849800354E+02 -0.17705767632E+03  0.18018658208E+03  0.00000000000E+00 0. -1.
        -14    1    6    6    0    0  0.14159336078E+02  0.32983241069E+02 -0.59012824467E+02  0.69071661636E+02  0.00000000000E+00 0.  1.
</event>
<event>
12    1  0.2685360E-002  0.2098855E+03  0.7818608E-02  0.1141657E+00
         -2   -1    0    0    0  501 -0.00000000000E+00  0.00000000000E+00  0.10877637571E+03  0.10877637571E+03  0.00000000000E+00 0.  1.
          2   -1    0    0  502    0  0.00000000000E+00 -0.00000000000E+00 -0.41160744899E+03  0.41160744899E+03  0.00000000000E+00 0. -1.
          6    2    1    2  502    0 -0.15253670133E+01 -0.12039909200E+03 -0.11851329690E+03  0.24118250102E+03  0.17212010097E+03 0.  0.
         24    2    3    3    0    0  0.43076490515E+01  0.41540253561E+01 -0.39823266592E+02  0.93663980183E+02  0.84564985985E+02 0.  0.
         -6    2    1    2    0  501  0.15253670133E+01  0.12039909200E+03 -0.18431777637E+03  0.27920132368E+03  0.17170343141E+03 0.  0.
        -24    2    5    5    0    0  0.17809850787E+02  0.39440689952E+01 -0.45870159530E+02  0.97496096996E+02  0.84075388366E+02 0.  0.
          5    1    3    3  502    0 -0.58330160648E+01 -0.12455311736E+03 -0.78690030311E+02  0.14751852084E+03  0.47000000000E+01 0. -1.
        -11    1    4    4    0    0  0.38730996937E+02 -0.42773989371E+01  0.17855076969E+01  0.39007362166E+02  0.00000000000E+00 0.  1.
         12    1    4    4    0    0 -0.34423347885E+02  0.84314242931E+01 -0.41608774289E+02  0.54656618017E+02  0.00000000000E+00 0. -1.
         -5    1    5    5    0  501 -0.16284483774E+02  0.11645502301E+03 -0.13844761684E+03  0.18170522669E+03  0.47000000000E+01 0.  1.
         11    1    6    6    0    0  0.22844970760E+01 -0.31474536160E+02 -0.49447231716E+02  0.58659134648E+02  0.00000000000E+00 0. -1.
        -12    1    6    6    0    0  0.15525353711E+02  0.35418605155E+02  0.35770721855E+01  0.38836962348E+02  0.00000000000E+00 0.  1.
</event>
<event>
12    1  0.2890269E-002  0.2185011E+03  0.7818608E-02  0.1135005E+00
         -2   -1    0    0    0  501 -0.00000000000E+00  0.00000000000E+00  0.26767691103E+02  0.26767691103E+02  0.00000000000E+00 0. -1.
          2   -1    0    0  502    0  0.00000000000E+00 -0.00000000000E+00 -0.21106024879E+04  0.21106024879E+04  0.00000000000E+00 0.  1.
          6    2    1    2  502    0  0.71661872179E+02 -0.11437757109E+03 -0.14639313540E+04  0.14801979037E+04  0.17225902681E+03 0.  0.
         24    2    3    3    0    0 -0.61272922534E+01 -0.22324370578E+02 -0.89032667741E+03  0.89405000360E+03  0.78153024272E+02 0.  0.
         -6    2    1    2    0  501 -0.71661872179E+02  0.11437757109E+03 -0.61990344284E+03  0.65717227530E+03  0.17139856561E+03 0.  0.
        -24    2    5    5    0    0 -0.33633174608E+02  0.74540880603E+02 -0.57446626806E+03  0.58561970302E+03  0.79065859356E+02 0.  0.
          5    1    3    3  502    0  0.77789164433E+02 -0.92053200517E+02 -0.57360467657E+03  0.58614790012E+03  0.47000000000E+01 0. -1.
        -13    1    4    4    0    0  0.19300092444E+02 -0.43671603971E+02 -0.57567128145E+03  0.57764792638E+03  0.00000000000E+00 0.  1.
         14    1    4    4    0    0 -0.25427384697E+02  0.21347233393E+02 -0.31465539596E+03  0.31640207723E+03  0.00000000000E+00 0. -1.
         -5    1    5    5    0  501 -0.38028697572E+02  0.39836690491E+02 -0.45437174780E+02  0.71552572282E+02  0.47000000000E+01 0.  1.
         11    1    6    6    0    0 -0.12593855759E+02  0.14497602698E+02 -0.20798199512E+02  0.28308139992E+02  0.00000000000E+00 0. -1.
        -12    1    6    6    0    0 -0.21039318848E+02  0.60043277905E+02 -0.55366806854E+03  0.55731156303E+03  0.00000000000E+00 0.  1.
</event>
<event>
12    1  0.2685360E-002  0.1963890E+03  0.7818608E-02  0.1152822E+00
          4   -1    0    0  502    0  0.00000000000E+00  0.00000000000E+00  0.79092224496E+03  0.79092224496E+03  0.00000000000E+00 0. -1.
         -4   -1    0    0    0  501 -0.00000000000E+00 -0.00000000000E+00 -0.24147116360E+03  0.24147116360E+03  0.00000000000E+00 0.  1.
          6    2    1    2  502    0  0.89814914659E+02  0.26323178037E+02  0.73604638026E+03  0.76196380195E+03  0.17339242482E+03 0.  0.
         24    2    3    3    0    0  0.84311659187E+02 -0.16244591206E+02  0.27870507845E+03  0.30258872955E+03  0.80691237924E+02 0.  0.
         -6    2    1    2    0  501 -0.89814914659E+02 -0.26323178037E+02 -0.18659529890E+03  0.27042960662E+03  0.17191491490E+03 0.  0.
        -24    2    5    5    0    0 -0.34343990248E+02  0.15410546437E+02 -0.18039543899E+03  0.20057793895E+03  0.79195963134E+02 0.  0.
          5    1    3    3  502    0  0.55032554714E+01  0.42567769243E+02  0.45734130181E+03  0.45937507240E+03  0.47000000000E+01 0. -1.
        -13    1    4    4    0    0  0.94901678269E+02  0.39149423696E+01  0.22892926717E+03  0.24785129550E+03  0.00000000000E+00 0.  1.
         14    1    4    4    0    0 -0.10590019081E+02 -0.20159533575E+02  0.49775811275E+02  0.54737434049E+02  0.00000000000E+00 0. -1.
         -5    1    5    5    0  501 -0.55470924411E+02 -0.41733724474E+02 -0.61998599143E+01  0.69851667671E+02  0.47000000000E+01 0.  1.
         11    1    6    6    0    0 -0.25849059383E+02  0.30034382501E+02 -0.31220998371E+02  0.50447881446E+02  0.00000000000E+00 0. -1.
        -12    1    6    6    0    0 -0.84949308651E+01 -0.14623836064E+02 -0.14917444062E+03  0.15013005750E+03  0.00000000000E+00 0.  1.
</event>
<event>
12    1  0.2685360E-002  0.1730255E+03  0.7818608E-02  0.1174729E+00
         -2   -1    0    0    0  501 -0.00000000000E+00  0.00000000000E+00  0.10360238922E+03  0.10360238922E+03  0.00000000000E+00 0. -1.
          2   -1    0    0  502    0  0.00000000000E+00 -0.00000000000E+00 -0.29458777360E+03  0.29458777360E+03  0.00000000000E+00 0.  1.
          6    2    1    2  502    0 -0.12785824154E+02  0.42123219310E+01 -0.68263558114E+02  0.18645648893E+03  0.17298811503E+03 0.  0.
         24    2    3    3    0    0 -0.48418440709E+02 -0.21560177940E+02 -0.93679819052E+02  0.13544686795E+03  0.82223833933E+02 0.  0.
         -6    2    1    2    0  501  0.12785824154E+02 -0.42123219310E+01 -0.12272182626E+03  0.21173367389E+03  0.17201535123E+03 0.  0.
        -24    2    5    5    0    0 -0.43738268137E+02  0.76423383970E+01 -0.12183026281E+03  0.15378204866E+03  0.82673237007E+02 0.  0.
          5    1    3    3  502    0  0.35632616555E+02  0.25772499871E+02  0.25416260938E+02  0.51009620977E+02  0.47000000000E+01 0. -1.
        -11    1    4    4    0    0 -0.12229100953E+02  0.35819980742E+01 -0.90362250178E+02  0.91256330616E+02  0.00000000000E+00 0.  1.
         12    1    4    4    0    0 -0.36189339756E+02 -0.25142176014E+02 -0.33175688744E+01  0.44190537335E+02  0.00000000000E+00 0. -1.
         -5    1    5    5    0  501  0.56524092291E+02 -0.11854660328E+02 -0.89156344913E+00  0.57951625224E+02  0.47000000000E+01 0.  1.
         11    1    6    6    0    0  0.21130982058E+02  0.41344000374E+01 -0.84923399495E+01  0.23145874453E+02  0.00000000000E+00 0. -1.
        -12    1    6    6    0    0 -0.64869250194E+02  0.35079383596E+01 -0.11333792286E+03  0.13063617421E+03  0.00000000000E+00 0.  1.
</event>
<event>
12    1  0.2685360E-002  0.1895809E+03  0.7818608E-02  0.1158840E+00
          2   -1    0    0  502    0  0.00000000000E+00  0.00000000000E+00  0.20039688888E+04  0.20039688888E+04  0.00000000000E+00 0. -1.
         -2   -1    0    0    0  501 -0.00000000000E+00 -0.00000000000E+00 -0.18065066534E+02  0.18065066534E+02  0.00000000000E+00 0.  1.
          6    2    1    2  502    0  0.44931321738E+02 -0.68915212131E+02  0.10811356259E+04  0.10977111428E+04  0.17131077391E+03 0.  0.
         24    2    3    3    0    0  0.96707700250E+02 -0.52034051064E+02  0.77481442623E+03  0.78655116088E+03  0.79154354437E+02 0.  0.
         -6    2    1    2    0  501 -0.44931321738E+02  0.68915212131E+02  0.90476819639E+03  0.92432281258E+03  0.17029105236E+03 0.  0.
        -24    2    5    5    0    0 -0.53579074360E+01  0.10697488539E+03  0.61093204247E+03  0.62536400405E+03  0.79811300962E+02 0.  0.
          5    1    3    3  502    0 -0.51776378511E+02 -0.16881161067E+02  0.30632119969E+03  0.31115998192E+03  0.47000000000E+01 0. -1.
        -13    1    4    4    0    0  0.84362732059E+02 -0.56666018364E+02  0.44433642688E+03  0.45581023294E+03  0.00000000000E+00 0.  1.
         14    1    4    4    0    0  0.12344968191E+02  0.46319672994E+01  0.33047799935E+03  0.33074092794E+03  0.00000000000E+00 0. -1.
         -5    1    5    5    0  501 -0.39573414302E+02 -0.38059673263E+02  0.29383615392E+03  0.29895880853E+03  0.47000000000E+01 0.  1.
         13    1    6    6    0    0  0.47401006359E+00 -0.88300361485E+01  0.14324197733E+03  0.14351466229E+03  0.00000000000E+00 0. -1.
        -14    1    6    6    0    0 -0.58319174996E+01  0.11580492154E+03  0.46769006514E+03  0.48184934175E+03  0.00000000000E+00 0.  1.
</event>
<event>
12    1  0.2685360E-002  0.2114930E+03  0.7818608E-02  0.1140389E+00
         -1   -1    0    0    0  501 -0.00000000000E+00  0.00000000000E+00  0.30616705001E+02  0.30616705001E+02  0.00000000000E+00 0.  1.
          1   -1    0    0  502    0  0.00000000000E+00 -0.00000000000E+00 -0.17719714627E+04  0.17719714627E+04  0.00000000000E+00 0. -1.
          6    2    1    2  502    0 -0.63173764253E+02 -0.11228564195E+03 -0.50500316350E+03  0.54884751883E+03  0.17206514438E+03 0.  0.
         24    2    3    3    0    0 -0.96640493320E+01 -0.38483902116E+01 -0.14118114258E+03  0.16542806176E+03  0.85592783821E+02 0.  0.
         -6    2    1    2    0  501  0.63173764253E+02  0.11228564195E+03 -0.12363515942E+04  0.12537406489E+04  0.16340550867E+03 0.  0.
        -24    2    5    5    0    0  0.63859340156E+02  0.96790333287E+02 -0.12269047920E+04  0.12349814731E+04  0.80233946838E+02 0.  0.
          5    1    3    3  502    0 -0.53509714921E+02 -0.10843725173E+03 -0.36382202092E+03  0.38341945707E+03  0.47000000000E+01 0. -1.
        -13    1    4    4    0    0 -0.32766331367E+01  0.40893893307E+02 -0.67691711707E+02  0.79153109025E+02  0.00000000000E+00 0.  1.
         14    1    4    4    0    0 -0.63874161953E+01 -0.44742283519E+02 -0.73489430873E+02  0.86274952739E+02  0.00000000000E+00 0. -1.
         -5    1    5    5    0  501 -0.68557590312E+00  0.15495308658E+02 -0.94468021772E+01  0.18759175784E+02  0.47000000000E+01 0.  1.
         11    1    6    6    0    0  0.41354316155E+02  0.36570587476E+02 -0.25279341672E+03  0.25875103647E+03  0.00000000000E+00 0. -1.
        -12    1    6    6    0    0  0.22505024001E+02  0.60219745811E+02 -0.97411137529E+03  0.97623043660E+03  0.00000000000E+00 0.  1.
</event>
<event>
12    1  0.2685360E-002  0.2770663E+03  0.7818608E-02  0.1097302E+00
          2   -1    0    0  502    0  0.00000000000E+00  0.00000000000E+00  0.28226128664E+03  0.28226128664E+03  0.00000000000E+00 0.  1.
         -2   -1    0    0    0  501 -0.00000000000E+00 -0.00000000000E+00 -0.27447864132E+03  0.27447864132E+03  0.00000000000E+00 0. -1.
          6    2    1    2  502    0 -0.49803039471E+02  0.21104302715E+03 -0.22691100074E+02  0.27922617174E+03  0.17445018461E+03 0.  0.
         24    2    3    3    0    0 -0.69317646984E+01  0.13703441193E+03  0.50690666258E+02  0.16643346383E+03  0.79398204144E+02 0.  0.
         -6    2    1    2    0  501  0.49803039471E+02 -0.21104302715E+03  0.30473745391E+02  0.27751375622E+03  0.17048675516E+03 0.  0.
        -24    2    5    5    0    0  0.56623690873E+02 -0.23212552665E+03  0.34212243533E+02  0.25455598109E+03  0.80868828403E+02 0.  0.
          5    1    3    3  502    0 -0.42871274772E+02  0.74008615223E+02 -0.73381766332E+02  0.11279270791E+03  0.47000000000E+01 0. -1.
        -11    1    4    4    0    0 -0.38848013619E+02  0.39140104430E+02  0.23451170775E+02  0.59925565059E+02  0.00000000000E+00 0.  1.
         12    1    4    4    0    0  0.31916248921E+02  0.97894307499E+02  0.27239495483E+02  0.10650789877E+03  0.00000000000E+00 0. -1.
         -5    1    5    5    0  501 -0.68206514019E+01  0.21082499501E+02 -0.37384981424E+01  0.22957775134E+02  0.47000000000E+01 0.  1.
         11    1    6    6    0    0  0.27311992659E+02 -0.19838251441E+03  0.34261581087E+01  0.20028306350E+03  0.00000000000E+00 0. -1.
        -12    1    6    6    0    0  0.29311698214E+02 -0.33743012247E+02  0.30786085425E+02  0.54272917587E+02  0.00000000000E+00 0.  1.
</event>
<event>
12    1  0.2685360E-002  0.1836694E+03  0.7818608E-02  0.1164298E+00
         -1   -1    0    0    0  501 -0.00000000000E+00  0.00000000000E+00  0.11496464775E+03  0.11496464775E+03  0.00000000000E+00 0. -1.
          1   -1    0    0  502    0  0.00000000000E+00 -0.00000000000E+00 -0.29413266685E+03  0.29413266685E+03  0.00000000000E+00 0.  1.
          6    2    1    2  502    0 -0.65360939629E+02 -0.71066302585E+01 -0.99082489945E+02  0.20791881504E+03  0.17055889660E+03 0.  0.
         24    2    3    3    0    0 -0.79222690748E+02  0.32018233806E+01 -0.54381550314E+01  0.11257856214E+03  0.79736269801E+02 0.  0.
         -6    2    1    2    0  501  0.65360939629E+02  0.71066302585E+01 -0.80085529164E+02  0.20117849956E+03  0.17244286034E+03 0.  0.
        -24    2    5    5    0    0  0.68464175018E+02  0.64690594470E+02 -0.69426921526E+02  0.14234620468E+03  0.81056327825E+02 0.  0.
          5    1    3    3  502    0  0.13861751119E+02 -0.10308453639E+02 -0.93644334913E+02  0.95340252894E+02  0.47000000000E+01 0. -1.
        -11    1    4    4    0    0 -0.58217640191E+02  0.55764628697E+01 -0.40849428294E+02  0.71337692418E+02  0.00000000000E+00 0.  1.
         12    1    4    4    0    0 -0.21005050557E+02 -0.23746394891E+01  0.35411273263E+02  0.41240869726E+02  0.00000000000E+00 0. -1.
         -5    1    5    5    0  501 -0.31032353893E+01 -0.57583964212E+02 -0.10658607638E+02  0.58832294881E+02  0.47000000000E+01 0.  1.
         11    1    6    6    0    0  0.12456477889E+02  0.60465016891E+02 -0.13724422287E+02  0.63241931312E+02  0.00000000000E+00 0. -1.
        -12    1    6    6    0    0  0.56007697129E+02  0.42255775792E+01 -0.55702499239E+02  0.79104273368E+02  0.00000000000E+00 0.  1.
</event>
<event>
12    1  0.2685360E-002  0.1884070E+03  0.7818608E-02  0.1159906E+00
         -2   -1    0    0    0  501 -0.00000000000E+00  0.00000000000E+00  0.10160909927E+03  0.10160909927E+03  0.00000000000E+00 0.  1.
          2   -1    0    0  502    0  0.00000000000E+00 -0.00000000000E+00 -0.35993176889E+03  0.35993176889E+03  0.00000000000E+00 0. -1.
          6    2    1    2  502    0 -0.67846813496E+02  0.31152652411E+02 -0.89330642739E+02  0.20815078456E+03  0.17254885548E+03 0.  0.
         24    2    3    3    0    0  0.24906887312E+02 -0.13616726609E+02 -0.32899644202E+02  0.90617410973E+02  0.79519559253E+02 0.  0.
         -6    2    1    2    0  501  0.67846813496E+02 -0.31152652411E+02 -0.16899202688E+03  0.25339008360E+03  0.17342015875E+03 0.  0.
        -24    2    5    5    0    0  0.91044511980E+02  0.21843899618E+02 -0.78333329115E+02  0.14574317364E+03  0.79615972652E+02 0.  0.
          5    1    3    3  502    0 -0.92753700808E+02  0.44769379020E+02 -0.56430998537E+02  0.11753337359E+03  0.47000000000E+01 0. -1.
        -13    1    4    4    0    0  0.14175033703E+02  0.18136792953E+02 -0.48470811348E+02  0.53659056941E+02  0.00000000000E+00 0.  1.
         14    1    4    4    0    0  0.10731853609E+02 -0.31753519562E+02  0.15571167146E+02  0.36958354032E+02  0.00000000000E+00 0. -1.
         -5    1    5    5    0  501 -0.23197698485E+02 -0.52996552029E+02 -0.90658697766E+02  0.10764690995E+03  0.47000000000E+01 0.  1.
         13    1    6    6    0    0  0.74434218324E+02 -0.14560285973E+02 -0.26673292707E+02  0.80398503275E+02  0.00000000000E+00 0. -1.
        -14    1    6    6    0    0  0.16610293657E+02  0.36404185591E+02 -0.51660036408E+02  0.65344670368E+02  0.00000000000E+00 0.  1.
</event>
<event>
12    1  0.2685360E-002  0.1788977E+03  0.7818608E-02  0.1168874E+00
         -1   -1    0    0    0  501 -0.00000000000E+00  0.00000000000E+00  0.30136806164E+02  0.30136806164E+02  0.00000000000E+00 0. -1.
          1   -1    0    0  502    0  0.00000000000E+00 -0.00000000000E+00 -0.18095947626E+04  0.18095947626E+04  0.00000000000E+00 0.  1.
          6    2    1    2  502    0 -0.38166902960E+02 -0.27721080763E+02 -0.14779401253E+04  0.14886042997E+04  0.17149511965E+03 0.  0.
         24    2    3    3    0    0 -0.33914657984E+01  0.49985161030E+02 -0.79525449737E+03  0.80061494823E+03  0.77746777258E+02 0.  0.
         -6    2    1    2    0  501  0.38166902960E+02  0.27721080763E+02 -0.30151783107E+03  0.35112726908E+03  0.17364384768E+03 0.  0.
        -24    2    5    5    0    0  0.52173846158E+02 -0.23469564504E+02 -0.86912805051E+02  0.13000720257E+03  0.77942968622E+02 0.  0.
          5    1    3    3  502    0 -0.34775437162E+02 -0.77706241793E+02 -0.68268562797E+03  0.68798935143E+03  0.47000000000E+01 0. -1.
        -13    1    4    4    0    0  0.33201526709E+02  0.11133648755E+02 -0.43776349616E+03  0.43916190418E+03  0.00000000000E+00 0.  1.
         14    1    4    4    0    0 -0.36592992508E+02  0.38851512275E+02 -0.35749100121E+03  0.36145304405E+03  0.00000000000E+00 0. -1.
         -5    1    5    5    0  501 -0.14006943198E+02  0.51190645268E+02 -0.21460502602E+03  0.22112006651E+03  0.47000000000E+01 0.  1.
         13    1    6    6    0    0  0.20470648006E+02  0.28656875788E+02 -0.25830704411E+02  0.43674812536E+02  0.00000000000E+00 0. -1.
        -14    1    6    6    0    0  0.31703198153E+02 -0.52126440292E+02 -0.61082100639E+02  0.86332390035E+02  0.00000000000E+00 0.  1.
</event>
<event>
12    1  0.2685360E-002  0.1838793E+03  0.7818608E-02  0.1164101E+00
         -1   -1    0    0    0  501 -0.00000000000E+00  0.00000000000E+00  0.23204163629E+02  0.23204163629E+02  0.00000000000E+00 0. -1.
          1   -1    0    0  502    0  0.00000000000E+00 -0.00000000000E+00 -0.16037102884E+04  0.16037102884E+04  0.00000000000E+00 0.  1.
          6    2    1    2  502    0 -0.11305024442E+02  0.25011253113E+02 -0.10681968564E+04  0.10855124806E+04  0.19115296295E+03 0.  0.
         24    2    3    3    0    0  0.14718681813E+02  0.85824293678E+02 -0.73048107243E+03  0.74134754935E+03  0.91712282525E+02 0.  0.
         -6    2    1    2    0  501  0.11305024442E+02 -0.25011253113E+02 -0.51230926836E+03  0.54140197137E+03  0.17292177943E+03 0.  0.
        -24    2    5    5    0    0  0.38259146941E+02  0.49080635823E+02 -0.28789881222E+03  0.30349805054E+03  0.73161939997E+02 0.  0.
          5    1    3    3  502    0 -0.26023706255E+02 -0.60813040565E+02 -0.33771578396E+03  0.34416493128E+03  0.47000000000E+01 0. -1.
        -11    1    4    4    0    0  0.39604420724E+02  0.70547933102E+02 -0.32883352406E+03  0.33863993792E+03  0.00000000000E+00 0.  1.
         12    1    4    4    0    0 -0.24885738912E+02  0.15276360576E+02 -0.40164754837E+03  0.40270761143E+03  0.00000000000E+00 0. -1.
         -5    1    5    5    0  501 -0.26954122499E+02 -0.74091888935E+02 -0.22441045613E+03  0.23790392083E+03  0.47000000000E+01 0.  1.
         11    1    6    6    0    0  0.26927843383E+02  0.49978881191E+02 -0.97977337501E+02  0.11323672539E+03  0.00000000000E+00 0. -1.
        -12    1    6    6    0    0  0.11331303559E+02 -0.89824536789E+00 -0.18992147472E+03  0.19026132515E+03  0.00000000000E+00 0.  1.
</event>
<event>
12    1  0.2685360E-002  0.1878311E+03  0.7818608E-02  0.1160432E+00
          2   -1    0    0  502    0  0.00000000000E+00  0.00000000000E+00  0.11746534670E+04  0.11746534670E+04  0.00000000000E+00 0. -1.
         -2   -1    0    0    0  501 -0.00000000000E+00 -0.00000000000E+00 -0.31536301106E+02  0.31536301106E+02  0.00000000000E+00 0.  1.
          6    2    1    2  502    0 -0.57524522596E+02  0.80435588983E+01  0.48956867200E+03  0.52984633552E+03  0.19412852732E+03 0.  0.
         24    2    3    3    0    0 -0.65209159886E+02  0.54058839315E+02  0.16318684106E+03  0.20011364189E+03  0.78999569194E+02 0.  0.
         -6    2    1    2    0  501  0.57524522596E+02 -0.80435588983E+01  0.65354849389E+03  0.67634343258E+03  0.16413724560E+03 0.  0.
        -24    2    5    5    0    0  0.93166646077E+02 -0.32991529908E+02  0.53794447602E+03  0.55273460939E+03  0.79767312538E+02 0.  0.
          5    1    3    3  502    0  0.76846372898E+01 -0.46015280416E+02  0.32638183094E+03  0.32973269363E+03  0.47000000000E+01 0. -1.
        -11    1    4    4    0    0 -0.19354524203E+02 -0.20544242545E+02  0.37795318245E+02  0.47171491285E+02  0.00000000000E+00 0.  1.
         12    1    4    4    0    0 -0.45854635683E+02  0.74603081859E+02  0.12539152282E+03  0.15294215060E+03  0.00000000000E+00 0. -1.
         -5    1    5    5    0  501 -0.35642123481E+02  0.24947971010E+02  0.11560401787E+03  0.12360882319E+03  0.47000000000E+01 0.  1.
         13    1    6    6    0    0  0.61402677894E+02  0.40612899009E+01  0.15622407102E+03  0.16790694832E+03  0.00000000000E+00 0. -1.
        -14    1    6    6    0    0  0.31763968183E+02 -0.37052819809E+02  0.38172040500E+03  0.38482766107E+03  0.00000000000E+00 0.  1.
</event>
<event>
12    1  0.2685360E-002  0.1932007E+03  0.7818608E-02  0.1155606E+00
         -2   -1    0    0    0  501 -0.00000000000E+00  0.00000000000E+00  0.98513525920E+02  0.98513525920E+02  0.00000000000E+00 0.  1.
          2   -1    0    0  502    0  0.00000000000E+00 -0.00000000000E+00 -0.73931750889E+03  0.73931750889E+03  0.00000000000E+00 0. -1.
          6    2    1    2  502    0  0.79869170953E+02 -0.29584465888E+02 -0.61422522757E+03  0.64437251567E+03  0.17518271513E+03 0.  0.
         24    2    3    3    0    0  0.10307580441E+03 -0.49000182303E+02 -0.32421044549E+03  0.35274573071E+03  0.79318965270E+02 0.  0.
         -6    2    1    2    0  501 -0.79869170953E+02  0.29584465888E+02 -0.26578755399E+02  0.19345851914E+03  0.17165501244E+03 0.  0.
        -24    2    5    5    0    0 -0.19105862366E+02  0.47448816031E+02 -0.69290355953E+02  0.11692300125E+03  0.79078509553E+02 0.  0.
          5    1    3    3  502    0 -0.23206633456E+02  0.19415716415E+02 -0.29001478208E+03  0.29162678496E+03  0.47000000000E+01 0. -1.
        -13    1    4    4    0    0  0.79975571918E+02  0.27503818756E+01 -0.15745261059E+03  0.17662101032E+03  0.00000000000E+00 0.  1.
         14    1    4    4    0    0  0.23100232491E+02 -0.51750564178E+02 -0.16675783490E+03  0.17612472040E+03  0.00000000000E+00 0. -1.
         -5    1    5    5    0  501 -0.60763308587E+02 -0.17864350144E+02  0.42711600555E+02  0.76535517888E+02  0.47000000000E+01 0.  1.
         11    1    6    6    0    0  0.25326657678E+02  0.22076526061E+02 -0.37960218235E+01  0.33811571595E+02  0.00000000000E+00 0. -1.
        -12    1    6    6    0    0 -0.44432520044E+02  0.25372289970E+02 -0.65494334130E+02  0.83111429653E+02  0.00000000000E+00 0.  1.
</event>
<event>
12    1  0.2685360E-002  0.3337066E+03  0.7818608E-02  0.1069508E+00
         -2   -1    0    0    0  501 -0.00000000000E+00  0.00000000000E+00  0.22016488455E+03  0.22016488455E+03  0.00000000000E+00 0. -1.
          2   -1    0    0  502    0  0.00000000000E+00 -0.00000000000E+00 -0.56908225588E+03  0.56908225588E+03  0.00000000000E+00 0.  1.
          6    2    1    2  502    0  0.12228798981E+03 -0.25884947503E+03 -0.42902675190E+02  0.33652739547E+03  0.17161772981E+03 0.  0.
         24    2    3    3    0    0  0.42395539878E+02 -0.89398066834E+02  0.37479115000E+02  0.13261588159E+03  0.79955561620E+02 0.  0.
         -6    2    1    2    0  501 -0.12228798981E+03  0.25884947503E+03 -0.30601469615E+03  0.45271974496E+03  0.17132650129E+03 0.  0.
        -24    2    5    5    0    0 -0.10880468618E+03  0.19672200366E+03 -0.14453538005E+03  0.27911305816E+03  0.80471216529E+02 0.  0.
          5    1    3    3  502    0  0.79892449935E+02 -0.16945140820E+03 -0.80381790190E+02  0.20391151388E+03  0.47000000000E+01 0. -1.
        -13    1    4    4    0    0  0.14317730025E+02 -0.29971312556E+02 -0.25278041653E+02  0.41740344502E+02  0.00000000000E+00 0.  1.
         14    1    4    4    0    0  0.28077809853E+02 -0.59426754278E+02  0.62757156653E+02  0.90875537089E+02  0.00000000000E+00 0. -1.
         -5    1    5    5    0  501 -0.13483303630E+02  0.62127471372E+02 -0.16147931609E+03  0.17360668680E+03  0.47000000000E+01 0.  1.
         11    1    6    6    0    0 -0.11190041295E+03  0.16492760082E+03 -0.14611647288E+03  0.24712919612E+03  0.00000000000E+00 0. -1.
        -12    1    6    6    0    0  0.30957267688E+01  0.31794402842E+02  0.15810928253E+01  0.31983862038E+02  0.00000000000E+00 0.  1.
</event>
<event>
12    1  0.2685360E-002  0.2293642E+03  0.7818608E-02  0.1127088E+00
         -2   -1    0    0    0  501 -0.00000000000E+00  0.00000000000E+00  0.64557979979E+02  0.64557979979E+02  0.00000000000E+00 0.  1.
          2   -1    0    0  502    0  0.00000000000E+00 -0.00000000000E+00 -0.82478090154E+03  0.82478090154E+03  0.00000000000E+00 0. -1.
          6    2    1    2  502    0  0.14062944195E+03  0.55984721131E+02 -0.42886694524E+03  0.48636877405E+03  0.17238561051E+03 0.  0.
         24    2    3    3    0    0 -0.34423737596E+01  0.21502944971E+02 -0.14967919352E+03  0.17027769275E+03  0.78207449107E+02 0.  0.
         -6    2    1    2    0  501 -0.14062944195E+03 -0.55984721131E+02 -0.33135597632E+03  0.40297010747E+03  0.17227070420E+03 0.  0.
        -24    2    5    5    0    0 -0.76887093076E+02 -0.20365963283E+02 -0.30441081155E+03  0.32499629869E+03  0.81426374296E+02 0.  0.
          5    1    3    3  502    0  0.14407181571E+03  0.34481776160E+02 -0.27918775172E+03  0.31609108130E+03  0.47000000000E+01 0. -1.
        -13    1    4    4    0    0  0.14226927690E+02  0.42178036914E+02 -0.49946473457E+02  0.66903232211E+02  0.00000000000E+00 0.  1.
         14    1    4    4    0    0 -0.17669301449E+02 -0.20675091943E+02 -0.99732720062E+02  0.10337446054E+03  0.00000000000E+00 0. -1.
         -5    1    5    5    0  501 -0.63742348872E+02 -0.35618757849E+02 -0.26945164769E+02  0.77973808775E+02  0.47000000000E+01 0.  1.
         13    1    6    6    0    0 -0.37073333947E+02 -0.52222570583E+00 -0.25821707872E+03  0.26086541463E+03  0.00000000000E+00 0. -1.
        -14    1    6    6    0    0 -0.39813759129E+02 -0.19843737577E+02 -0.46193732834E+02  0.64130884058E+02  0.00000000000E+00 0.  1.
</event>
<event>
12    1  0.2685360E-002  0.2209142E+03  0.7818608E-02  0.1133203E+00
          1   -1    0    0  502    0  0.00000000000E+00  0.00000000000E+00  0.16743175546E+03  0.16743175546E+03  0.00000000000E+00 0. -1.
         -1   -1    0    0    0  501 -0.00000000000E+00 -0.00000000000E+00 -0.35126157037E+03  0.35126157037E+03  0.00000000000E+00 0.  1.
          6    2    1    2  502    0 -0.14531733719E+02 -0.14067032356E+03  0.14392509662E+02  0.22330028100E+03  0.17221080090E+03 0.  0.
         24    2    3    3    0    0 -0.34592769863E+02 -0.74038940544E+01 -0.30976703410E+01  0.87320934039E+02  0.79773884109E+02 0.  0.
         -6    2    1    2    0  501  0.14531733719E+02  0.14067032356E+03 -0.19822232458E+03  0.29539304483E+03  0.16722933282E+03 0.  0.
        -24    2    5    5    0    0 -0.33415478257E+02  0.50085179223E+02 -0.44285417244E+02  0.11039773421E+03  0.81248644133E+02 0.  0.
          5    1    3    3  502    0  0.20061036144E+02 -0.13326642950E+03  0.17490180003E+02  0.13597934696E+03  0.47000000000E+01 0. -1.
        -13    1    4    4    0    0 -0.14637116531E+02 -0.11868740472E+02 -0.40513470685E+02  0.44681690743E+02  0.00000000000E+00 0.  1.
         14    1    4    4    0    0 -0.19955653332E+02  0.44648464173E+01  0.37415800344E+02  0.42639243295E+02  0.00000000000E+00 0. -1.
         -5    1    5    5    0  501  0.47947211976E+02  0.90585144336E+02 -0.15393690733E+03  0.18499531061E+03  0.47000000000E+01 0.  1.
         11    1    6    6    0    0 -0.67263232509E+01  0.67116123939E+02 -0.40074488241E+02  0.78458792527E+02  0.00000000000E+00 0. -1.
        -12    1    6    6    0    0 -0.26689155006E+02 -0.17030944715E+02 -0.42109290036E+01  0.31938941684E+02  0.00000000000E+00 0.  1.
</event>
<event>
12    1  0.2685360E-002  0.1765396E+03  0.7818608E-02  0.1171195E+00
          2   -1    0    0  502    0  0.00000000000E+00  0.00000000000E+00  0.19665876999E+03  0.19665876999E+03  0.00000000000E+00 0. -1.
         -2   -1    0    0    0  501 -0.00000000000E+00 -0.00000000000E+00 -0.16845638711E+03  0.16845638711E+03  0.00000000000E+00 0.  1.
          6    2    1    2  502    0 -0.30784636379E+02 -0.24142879737E+02  0.58540596597E+02  0.18612335104E+03  0.17229140395E+03 0.  0.
         24    2    3    3    0    0  0.29660510352E+02 -0.18093868467E+02  0.83009279003E+02  0.12046504830E+03  0.80088410590E+02 0.  0.
         -6    2    1    2    0  501  0.30784636379E+02  0.24142879737E+02 -0.30338213720E+02  0.17899180605E+03  0.17200897344E+03 0.  0.
        -24    2    5    5    0    0  0.53503850818E+02 -0.43512336637E+02 -0.40637012881E+02  0.10673153847E+03  0.70599355490E+02 0.  0.
          5    1    3    3  502    0 -0.60445146731E+02 -0.60490112697E+01 -0.24468682405E+02  0.65658302745E+02  0.47000000000E+01 0. -1.
        -13    1    4    4    0    0  0.47999881629E+02 -0.37159634956E+02  0.54592969551E+02  0.81640795138E+02  0.00000000000E+00 0.  1.
         14    1    4    4    0    0 -0.18339371277E+02  0.19065766489E+02  0.28416309452E+02  0.38824253161E+02  0.00000000000E+00 0. -1.
         -5    1    5    5    0  501 -0.22719214438E+02  0.67655216374E+02  0.10298799161E+02  0.72260267585E+02  0.47000000000E+01 0.  1.
         11    1    6    6    0    0  0.13923218049E+02 -0.42757050694E+02  0.62144735003E+01  0.45394284506E+02  0.00000000000E+00 0. -1.
        -12    1    6    6    0    0  0.39580632769E+02 -0.75528594238E+00 -0.46851486381E+02  0.61337253960E+02  0.00000000000E+00 0.  1.
</event>
<event>
12    1  0.2685360E-002  0.1859096E+03  0.7818608E-02  0.1162203E+00
          1   -1    0    0  502    0  0.00000000000E+00  0.00000000000E+00  0.43679775144E+03  0.43679775144E+03  0.00000000000E+00 0. -1.
         -1   -1    0    0    0  501 -0.00000000000E+00 -0.00000000000E+00 -0.12026210268E+03  0.12026210268E+03  0.00000000000E+00 0.  1.
          6    2    1    2  502    0 -0.31124939425E+02 -0.66160270269E+02 -0.37571958145E+01  0.18748624313E+03  0.17260078686E+03 0.  0.
         24    2    3    3    0    0 -0.36566386358E+02 -0.22899965983E+02 -0.65769845667E+02  0.11153413971E+03  0.79073906374E+02 0.  0.
         -6    2    1    2    0  501  0.31124939425E+02  0.66160270269E+02  0.32029284457E+03  0.36957361099E+03  0.16926666667E+03 0.  0.
        -24    2    5    5    0    0  0.49876943513E+02 -0.89163403740E+01  0.23764709594E+03  0.25625748288E+03  0.81391306089E+02 0.  0.
          5    1    3    3  502    0  0.54414469330E+01 -0.43260304285E+02  0.62012649853E+02  0.75952103416E+02  0.47000000000E+01 0. -1.
        -11    1    4    4    0    0 -0.59863514217E+02 -0.11385904994E+02 -0.58681019288E+02  0.84597524737E+02  0.00000000000E+00 0.  1.
         12    1    4    4    0    0  0.23297127859E+02 -0.11514060989E+02 -0.70888263787E+01  0.26936614976E+02  0.00000000000E+00 0. -1.
         -5    1    5    5    0  501 -0.18752004089E+02  0.75076610643E+02  0.82645748630E+02  0.11331612811E+03  0.47000000000E+01 0.  1.
         11    1    6    6    0    0  0.13461748340E+02  0.35752239699E+02  0.91136374715E+02  0.98819431835E+02  0.00000000000E+00 0. -1.
        -12    1    6    6    0    0  0.36415195174E+02 -0.44668580073E+02  0.14651072122E+03  0.15743805105E+03  0.00000000000E+00 0.  1.
</event>
<event>
12    1  0.2685360E-002  0.2174693E+03  0.7818608E-02  0.1135784E+00
          2   -1    0    0  502    0  0.00000000000E+00  0.00000000000E+00  0.47403257479E+02  0.47403257479E+02  0.00000000000E+00 0. -1.
         -2   -1    0    0    0  501 -0.00000000000E+00 -0.00000000000E+00 -0.10173132558E+04  0.10173132558E+04  0.00000000000E+00 0.  1.
          6    2    1    2  502    0  0.89564276334E+02 -0.97878898868E+02 -0.55890832407E+03  0.59972320705E+03  0.17230023771E+03 0.  0.
         24    2    3    3    0    0  0.10980287193E+03 -0.22558099726E+02 -0.33416764112E+03  0.36178773658E+03  0.81589309462E+02 0.  0.
         -6    2    1    2    0  501 -0.89564276334E+02  0.97878898868E+02 -0.41100167424E+03  0.46499330623E+03  0.17232051580E+03 0.  0.
        -24    2    5    5    0    0 -0.13000048346E+03  0.72475272162E+02 -0.28738285229E+03  0.33238812444E+03  0.75763914248E+02 0.  0.
          5    1    3    3  502    0 -0.20238595592E+02 -0.75320799141E+02 -0.22474068295E+03  0.23793547047E+03  0.47000000000E+01 0. -1.
        -13    1    4    4    0    0  0.92010295927E+02 -0.32766139480E+02 -0.32492785033E+03  0.33928987957E+03  0.00000000000E+00 0.  1.
         14    1    4    4    0    0  0.17792575999E+02  0.10208039754E+02 -0.92397907865E+01  0.22497857010E+02  0.00000000000E+00 0. -1.
         -5    1    5    5    0  501  0.40436207124E+02  0.25403626705E+02 -0.12361882195E+03  0.13260518179E+03  0.47000000000E+01 0.  1.
         11    1    6    6    0    0 -0.12239523510E+03  0.81179143071E+02 -0.28495480195E+03  0.32057742590E+03  0.00000000000E+00 0. -1.
        -12    1    6    6    0    0 -0.76052483621E+01 -0.87038709091E+01 -0.24280503420E+01  0.11810698536E+02  0.00000000000E+00 0.  1.
</event>
<event>
12    1  0.2685360E-002  0.2058229E+03  0.7818608E-02  0.1144917E+00
          1   -1    0    0  502    0  0.00000000000E+00  0.00000000000E+00  0.74873098602E+03  0.74873098602E+03  0.00000000000E+00 0.  1.
         -1   -1    0    0    0  501 -0.00000000000E+00 -0.00000000000E+00 -0.63094505504E+02  0.63094505504E+02  0.00000000000E+00 0. -1.
          6    2    1    2  502    0 -0.44496057554E+02 -0.10468931682E+03  0.21259601268E+03  0.29600316052E+03  0.17170047827E+03 0.  0.
         24    2    3    3    0    0 -0.72992969230E+02 -0.12864187344E+03  0.16872741178E+03  0.23827671001E+03  0.80188190464E+02 0.  0.
         -6    2    1    2    0  501  0.44496057554E+02  0.10468931682E+03  0.47304046784E+03  0.51582233100E+03  0.17136405911E+03 0.  0.
        -24    2    5    5    0    0  0.41515457655E+02  0.13397475648E+03  0.30654245433E+03  0.34667683312E+03  0.80893644476E+02 0.  0.
          5    1    3    3  502    0  0.28496911676E+02  0.23952556620E+02  0.43868600898E+02  0.57726450509E+02  0.47000000000E+01 0. -1.
        -11    1    4    4    0    0 -0.12251194178E+02 -0.15254544664E+02  0.79137607991E+02  0.81520266745E+02  0.00000000000E+00 0.  1.
         12    1    4    4    0    0 -0.60741775052E+02 -0.11338732877E+03  0.89589803787E+02  0.15675644327E+03  0.00000000000E+00 0. -1.
         -5    1    5    5    0  501  0.29805998992E+01 -0.29285439664E+02  0.16649801350E+03  0.16914549788E+03  0.47000000000E+01 0.  1.
         13    1    6    6    0    0 -0.16830595613E+02  0.11855738033E+01  0.31612937676E+02  0.35833676373E+02  0.00000000000E+00 0. -1.
        -14    1    6    6    0    0  0.58346053268E+02  0.13278918268E+03  0.27492951666E+03  0.31084315675E+03  0.00000000000E+00 0.  1.
</event>
<event>
12    1  0.2685360E-002  0.1813682E+03  0.7818608E-02  0.1166485E+00
         -2   -1    0    0    0  501 -0.00000000000E+00  0.00000000000E+00  0.11610279714E+02  0.11610279714E+02  0.00000000000E+00 0.  1.
          2   -1    0    0  502    0  0.00000000000E+00 -0.00000000000E+00 -0.28572128570E+04  0.28572128570E+04  0.00000000000E+00 0. -1.
          6    2    1    2  502    0 -0.89543212968E-02 -0.61653489167E+02 -0.15515833948E+04  0.15621083167E+04  0.17020637291E+03 0.  0.
         24    2    3    3    0    0 -0.54789234765E+02 -0.33160129688E+02 -0.61682048008E+03  0.62529641064E+03  0.80166339986E+02 0.  0.
         -6    2    1    2    0  501  0.89543212968E-02  0.61653489167E+02 -0.12940191825E+04  0.13067148200E+04  0.17092929332E+03 0.  0.
        -24    2    5    5    0    0  0.31966633099E+02  0.28786881031E+02 -0.11844584594E+04  0.11878571353E+04  0.78817394738E+02 0.  0.
          5    1    3    3  502    0  0.54780280444E+02 -0.28493359479E+02 -0.93476291471E+03  0.93681190608E+03  0.47000000000E+01 0. -1.
        -11    1    4    4    0    0 -0.60412585253E+02 -0.28441607630E+02 -0.61369680957E+03  0.61731870179E+03  0.00000000000E+00 0.  1.
         12    1    4    4    0    0  0.56233504880E+01 -0.47185220577E+01 -0.31236705150E+01  0.79777088569E+01  0.00000000000E+00 0. -1.
         -5    1    5    5    0  501 -0.31957678778E+02  0.32866608137E+02 -0.10956072314E+03  0.11885768472E+03  0.47000000000E+01 0.  1.
         11    1    6    6    0    0  0.12791257135E+02  0.52847709819E+02 -0.55780990442E+03  0.56045373240E+03  0.00000000000E+00 0. -1.
        -12    1    6    6    0    0  0.19175375964E+02 -0.24060828788E+02 -0.62664855497E+03  0.62740340290E+03  0.00000000000E+00 0.  1.
</event>
<event>
12    1  0.2685360E-002  0.1729737E+03  0.7818608E-02  0.1174782E+00
         -2   -1    0    0    0  501 -0.00000000000E+00  0.00000000000E+00  0.77759027349E+02  0.77759027349E+02  0.00000000000E+00 0.  1.
          2   -1    0    0  502    0  0.00000000000E+00 -0.00000000000E+00 -0.39001008422E+03  0.39001008422E+03  0.00000000000E+00 0. -1.
          6    2    1    2  502    0 -0.92438590494E+01 -0.19448948781E+02 -0.18332153554E+03  0.25212600782E+03  0.17174698800E+03 0.  0.
         24    2    3    3    0    0 -0.57134960795E+00 -0.28923823848E+02 -0.20596047303E+02  0.88826711438E+02  0.81419122287E+02 0.  0.
         -6    2    1    2    0  501  0.92438590494E+01  0.19448948781E+02 -0.12892952133E+03  0.21564310375E+03  0.17150923061E+03 0.  0.
        -24    2    5    5    0    0  0.70255276270E+02 -0.15715940870E+02 -0.65937277744E+02  0.12104355170E+03  0.71561317562E+02 0.  0.
          5    1    3    3  502    0 -0.86725094414E+01  0.94748750668E+01 -0.16272548823E+03  0.16329929638E+03  0.47000000000E+01 0. -1.
        -11    1    4    4    0    0 -0.29259972558E+02 -0.40644988642E+02  0.25500503314E+01  0.50146424125E+02  0.00000000000E+00 0.  1.
         12    1    4    4    0    0  0.28688622950E+02  0.11721164795E+02 -0.23146097635E+02  0.38680287313E+02  0.00000000000E+00 0. -1.
         -5    1    5    5    0  501 -0.61011417220E+02  0.35164889651E+02 -0.62992243590E+02  0.94599552049E+02  0.47000000000E+01 0.  1.
         13    1    6    6    0    0  0.45138232504E+02  0.22586143925E+02 -0.53565064539E+02  0.73598981447E+02  0.00000000000E+00 0. -1.
        -14    1    6    6    0    0  0.25117043765E+02 -0.38302084795E+02 -0.12372213206E+02  0.47444570256E+02  0.00000000000E+00 0.  1.
</event>
<event>
12    1  0.2685360E-002  0.1756379E+03  0.7818608E-02  0.1172093E+00
         -3   -1    0    0    0  501 -0.00000000000E+00  0.00000000000E+00  0.68525835729E+02  0.68525835729E+02  0.00000000000E+00 0.  1.
          3   -1    0    0  502    0  0.00000000000E+00 -0.00000000000E+00 -0.53532447239E+03  0.53532447239E+03  0.00000000000E+00 0. -1.
          6    2    1    2  502    0 -0.26888244625E+02  0.39722223581E+02 -0.11705405601E+03  0.21402766782E+03  0.17264228283E+03 0.  0.
         24    2    3    3    0    0 -0.52098852408E+02  0.32806133709E+02 -0.14433216564E+03  0.17595415592E+03  0.79608781651E+02 0.  0.
         -6    2    1    2    0  501  0.26888244625E+02 -0.39722223581E+02 -0.34974458065E+03  0.38982264029E+03  0.16534686706E+03 0.  0.
        -24    2    5    5    0    0 -0.27472475675E+02 -0.53091720227E+02 -0.29355019515E+03  0.31036365519E+03  0.81119749220E+02 0.  0.
          5    1    3    3  502    0  0.25210607783E+02  0.69160898720E+01  0.27278109628E+02  0.38073511905E+02  0.47000000000E+01 0. -1.
        -11    1    4    4    0    0 -0.17245879573E+02 -0.13769249366E+02 -0.19589119335E+01  0.22155133183E+02  0.00000000000E+00 0.  1.
         12    1    4    4    0    0 -0.34852972834E+02  0.46575383075E+02 -0.14237325370E+03  0.15379902273E+03  0.00000000000E+00 0. -1.
         -5    1    5    5    0  501  0.54360720300E+02  0.13369496647E+02 -0.56194385495E+02  0.79458985100E+02  0.47000000000E+01 0.  1.
         13    1    6    6    0    0  0.27562449656E+02 -0.64633227857E+01 -0.94349674023E+02  0.98505452441E+02  0.00000000000E+00 0. -1.
        -14    1    6    6    0    0 -0.55034925331E+02 -0.46628397441E+02 -0.19920052113E+03  0.21185820275E+03  0.00000000000E+00 0.  1.
</event>
<event>
12    1  0.2685360E-002  0.2255342E+03  0.7818608E-02  0.1129823E+00
          3   -1    0    0  502    0  0.00000000000E+00  0.00000000000E+00  0.26666878748E+02  0.26666878748E+02  0.00000000000E+00 0.  1.
         -3   -1    0    0    0  501 -0.00000000000E+00 -0.00000000000E+00 -0.19251007061E+04  0.19251007061E+04  0.00000000000E+00 0. -1.
          6    2    1    2  502    0 -0.14186345021E+03  0.23074302866E+02 -0.10478098356E+04  0.10720766045E+04  0.17545692429E+03 0.  0.
         24    2    3    3    0    0 -0.36113377547E+02  0.21141545520E+02 -0.24650374501E+03  0.26380662838E+03  0.84135009861E+02 0.  0.
         -6    2    1    2    0  501  0.14186345021E+03 -0.23074302866E+02 -0.85062399177E+03  0.87969098042E+03  0.17215511520E+03 0.  0.
        -24    2    5    5    0    0  0.23878581965E+02 -0.24489613715E+02 -0.54694710796E+03  0.55386254090E+03  0.80266103952E+02 0.  0.
          5    1    3    3  502    0 -0.10575007266E+03  0.19327573464E+01 -0.80130609060E+03  0.80826997610E+03  0.47000000000E+01 0. -1.
        -13    1    4    4    0    0 -0.58402961923E+02 -0.35694490230E+01 -0.12839253425E+03  0.14109673908E+03  0.00000000000E+00 0.  1.
         14    1    4    4    0    0  0.22289584376E+02  0.24710994543E+02 -0.11811121077E+03  0.12270988930E+03  0.00000000000E+00 0. -1.
         -5    1    5    5    0  501  0.11798486824E+03  0.14153108485E+01 -0.30367688381E+03  0.32582843952E+03  0.47000000000E+01 0.  1.
         13    1    6    6    0    0 -0.25918052780E+01  0.27379076547E+02 -0.13071968585E+03  0.13358131440E+03  0.00000000000E+00 0. -1.
        -14    1    6    6    0    0  0.26470387243E+02 -0.51868690262E+02 -0.41622742211E+03  0.42028122650E+03  0.00000000000E+00 0.  1.
</event>
<event>
12    1  0.2685360E-002  0.2599475E+03  0.7818608E-02  0.1107175E+00
         -1   -1    0    0    0  501 -0.00000000000E+00  0.00000000000E+00  0.73711645862E+02  0.73711645862E+02  0.00000000000E+00 0. -1.
          1   -1    0    0  502    0  0.00000000000E+00 -0.00000000000E+00 -0.92240553710E+03  0.92240553710E+03  0.00000000000E+00 0.  1.
          6    2    1    2  502    0  0.19139392531E+03  0.37926657007E+02 -0.46295731434E+03  0.53079409817E+03  0.17129750085E+03 0.  0.
         24    2    3    3    0    0  0.20637250391E+03  0.61370849536E+02 -0.42602104040E+03  0.48431435728E+03  0.81917508903E+02 0.  0.
         -6    2    1    2    0  501 -0.19139392531E+03 -0.37926657007E+02 -0.38573657689E+03  0.46532308479E+03  0.17222891896E+03 0.  0.
        -24    2    5    5    0    0 -0.10367471398E+03  0.45773908073E+02 -0.23541419092E+03  0.27214090560E+03  0.76138914067E+02 0.  0.
          5    1    3    3  502    0 -0.14978578605E+02 -0.23444192529E+02 -0.36936273944E+02  0.46479740890E+02  0.47000000000E+01 0. -1.
        -11    1    4    4    0    0  0.79262154415E+02  0.65848600200E+02 -0.18272871651E+03  0.20978157952E+03  0.00000000000E+00 0.  1.
         12    1    4    4    0    0  0.12711034950E+03 -0.44777506647E+01 -0.24329232389E+03  0.27453277776E+03  0.00000000000E+00 0. -1.
         -5    1    5    5    0  501 -0.87719211327E+02 -0.83700565080E+02 -0.15032238597E+03  0.19318217919E+03  0.47000000000E+01 0.  1.
         11    1    6    6    0    0  0.12454448566E+02  0.39030217231E+01 -0.24309353954E+02  0.27591512415E+02  0.00000000000E+00 0. -1.
        -12    1    6    6    0    0 -0.11612916255E+03  0.41870886350E+02 -0.21110483697E+03  0.24454939319E+03  0.00000000000E+00 0.  1.
</event>
<event>
12    1  0.2685360E-002  0.1762564E+03  0.7818608E-02  0.1171476E+00
         -2   -1    0    0    0  501 -0.00000000000E+00  0.00000000000E+00  0.82918719041E+02  0.82918719041E+02  0.00000000000E+00 0. -1.
          2   -1    0    0  502    0  0.00000000000E+00 -0.00000000000E+00 -0.92023738582E+03  0.92023738582E+03  0.00000000000E+00 0.  1.
          6    2    1    2  502    0  0.29718401850E+02  0.14946260786E+02 -0.33089949805E+02  0.17997889730E+03  0.17375524330E+03 0.  0.
         24    2    3    3    0    0  0.65085197344E+01 -0.52053101730E+02  0.64208240902E+01  0.98672043598E+02  0.83325020114E+02 0.  0.
         -6    2    1    2    0  501 -0.29718401850E+02 -0.14946260786E+02 -0.80422871698E+03  0.82317720756E+03  0.17242480019E+03 0.  0.
        -24    2    5    5    0    0 -0.29559121977E+01  0.30212153713E+02 -0.20551362715E+03  0.22214695705E+03  0.78688677270E+02 0.  0.
          5    1    3    3  502    0  0.23209882116E+02  0.66999362516E+02 -0.39510773895E+02  0.81306853703E+02  0.47000000000E+01 0. -1.
        -11    1    4    4    0    0  0.94926756839E+01 -0.65757568198E+02  0.28677943287E+02  0.72364308179E+02  0.00000000000E+00 0.  1.
         12    1    4    4    0    0 -0.29841559496E+01  0.13704466469E+02 -0.22257119197E+02  0.26307735419E+02  0.00000000000E+00 0. -1.
         -5    1    5    5    0  501 -0.26762489653E+02 -0.45158414500E+02 -0.59871508982E+03  0.60103025051E+03  0.47000000000E+01 0.  1.
         11    1    6    6    0    0  0.89121401685E+01 -0.24792948447E+02 -0.46153125526E+02  0.53143461789E+02  0.00000000000E+00 0. -1.
        -12    1    6    6    0    0 -0.11868052366E+02  0.55005102160E+02 -0.15936050163E+03  0.16900349526E+03  0.00000000000E+00 0.  1.
</event>
<event>
12    1  0.2685360E-002  0.2060812E+03  0.7818608E-02  0.1144707E+00
         -1   -1    0    0    0  501 -0.00000000000E+00  0.00000000000E+00  0.23077411329E+02  0.23077411329E+02  0.00000000000E+00 0. -1.
          1   -1    0    0  502    0  0.00000000000E+00 -0.00000000000E+00 -0.18443483816E+04  0.18443483816E+04  0.00000000000E+00 0.  1.
          6    2    1    2  502    0  0.10161174842E+03  0.57695333755E+02 -0.95023332823E+03  0.97213496198E+03  0.16866922446E+03 0.  0.
         24    2    3    3    0    0  0.57408762185E+02 -0.22253192082E+02 -0.67198339092E+03  0.67923431605E+03  0.77502308957E+02 0.  0.
         -6    2    1    2    0  501 -0.10161174842E+03 -0.57695333755E+02 -0.87103764205E+03  0.89529083095E+03  0.17083734710E+03 0.  0.
        -24    2    5    5    0    0 -0.12231968078E+03 -0.67218455907E+01 -0.52670972355E+03  0.54656325760E+03  0.79378675746E+02 0.  0.
          5    1    3    3  502    0  0.44202986239E+02  0.79948525838E+02 -0.27824993731E+03  0.29290064593E+03  0.47000000000E+01 0. -1.
        -11    1    4    4    0    0  0.44173003083E+02 -0.36201612086E+02 -0.23545479479E+03  0.24228242055E+03  0.00000000000E+00 0.  1.
         12    1    4    4    0    0  0.13235759102E+02  0.13948420004E+02 -0.43652859613E+03  0.43695189550E+03  0.00000000000E+00 0. -1.
         -5    1    5    5    0  501  0.20707932352E+02 -0.50973488165E+02 -0.34432791850E+03  0.34872757336E+03  0.47000000000E+01 0.  1.
         13    1    6    6    0    0  0.40941970640E+01 -0.43674278097E+01 -0.12622533636E+01  0.61180191913E+01  0.00000000000E+00 0. -1.
        -14    1    6    6    0    0 -0.12641387784E+03 -0.23544177810E+01 -0.52544747018E+03  0.54044523841E+03  0.00000000000E+00 0.  1.
</event>
<event>
12    1  0.2685360E-002  0.1974605E+03  0.7818608E-02  0.1151899E+00
          1   -1    0    0  502    0  0.00000000000E+00  0.00000000000E+00  0.21728292802E+04  0.21728292802E+04  0.00000000000E+00 0. -1.
         -1   -1    0    0    0  501 -0.00000000000E+00 -0.00000000000E+00 -0.19656467110E+02  0.19656467110E+02  0.00000000000E+00 0.  1.
          6    2    1    2  502    0  0.24623956165E+02  0.95160425649E+02  0.13988071810E+04  0.14126395323E+04  0.17095927231E+03 0.  0.
         24    2    3    3    0    0  0.44718254601E+02  0.12714520606E+03  0.12053027316E+04  0.12154267819E+04  0.79636433239E+02 0.  0.
         -6    2    1    2    0  501 -0.24623956165E+02 -0.95160425649E+02  0.75436563205E+03  0.77984621496E+03  0.17155397503E+03 0.  0.
        -24    2    5    5    0    0 -0.13510853905E+02 -0.63284792739E+02  0.20100659391E+03  0.22543853815E+03  0.78939062093E+02 0.  0.
          5    1    3    3  502    0 -0.20094298436E+02 -0.31984780409E+02  0.19350444938E+03  0.19721275044E+03  0.47000000000E+01 0. -1.
        -11    1    4    4    0    0 -0.22167052393E+02  0.22949996562E+02  0.20023579886E+03  0.20276206672E+03  0.00000000000E+00 0.  1.
         12    1    4    4    0    0  0.66885306994E+02  0.10419520950E+03  0.10050669328E+04  0.10126647152E+04  0.00000000000E+00 0. -1.
         -5    1    5    5    0  501 -0.11113102260E+02 -0.31875632910E+02  0.55335903814E+03  0.55440767681E+03  0.47000000000E+01 0.  1.
         13    1    6    6    0    0  0.80189001989E+01  0.18826026986E+00  0.12013501475E+03  0.12040249155E+03  0.00000000000E+00 0. -1.
        -14    1    6    6    0    0 -0.21529754104E+02 -0.63473053008E+02  0.80871579152E+02  0.10503604660E+03  0.00000000000E+00 0.  1.
</event>
<event>
12    1  0.2685360E-002  0.3284608E+03  0.7818608E-02  0.1071820E+00
          1   -1    0    0  502    0  0.00000000000E+00  0.00000000000E+00  0.61350816481E+02  0.61350816481E+02  0.00000000000E+00 0. -1.
         -1   -1    0    0    0  501 -0.00000000000E+00 -0.00000000000E+00 -0.17672048397E+04  0.17672048397E+04  0.00000000000E+00 0.  1.
          6    2    1    2  502    0  0.27948875126E+03 -0.18520656873E+02 -0.78860688078E+03  0.85424351268E+03  0.17138900121E+03 0.  0.
         24    2    3    3    0    0  0.15260448566E+03 -0.65229017075E+02 -0.55009984589E+03  0.58003741599E+03  0.79313364530E+02 0.  0.
         -6    2    1    2    0  501 -0.27948875126E+03  0.18520656873E+02 -0.91724714240E+03  0.97431214346E+03  0.17171154835E+03 0.  0.
        -24    2    5    5    0    0 -0.22650451753E+03  0.74016051748E+02 -0.71022739755E+03  0.75348113876E+03  0.80797263967E+02 0.  0.
          5    1    3    3  502    0  0.12688426560E+03  0.46708360201E+02 -0.23850703489E+03  0.27420609669E+03  0.47000000000E+01 0. -1.
        -13    1    4    4    0    0  0.24520280756E+02  0.17283785386E+02 -0.12195445277E+03  0.12559005517E+03  0.00000000000E+00 0.  1.
         14    1    4    4    0    0  0.12808420491E+03 -0.82512802460E+02 -0.42814539312E+03  0.45444736083E+03  0.00000000000E+00 0. -1.
         -5    1    5    5    0  501 -0.52984233733E+02 -0.55495394875E+02 -0.20701974485E+03  0.22083100469E+03  0.47000000000E+01 0.  1.
         11    1    6    6    0    0 -0.14073238391E+03  0.21018709212E+02 -0.50742343815E+03  0.52699709260E+03  0.00000000000E+00 0. -1.
        -12    1    6    6    0    0 -0.85772133615E+02  0.52997342536E+02 -0.20280395940E+03  0.22648404616E+03  0.00000000000E+00 0.  1.
</event>
<event>
12    1  0.2685360E-002  0.4363759E+03  0.7818608E-02  0.1031865E+00
         -1   -1    0    0    0  501 -0.00000000000E+00  0.00000000000E+00  0.13966683756E+03  0.13966683756E+03  0.00000000000E+00 0.  1.
          1   -1    0    0  502    0  0.00000000000E+00 -0.00000000000E+00 -0.13635303943E+04  0.13635303943E+04  0.00000000000E+00 0. -1.
          6    2    1    2  502    0 -0.39983142129E+03 -0.42249244034E+02 -0.60634015296E+03  0.74752845827E+03  0.17175637038E+03 0.  0.
         24    2    3    3    0    0 -0.25562636195E+03  0.19128636819E+02 -0.46160804102E+03  0.53414659957E+03  0.80745678695E+02 0.  0.
         -6    2    1    2    0  501  0.39983142129E+03  0.42249244034E+02 -0.61752340377E+03  0.75566877357E+03  0.16748127380E+03 0.  0.
        -24    2    5    5    0    0  0.14250564529E+03  0.21389073981E+01 -0.33111656141E+03  0.36853008595E+03  0.76575538843E+02 0.  0.
          5    1    3    3  502    0 -0.14420505934E+03 -0.61377880853E+02 -0.14473211194E+03  0.21338185870E+03  0.47000000000E+01 0. -1.
        -13    1    4    4    0    0 -0.12536591895E+03  0.21301231738E+02 -0.15156355817E+03  0.19784303948E+03  0.00000000000E+00 0.  1.
         14    1    4    4    0    0 -0.13026044300E+03 -0.21725949193E+01 -0.31004448286E+03  0.33630356009E+03  0.00000000000E+00 0. -1.
         -5    1    5    5    0  501  0.25732577600E+03  0.40110336636E+02 -0.28640684236E+03  0.38713868761E+03  0.47000000000E+01 0.  1.
         11    1    6    6    0    0  0.16437854968E+02  0.55289077836E+01 -0.12994207427E+03  0.13109429645E+03  0.00000000000E+00 0. -1.
        -12    1    6    6    0    0  0.12606779033E+03 -0.33900003855E+01 -0.20117448714E+03  0.23743578950E+03  0.00000000000E+00 0.  1.
</event>
<event>
12    1  0.2685360E-002  0.1892994E+03  0.7818608E-02  0.1159095E+00
         -1   -1    0    0    0  501 -0.00000000000E+00  0.00000000000E+00  0.11305901683E+03  0.11305901683E+03  0.00000000000E+00 0.  1.
          1   -1    0    0  502    0  0.00000000000E+00 -0.00000000000E+00 -0.32265246829E+03  0.32265246829E+03  0.00000000000E+00 0. -1.
          6    2    1    2  502    0 -0.22864616353E+02 -0.78297691859E+02 -0.13319048315E+03  0.23064962320E+03  0.16972396605E+03 0.  0.
         24    2    3    3    0    0 -0.72830141142E+02 -0.68462407473E+02 -0.12213294174E+03  0.17832710694E+03  0.83022713244E+02 0.  0.
         -6    2    1    2    0  501  0.22864616353E+02  0.78297691859E+02 -0.76402968315E+02  0.20506186192E+03  0.17192915522E+03 0.  0.
        -24    2    5    5    0    0  0.14000971057E+02 -0.21301931159E+02 -0.74834966452E+02  0.10494594039E+03  0.69018683985E+02 0.  0.
          5    1    3    3  502    0  0.49965524790E+02 -0.98352843863E+01 -0.11057541405E+02  0.52322516266E+02  0.47000000000E+01 0. -1.
        -11    1    4    4    0    0 -0.27960678850E+02  0.96603443952E+01 -0.41373105024E+01  0.29870372508E+02  0.00000000000E+00 0.  1.
         12    1    4    4    0    0 -0.44869462293E+02 -0.78122751868E+02 -0.11799563124E+03  0.14845673443E+03  0.00000000000E+00 0. -1.
         -5    1    5    5    0  501  0.88636452953E+01  0.99599623019E+02 -0.15680018627E+01  0.10011592153E+03  0.47000000000E+01 0.  1.
         11    1    6    6    0    0 -0.24929558776E+02 -0.12123577152E+02 -0.51899233221E+02  0.58838715423E+02  0.00000000000E+00 0. -1.
        -12    1    6    6    0    0  0.38930529833E+02 -0.91783540068E+01 -0.22935733231E+02  0.46107224968E+02  0.00000000000E+00 0.  1.
</event>
<event>
12    1  0.2685360E-002  0.1734629E+03  0.7818608E-02  0.1174284E+00
          2   -1    0    0  502    0  0.00000000000E+00  0.00000000000E+00  0.11841905766E+04  0.11841905766E+04  0.00000000000E+00 0.  1.
         -2   -1    0    0    0  501 -0.00000000000E+00 -0.00000000000E+00 -0.28753641322E+02  0.28753641322E+02  0.00000000000E+00 0. -1.
          6    2    1    2  502    0 -0.17135871992E+02 -0.13061756929E+02  0.36944599072E+03  0.40793371194E+03  0.17162553911E+03 0.  0.
         24    2    3    3    0    0  0.95875661340E+01 -0.70791659638E+02  0.26112500730E+03  0.28222607788E+03  0.79761576588E+02 0.  0.
         -6    2    1    2    0  501  0.17135871992E+02  0.13061756929E+02  0.78599094454E+03  0.80501050597E+03  0.17261489568E+03 0.  0.
        -24    2    5    5    0    0 -0.10747316762E+02  0.67035736567E+01  0.17319290715E+03  0.19152747984E+03  0.80787064127E+02 0.  0.
          5    1    3    3  502    0 -0.26723438126E+02  0.57729902709E+02  0.10832098342E+03  0.12570763406E+03  0.47000000000E+01 0. -1.
        -13    1    4    4    0    0 -0.26398682099E+02 -0.64352221421E+02  0.15248494103E+03  0.16759998825E+03  0.00000000000E+00 0.  1.
         14    1    4    4    0    0  0.35986248233E+02 -0.64394382177E+01  0.10864006626E+03  0.11462608963E+03  0.00000000000E+00 0. -1.
         -5    1    5    5    0  501  0.27883188753E+02  0.63581832725E+01  0.61279803740E+03  0.61348302613E+03  0.47000000000E+01 0.  1.
         11    1    6    6    0    0 -0.29539643301E+02 -0.23001678524E+02  0.13282554157E+03  0.13800105881E+03  0.00000000000E+00 0. -1.
        -12    1    6    6    0    0  0.18792326540E+02  0.29705252181E+02  0.40367365581E+02  0.53526421026E+02  0.00000000000E+00 0.  1.
</event>
<event>
12    1  0.2685360E-002  0.2056991E+03  0.7818608E-02  0.1145018E+00
         -3   -1    0    0    0  501 -0.00000000000E+00  0.00000000000E+00  0.13772515394E+03  0.13772515394E+03  0.00000000000E+00 0. -1.
          3   -1    0    0  502    0  0.00000000000E+00 -0.00000000000E+00 -0.36567969105E+03  0.36567969105E+03  0.00000000000E+00 0.  1.
          6    2    1    2  502    0  0.35735967355E+02  0.10460679940E+03 -0.13703195699E+02  0.20692629130E+03  0.17438770202E+03 0.  0.
         24    2    3    3    0    0  0.19604979640E+02 -0.16295746785E+02  0.41773273631E+01  0.83559206783E+02  0.79465617624E+02 0.  0.
         -6    2    1    2    0  501 -0.35735967355E+02 -0.10460679940E+03 -0.21425134141E+03  0.29647855369E+03  0.17255797187E+03 0.  0.
        -24    2    5    5    0    0 -0.28685206663E+02 -0.18344972787E+02 -0.21943354417E+02  0.85539539236E+02  0.75340048193E+02 0.  0.
          5    1    3    3  502    0  0.16130987715E+02  0.12090254618E+03 -0.17880523062E+02  0.12336708452E+03  0.47000000000E+01 0. -1.
        -13    1    4    4    0    0  0.12154840902E+02 -0.25014975991E+01 -0.37251021997E+02  0.39263676438E+02  0.00000000000E+00 0.  1.
         14    1    4    4    0    0  0.74501387384E+01 -0.13794249185E+02  0.41428349360E+02  0.44295530345E+02  0.00000000000E+00 0. -1.
         -5    1    5    5    0  501 -0.70507606928E+01 -0.86261826611E+02 -0.19230798699E+03  0.21093901445E+03  0.47000000000E+01 0.  1.
         11    1    6    6    0    0  0.77992432711E+01 -0.32541689364E+02  0.10093921738E+02  0.34952496310E+02  0.00000000000E+00 0. -1.
        -12    1    6    6    0    0 -0.36484449934E+02  0.14196716578E+02 -0.32037276154E+02  0.50587042925E+02  0.00000000000E+00 0.  1.
</event>
<event>
12    1  0.2685360E-002  0.1751602E+03  0.7818608E-02  0.1172571E+00
          1   -1    0    0  502    0  0.00000000000E+00  0.00000000000E+00  0.20270383629E+04  0.20270383629E+04  0.00000000000E+00 0.  1.
         -1   -1    0    0    0  501 -0.00000000000E+00 -0.00000000000E+00 -0.19958044743E+02  0.19958044743E+02  0.00000000000E+00 0. -1.
          6    2    1    2  502    0 -0.29451830046E+02  0.21648784267E+01  0.49795965852E+03  0.52767799809E+03  0.17207019257E+03 0.  0.
         24    2    3    3    0    0 -0.31861248182E+02 -0.59068441372E+02  0.38685445246E+03  0.40070642032E+03  0.80031543757E+02 0.  0.
         -6    2    1    2    0  501  0.29451830046E+02 -0.21648784267E+01  0.15091206597E+04  0.15193184096E+04  0.17323731483E+03 0.  0.
        -24    2    5    5    0    0  0.27164357044E+02 -0.52308395127E+02  0.13139798234E+04  0.13177702993E+04  0.80631971112E+02 0.  0.
          5    1    3    3  502    0  0.24094181363E+01  0.61233319799E+02  0.11110520606E+03  0.12697157778E+03  0.47000000000E+01 0. -1.
        -13    1    4    4    0    0  0.92087301054E+01 -0.49891671541E+02  0.11610150678E+03  0.12670256302E+03  0.00000000000E+00 0.  1.
         14    1    4    4    0    0 -0.41069978288E+02 -0.91767698315E+01  0.27075294568E+03  0.27400385730E+03  0.00000000000E+00 0. -1.
         -5    1    5    5    0  501  0.22874730019E+01  0.50143516701E+02  0.19514083623E+03  0.20154811029E+03  0.47000000000E+01 0.  1.
         11    1    6    6    0    0  0.29996189791E+02  0.13177477358E+02  0.55456361151E+03  0.55553057209E+03  0.00000000000E+00 0. -1.
        -12    1    6    6    0    0 -0.28318327472E+01 -0.65485872485E+02  0.75941621193E+03  0.76223972719E+03  0.00000000000E+00 0.  1.
</event>
<event>
12    1  0.2685360E-002  0.2138278E+03  0.7818608E-02  0.1138570E+00
          2   -1    0    0  502    0  0.00000000000E+00  0.00000000000E+00  0.29786262475E+03  0.29786262475E+03  0.00000000000E+00 0.  1.
         -2   -1    0    0    0  501 -0.00000000000E+00 -0.00000000000E+00 -0.16030466970E+03  0.16030466970E+03  0.00000000000E+00 0. -1.
          6    2    1    2  502    0  0.12617863436E+03 -0.28468369630E+02  0.11603681156E+03  0.24346947352E+03  0.17053253959E+03 0.  0.
         24    2    3    3    0    0  0.11808561087E+03 -0.52951236864E+02  0.14417975875E+03  0.20501140163E+03  0.67036012570E+02 0.  0.
         -6    2    1    2    0  501 -0.12617863436E+03  0.28468369630E+02  0.21521143490E+02  0.21469782093E+03  0.17000146722E+03 0.  0.
        -24    2    5    5    0    0 -0.30979386341E+02  0.37152318402E+01 -0.44178194211E+02  0.96316624672E+02  0.79697264813E+02 0.  0.
          5    1    3    3  502    0  0.80930234854E+01  0.24482867234E+02 -0.28142947191E+02  0.38458071893E+02  0.47000000000E+01 0. -1.
        -13    1    4    4    0    0  0.19604927685E+02 -0.40484501190E+02  0.59117507435E+02  0.74284774426E+02  0.00000000000E+00 0.  1.
         14    1    4    4    0    0  0.98480683188E+02 -0.12466735674E+02  0.85062251319E+02  0.13072662720E+03  0.00000000000E+00 0. -1.
         -5    1    5    5    0  501 -0.95199248016E+02  0.24753137789E+02  0.65699337701E+02  0.11838119626E+03  0.47000000000E+01 0.  1.
         11    1    6    6    0    0 -0.12936393774E+02 -0.20499897609E+02 -0.58181907125E+02  0.63029599416E+02  0.00000000000E+00 0. -1.
        -12    1    6    6    0    0 -0.18042992567E+02  0.24215129449E+02  0.14003712914E+02  0.33287025256E+02  0.00000000000E+00 0.  1.
</event>
<event>
12    1  0.2685360E-002  0.1727375E+03  0.7818608E-02  0.1175023E+00
          1   -1    0    0  502    0  0.00000000000E+00  0.00000000000E+00  0.19207848797E+04  0.19207848797E+04  0.00000000000E+00 0.  1.
         -1   -1    0    0    0  501 -0.00000000000E+00 -0.00000000000E+00 -0.16229645109E+02  0.16229645109E+02  0.00000000000E+00 0. -1.
          6    2    1    2  502    0 -0.19545428043E+02  0.45489575187E+01  0.74820761732E+03  0.76773350970E+03  0.17087242766E+03 0.  0.
         24    2    3    3    0    0 -0.60019797105E+02  0.17165107008E+02  0.27890224709E+03  0.29649369570E+03  0.78898866996E+02 0.  0.
         -6    2    1    2    0  501  0.19545428043E+02 -0.45489575187E+01  0.11563476173E+04  0.11692810151E+04  0.17226596745E+03 0.  0.
        -24    2    5    5    0    0  0.19806061551E+02 -0.68811370474E+02  0.83793842038E+03  0.84441760948E+03  0.75980379510E+02 0.  0.
          5    1    3    3  502    0  0.40474369062E+02 -0.12616149489E+02  0.46930537023E+03  0.47123981401E+03  0.47000000000E+01 0. -1.
        -13    1    4    4    0    0 -0.16887182811E+02  0.42198442862E+02  0.18102137907E+03  0.18664036327E+03  0.00000000000E+00 0.  1.
         14    1    4    4    0    0 -0.43132614294E+02 -0.25033335854E+02  0.97880868020E+02  0.10985333242E+03  0.00000000000E+00 0. -1.
         -5    1    5    5    0  501 -0.26063350776E+00  0.64262412955E+02  0.31840919690E+03  0.32486340563E+03  0.47000000000E+01 0.  1.
         13    1    6    6    0    0  0.34131475208E+02 -0.23041438027E+02  0.17640387427E+03  0.18114688053E+03  0.00000000000E+00 0. -1.
        -14    1    6    6    0    0 -0.14325413657E+02 -0.45769932447E+02  0.66153454611E+03  0.66327072895E+03  0.00000000000E+00 0.  1.
</event>
<event>
12    1  0.2685360E-002  0.2362240E+03  0.7818608E-02  0.1122334E+00
         -2   -1    0    0    0  501 -0.00000000000E+00  0.00000000000E+00  0.25406602332E+03  0.25406602332E+03  0.00000000000E+00 0.  1.
          2   -1    0    0  502    0  0.00000000000E+00 -0.00000000000E+00 -0.26644068107E+03  0.26644068107E+03  0.00000000000E+00 0. -1.
          6    2    1    2  502    0 -0.13416306357E+03  0.91201061056E+02  0.10289646071E+03  0.25749587163E+03  0.17146160245E+03 0.  0.
         24    2    3    3    0    0 -0.66237247603E+02 -0.17697365794E+02  0.62549179499E+02  0.12287500792E+03  0.80531347864E+02 0.  0.
         -6    2    1    2    0  501  0.13416306357E+03 -0.91201061056E+02 -0.11527111847E+03  0.26301083276E+03  0.17195902486E+03 0.  0.
        -24    2    5    5    0    0  0.12596644571E+03 -0.38380158196E+02 -0.13670451789E+03  0.20522923591E+03  0.78040579657E+02 0.  0.
          5    1    3    3  502    0 -0.67925815965E+02  0.10889842685E+03  0.40347281214E+02  0.13462086371E+03  0.47000000000E+01 0. -1.
        -13    1    4    4    0    0  0.14372100536E+02  0.11897895773E+02  0.44041012044E+01  0.19170636532E+02  0.00000000000E+00 0.  1.
         14    1    4    4    0    0 -0.80609348139E+02 -0.29595261567E+02  0.58145078295E+02  0.10370437139E+03  0.00000000000E+00 0. -1.
         -5    1    5    5    0  501  0.81966178623E+01 -0.52820902860E+02  0.21433399424E+02  0.57781596847E+02  0.47000000000E+01 0.  1.
         13    1    6    6    0    0  0.40111801469E+02 -0.22681583447E+02 -0.38104867063E+01  0.46237762205E+02  0.00000000000E+00 0. -1.
        -14    1    6    6    0    0  0.85854644237E+02 -0.15698574749E+02 -0.13289403118E+03  0.15899147370E+03  0.00000000000E+00 0.  1.
</event>
<event>
12    1  0.2685360E-002  0.1729843E+03  0.7818608E-02  0.1174771E+00
         -2   -1    0    0    0  501 -0.00000000000E+00  0.00000000000E+00  0.14442296161E+03  0.14442296161E+03  0.00000000000E+00 0. -1.
          2   -1    0    0  502    0  0.00000000000E+00 -0.00000000000E+00 -0.25519324126E+03  0.25519324126E+03  0.00000000000E+00 0.  1.
          6    2    1    2  502    0 -0.88895852121E+01 -0.22809584472E+01 -0.14212020109E+03  0.22411806703E+03  0.17305065418E+03 0.  0.
         24    2    3    3    0    0 -0.28448890464E+02 -0.26841960051E+02 -0.16338098404E+03  0.18590916605E+03  0.79618100257E+02 0.  0.
         -6    2    1    2    0  501  0.88895852121E+01  0.22809584472E+01  0.31349921445E+02  0.17549813584E+03  0.17243129244E+03 0.  0.
        -24    2    5    5    0    0 -0.45327769285E+02  0.13534375820E+02 -0.20771706197E+02  0.99308143064E+02  0.84810715735E+02 0.  0.
          5    1    3    3  502    0  0.19559305251E+02  0.24561001604E+02  0.21260782951E+02  0.38208900971E+02  0.47000000000E+01 0. -1.
        -11    1    4    4    0    0  0.90029793763E+01 -0.44097792130E+02 -0.10680085724E+03  0.11589690253E+03  0.00000000000E+00 0.  1.
         12    1    4    4    0    0 -0.37451869840E+02  0.17255832078E+02 -0.56580126805E+02  0.70012263529E+02  0.00000000000E+00 0. -1.
         -5    1    5    5    0  501  0.54217354497E+02 -0.11253417372E+02  0.52121627642E+02  0.76189992776E+02  0.47000000000E+01 0.  1.
         13    1    6    6    0    0 -0.11510027619E+02 -0.29376024160E+02 -0.30421277564E+02  0.43827909599E+02  0.00000000000E+00 0. -1.
        -14    1    6    6    0    0 -0.33817741666E+02  0.42910399980E+02  0.96495713668E+01  0.55480233465E+02  0.00000000000E+00 0.  1.
</event>
<event>
12    1  0.2685360E-002  0.2405882E+03  0.7818608E-02  0.1119402E+00
         -2   -1    0    0    0  501 -0.00000000000E+00  0.00000000000E+00  0.15446141858E+03  0.15446141858E+03  0.00000000000E+00 0. -1.
          2   -1    0    0  502    0  0.00000000000E+00 -0.00000000000E+00 -0.39825310636E+03  0.39825310636E+03  0.00000000000E+00 0.  1.
          6    2    1    2  502    0 -0.16744888419E+03 -0.78147954205E+01 -0.18825403492E+03  0.30422357383E+03  0.17032968433E+03 0.  0.
         24    2    3    3    0    0 -0.11915951996E+03 -0.61926826417E+01 -0.41384287063E+02  0.14953903425E+03  0.80074484285E+02 0.  0.
         -6    2    1    2    0  501  0.16744888419E+03  0.78147954205E+01 -0.55537652854E+02  0.24849095111E+03  0.17482311648E+03 0.  0.
        -24    2    5    5    0    0  0.64218451238E+02 -0.38908770433E+02  0.22502902934E+02  0.11082457090E+03  0.78344131741E+02 0.  0.
          5    1    3    3  502    0 -0.48289364225E+02 -0.16221127788E+01 -0.14686974786E+03  0.15468453957E+03  0.47000000000E+01 0. -1.
        -11    1    4    4    0    0 -0.11802421356E+03 -0.22174379613E+02 -0.51418665713E+02  0.13063421176E+03  0.00000000000E+00 0.  1.
         12    1    4    4    0    0 -0.11353064033E+01  0.15981696971E+02  0.10034378651E+02  0.18904822496E+02  0.00000000000E+00 0. -1.
         -5    1    5    5    0  501  0.10323043295E+03  0.46723565854E+02 -0.78040555788E+02  0.13766638021E+03  0.47000000000E+01 0.  1.
         11    1    6    6    0    0  0.32901019773E+02 -0.10773231571E+02  0.49798802922E+02  0.60650312391E+02  0.00000000000E+00 0. -1.
        -12    1    6    6    0    0  0.31317431465E+02 -0.28135538862E+02 -0.27295899988E+02  0.50174258507E+02  0.00000000000E+00 0.  1.
</event>
<event>
12    1  0.2685360E-002  0.1917959E+03  0.7818608E-02  0.1156851E+00
         -2   -1    0    0    0  501 -0.00000000000E+00  0.00000000000E+00  0.74324941919E+02  0.74324941919E+02  0.00000000000E+00 0.  1.
          2   -1    0    0  502    0  0.00000000000E+00 -0.00000000000E+00 -0.52264143437E+03  0.52264143437E+03  0.00000000000E+00 0. -1.
          6    2    1    2  502    0  0.13530366810E+02  0.87816261280E+02 -0.15458508106E+03  0.24573851001E+03  0.16910381855E+03 0.  0.
         24    2    3    3    0    0 -0.43388171652E+02  0.69056440505E+02 -0.14490394925E+03  0.18484955199E+03  0.80751947027E+02 0.  0.
         -6    2    1    2    0  501 -0.13530366810E+02 -0.87816261280E+02 -0.29373141139E+03  0.35122786628E+03  0.17084526753E+03 0.  0.
        -24    2    5    5    0    0  0.48972254592E+02 -0.33867074826E+02 -0.10392128334E+03  0.14418423050E+03  0.80275766693E+02 0.  0.
          5    1    3    3  502    0  0.56918538461E+02  0.18759820775E+02 -0.96811318093E+01  0.60888958023E+02  0.47000000000E+01 0. -1.
        -13    1    4    4    0    0  0.15447862952E+02  0.27692667679E+02 -0.12328562618E+02  0.34022254029E+02  0.00000000000E+00 0.  1.
         14    1    4    4    0    0 -0.58836034603E+02  0.41363772826E+02 -0.13257538663E+03  0.15082729796E+03  0.00000000000E+00 0. -1.
         -5    1    5    5    0  501 -0.62502621401E+02 -0.53949186454E+02 -0.18981012806E+03  0.20704363577E+03  0.47000000000E+01 0.  1.
         13    1    6    6    0    0  0.33870065177E+02 -0.36170189740E+02 -0.11506071614E+03  0.12527742150E+03  0.00000000000E+00 0. -1.
        -14    1    6    6    0    0  0.15102189415E+02  0.23031149139E+01  0.11139432799E+02  0.18906808999E+02  0.00000000000E+00 0.  1.
</event>
<event>
12    1  0.2685360E-002  0.1900639E+03  0.7818608E-02  0.1158404E+00
         -2   -1    0    0    0  501 -0.00000000000E+00  0.00000000000E+00  0.20527546031E+02  0.20527546031E+02  0.00000000000E+00 0.  1.
          2   -1    0    0  502    0  0.00000000000E+00 -0.00000000000E+00 -0.17600967204E+04  0.17600967204E+04  0.00000000000E+00 0. -1.
          6    2    1    2  502    0  0.60928713476E+02 -0.49451938052E+02 -0.85442759632E+03  0.87508352585E+03  0.17195016011E+03 0.  0.
         24    2    3    3    0    0  0.71111232830E+02  0.25231191968E+02 -0.58226492444E+03  0.59263731226E+03  0.80579905450E+02 0.  0.
         -6    2    1    2    0  501 -0.60928713476E+02  0.49451938052E+02 -0.88514157807E+03  0.90554074059E+03  0.17427167685E+03 0.  0.
        -24    2    5    5    0    0  0.20729566698E+02 -0.44310373731E+01 -0.55834971819E+03  0.56438614302E+03  0.79548485895E+02 0.  0.
          5    1    3    3  502    0 -0.10182519353E+02 -0.74683130020E+02 -0.27216267188E+03  0.28244621359E+03  0.47000000000E+01 0. -1.
        -11    1    4    4    0    0 -0.15471264617E+02 -0.82242022381E+01 -0.86115068735E+02  0.87879477664E+02  0.00000000000E+00 0.  1.
         12    1    4    4    0    0  0.86582497447E+02  0.33455394206E+02 -0.49614985571E+03  0.50475783459E+03  0.00000000000E+00 0. -1.
         -5    1    5    5    0  501 -0.81658280175E+02  0.53882975425E+02 -0.32679185988E+03  0.34115459757E+03  0.47000000000E+01 0.  1.
         13    1    6    6    0    0 -0.24120186762E+02 -0.19534297299E+02 -0.31138051780E+03  0.31292363133E+03  0.00000000000E+00 0. -1.
        -14    1    6    6    0    0  0.44849753461E+02  0.15103259926E+02 -0.24696920039E+03  0.25146251169E+03  0.00000000000E+00 0.  1.
</event>
<event>
12    1  0.2685360E-002  0.2051991E+03  0.7818608E-02  0.1145425E+00
         -2   -1    0    0    0  501 -0.00000000000E+00  0.00000000000E+00  0.27268087299E+02  0.27268087299E+02  0.00000000000E+00 0. -1.
          2   -1    0    0  502    0  0.00000000000E+00 -0.00000000000E+00 -0.18717497058E+04  0.18717497058E+04  0.00000000000E+00 0.  1.
          6    2    1    2  502    0 -0.68115446653E+02 -0.77297309365E+02 -0.52777416271E+03  0.56653020174E+03  0.17831521120E+03 0.  0.
         24    2    3    3    0    0 -0.22237925999E+02 -0.11006801557E+03 -0.44848124515E+03  0.46912320577E+03  0.79571738339E+02 0.  0.
         -6    2    1    2    0  501  0.68115446653E+02  0.77297309365E+02 -0.13167074558E+04  0.13324875914E+04  0.17660710319E+03 0.  0.
        -24    2    5    5    0    0  0.10754844065E+02  0.10729147220E+03 -0.10270166717E+04  0.10356160216E+04  0.78167599521E+02 0.  0.
          5    1    3    3  502    0 -0.45877520654E+02  0.32770706207E+02 -0.79292917570E+02  0.97406995968E+02  0.47000000000E+01 0. -1.
        -11    1    4    4    0    0 -0.35517199773E+02 -0.86528151378E+02 -0.41821141027E+03  0.42854331887E+03  0.00000000000E+00 0.  1.
         12    1    4    4    0    0  0.13279273773E+02 -0.23539864195E+02 -0.30269834870E+02  0.40579886906E+02  0.00000000000E+00 0. -1.
         -5    1    5    5    0  501  0.57360602588E+02 -0.29994162837E+02 -0.28969078410E+03  0.29687156975E+03  0.47000000000E+01 0.  1.
         11    1    6    6    0    0 -0.32362518670E+02  0.61744160757E+02 -0.48547469256E+03  0.49045422939E+03  0.00000000000E+00 0. -1.
        -12    1    6    6    0    0  0.43117362735E+02  0.45547311445E+02 -0.54154197914E+03  0.54516179224E+03  0.00000000000E+00 0.  1.
</event>
<event>
12    1  0.2685360E-002  0.2371846E+03  0.7818608E-02  0.1121683E+00
         -1   -1    0    0    0  501 -0.00000000000E+00  0.00000000000E+00  0.31003272704E+03  0.31003272704E+03  0.00000000000E+00 0. -1.
          1   -1    0    0  502    0  0.00000000000E+00 -0.00000000000E+00 -0.19473809746E+03  0.19473809746E+03  0.00000000000E+00 0.  1.
          6    2    1    2  502    0 -0.22225883708E+02 -0.16669378223E+03  0.12420765086E+03  0.27061767099E+03  0.17183007996E+03 0.  0.
         24    2    3    3    0    0  0.28443572334E+02 -0.35398352080E+02  0.82369627189E+02  0.12372180999E+03  0.80375684433E+02 0.  0.
         -6    2    1    2    0  501  0.22225883708E+02  0.16669378223E+03 -0.89130212812E+01  0.23415315351E+03  0.16268819997E+03 0.  0.
        -24    2    5    5    0    0  0.31030329737E+02  0.37205177962E+02 -0.37228500081E+02  0.10122959185E+03  0.80711600259E+02 0.  0.
          5    1    3    3  502    0 -0.50669456041E+02 -0.13129543015E+03  0.41838023671E+02  0.14689586100E+03  0.47000000000E+01 0. -1.
        -13    1    4    4    0    0 -0.24313720442E+02 -0.24483497815E+02  0.15437324844E+02  0.37800921488E+02  0.00000000000E+00 0.  1.
         14    1    4    4    0    0  0.52757292775E+02 -0.10914854265E+02  0.66932302344E+02  0.85920888506E+02  0.00000000000E+00 0. -1.
         -5    1    5    5    0  501 -0.88044460293E+01  0.12948860427E+03  0.28315478800E+02  0.13292356166E+03  0.47000000000E+01 0.  1.
         13    1    6    6    0    0  0.38593416351E+02  0.58310609270E+02 -0.19347972252E+02  0.72552897733E+02  0.00000000000E+00 0. -1.
        -14    1    6    6    0    0 -0.75630866144E+01 -0.21105431309E+02 -0.17880527830E+02  0.28676694114E+02  0.00000000000E+00 0.  1.
</event>
<event>
12    1  0.2685360E-002  0.1990000E+03  0.7818608E-02  0.1150585E+00
          2   -1    0    0  502    0  0.00000000000E+00  0.00000000000E+00  0.41438021527E+03  0.41438021527E+03  0.00000000000E+00 0.  1.
         -2   -1    0    0    0  501 -0.00000000000E+00 -0.00000000000E+00 -0.97326289269E+02  0.97326289269E+02  0.00000000000E+00 0. -1.
          6    2    1    2  502    0  0.50940494350E+02 -0.86636236096E+02  0.19364866551E+03  0.27835369386E+03  0.17285890738E+03 0.  0.
         24    2    3    3    0    0  0.96986408050E+02 -0.85406549573E+02  0.13644137576E+03  0.20475680331E+03  0.81292419240E+02 0.  0.
         -6    2    1    2    0  501 -0.50940494350E+02  0.86636236096E+02  0.12340526049E+03  0.23335281069E+03  0.17065727224E+03 0.  0.
        -24    2    5    5    0    0 -0.72123967119E+02  0.40609743955E+02  0.13897716159E+03  0.18013860581E+03  0.79273248463E+02 0.  0.
          5    1    3    3  502    0 -0.46045913701E+02 -0.12296865231E+01  0.57207289747E+02  0.73596890544E+02  0.47000000000E+01 0. -1.
        -13    1    4    4    0    0  0.52901420367E+02 -0.71831214327E+02  0.13074308045E+03  0.15827835201E+03  0.00000000000E+00 0.  1.
         14    1    4    4    0    0  0.44084987683E+02 -0.13575335246E+02  0.56982953116E+01  0.46478451303E+02  0.00000000000E+00 0. -1.
         -5    1    5    5    0  501  0.21183472769E+02  0.46026492141E+02 -0.15571901094E+02  0.53214204880E+02  0.47000000000E+01 0.  1.
         13    1    6    6    0    0  0.14775031132E+02  0.14047260976E+02  0.10948772835E+02  0.23140931538E+02  0.00000000000E+00 0. -1.
        -14    1    6    6    0    0 -0.86898998251E+02  0.26562482979E+02  0.12802838875E+03  0.15699767427E+03  0.00000000000E+00 0.  1.
</event>
<event>
12    1  0.2685360E-002  0.2163660E+03  0.7818608E-02  0.1136622E+00
         -2   -1    0    0    0  501 -0.00000000000E+00  0.00000000000E+00  0.96441796366E+02  0.96441796366E+02  0.00000000000E+00 0.  1.
          2   -1    0    0  502    0  0.00000000000E+00 -0.00000000000E+00 -0.63258258019E+03  0.63258258019E+03  0.00000000000E+00 0. -1.
          6    2    1    2  502    0 -0.24591156110E+02 -0.13078586584E+03 -0.92452786216E+02  0.23548317864E+03  0.17086585991E+03 0.  0.
         24    2    3    3    0    0 -0.71607490133E+02 -0.46017248537E+02 -0.67250024330E+02  0.13521591902E+03  0.80719013739E+02 0.  0.
         -6    2    1    2    0  501  0.24591156110E+02  0.13078586584E+03 -0.44368799761E+03  0.49354119792E+03  0.17033557219E+03 0.  0.
        -24    2    5    5    0    0 -0.17709092478E+02  0.47821852219E+02 -0.34618640259E+03  0.35863015456E+03  0.78549480696E+02 0.  0.
          5    1    3    3  502    0  0.47016334023E+02 -0.84768617306E+02 -0.25202761886E+02  0.10026725962E+03  0.47000000000E+01 0. -1.
        -13    1    4    4    0    0  0.13855241160E+02  0.77209681773E+01 -0.50816080091E+01  0.16655443470E+02  0.00000000000E+00 0.  1.
         14    1    4    4    0    0 -0.85462731293E+02 -0.53738216715E+02 -0.62168416321E+02  0.11856047555E+03  0.00000000000E+00 0. -1.
         -5    1    5    5    0  501  0.42300248587E+02  0.82964013624E+02 -0.97501595019E+02  0.13491104335E+03  0.47000000000E+01 0.  1.
         11    1    6    6    0    0  0.25031980318E+02  0.22514559350E+02 -0.22736746499E+03  0.22984662181E+03  0.00000000000E+00 0. -1.
        -12    1    6    6    0    0 -0.42741072796E+02  0.25307292869E+02 -0.11881893761E+03  0.12878353276E+03  0.00000000000E+00 0.  1.
</event>
<event>
12    1  0.2685360E-002  0.1867771E+03  0.7818608E-02  0.1161401E+00
          1   -1    0    0  502    0  0.00000000000E+00  0.00000000000E+00  0.76651622746E+03  0.76651622746E+03  0.00000000000E+00 0.  1.
         -1   -1    0    0    0  501 -0.00000000000E+00 -0.00000000000E+00 -0.45782855296E+02  0.45782855296E+02  0.00000000000E+00 0. -1.
          6    2    1    2  502    0  0.69056415045E+02 -0.18556842874E+02  0.39130626682E+03  0.43353031633E+03  0.17237980116E+03 0.  0.
         24    2    3    3    0    0  0.14400898564E+02 -0.62946652146E+02  0.30420098901E+03  0.32142723845E+03  0.81286905482E+02 0.  0.
         -6    2    1    2    0  501 -0.69056415045E+02  0.18556842874E+02  0.32942710534E+03  0.37876876642E+03  0.17271483957E+03 0.  0.
        -24    2    5    5    0    0  0.35843263885E+00 -0.10237154079E+02  0.98086365206E+02  0.13548263162E+03  0.92896074379E+02 0.  0.
          5    1    3    3  502    0  0.54655516481E+02  0.44389809272E+02  0.87105277809E+02  0.11210307788E+03  0.47000000000E+01 0. -1.
        -11    1    4    4    0    0 -0.26042362091E+02 -0.52744982015E+02  0.21591054910E+03  0.22378025598E+03  0.00000000000E+00 0.  1.
         12    1    4    4    0    0  0.40443260655E+02 -0.10201670131E+02  0.88290439911E+02  0.97646982470E+02  0.00000000000E+00 0. -1.
         -5    1    5    5    0  501 -0.69414847684E+02  0.28793996954E+02  0.23134074013E+03  0.24328613480E+03  0.47000000000E+01 0.  1.
         13    1    6    6    0    0 -0.44258308242E+02 -0.18275925851E+02  0.45519890485E+02  0.66067145723E+02  0.00000000000E+00 0. -1.
        -14    1    6    6    0    0  0.44616740881E+02  0.80387717715E+01  0.52566474720E+02  0.69415485902E+02  0.00000000000E+00 0.  1.
</event>
<event>
12    1  0.2685360E-002  0.2275948E+03  0.7818608E-02  0.1128344E+00
         -1   -1    0    0    0  501 -0.00000000000E+00  0.00000000000E+00  0.11168244346E+03  0.11168244346E+03  0.00000000000E+00 0.  1.
          1   -1    0    0  502    0  0.00000000000E+00 -0.00000000000E+00 -0.61639030545E+03  0.61639030545E+03  0.00000000000E+00 0. -1.
          6    2    1    2  502    0  0.82836368291E+02  0.12905957168E+03 -0.43594709035E+03  0.49320416700E+03  0.17228536737E+03 0.  0.
         24    2    3    3    0    0  0.10181153284E+03  0.67241476378E+02 -0.38134130571E+03  0.40843733686E+03  0.80702306875E+02 0.  0.
         -6    2    1    2    0  501 -0.82836368291E+02 -0.12905957168E+03 -0.68760771644E+02  0.23486858191E+03  0.16406392078E+03 0.  0.
        -24    2    5    5    0    0 -0.38686222303E+02 -0.84478316459E+01  0.12058833785E+01  0.88533862729E+02  0.79175760429E+02 0.  0.
          5    1    3    3  502    0 -0.18975164551E+02  0.61818095300E+02 -0.54605784634E+02  0.84766830138E+02  0.47000000000E+01 0. -1.
        -13    1    4    4    0    0 -0.72420454317E+01  0.11899101501E+02 -0.10915486057E+03  0.11004008100E+03  0.00000000000E+00 0.  1.
         14    1    4    4    0    0  0.10905357827E+03  0.55342374877E+02 -0.27218644514E+03  0.29839725587E+03  0.00000000000E+00 0. -1.
         -5    1    5    5    0  501 -0.44150145988E+02 -0.12061174003E+03 -0.69966655023E+02  0.14633471919E+03  0.47000000000E+01 0.  1.
         11    1    6    6    0    0  0.22240467209E+02 -0.18482157089E+01  0.13425807655E+02  0.26044319806E+02  0.00000000000E+00 0. -1.
        -12    1    6    6    0    0 -0.60926689512E+02 -0.65996159370E+01 -0.12219924276E+02  0.62489542923E+02  0.00000000000E+00 0.  1.
</event>
<event>
12    1  0.2685360E-002  0.2247352E+03  0.7818608E-02  0.1130401E+00
          2   -1    0    0  502    0  0.00000000000E+00  0.00000000000E+00  0.83560828013E+03  0.83560828013E+03  0.00000000000E+00 0. -1.
         -2   -1    0    0    0  501 -0.00000000000E+00 -0.00000000000E+00 -0.69784985104E+02  0.69784985104E+02  0.00000000000E+00 0.  1.
          6    2    1    2  502    0  0.13719757070E+03  0.46015919507E+02  0.21704315789E+03  0.31232072460E+03  0.17174360067E+03 0.  0.
         24    2    3    3    0    0  0.76685824305E+01  0.47336164194E+02  0.47737634857E+02  0.99093259250E+02  0.72395252952E+02 0.  0.
         -6    2    1    2    0  501 -0.13719757070E+03 -0.46015919507E+02  0.54878013714E+03  0.59307254064E+03  0.17214749863E+03 0.  0.
        -24    2    5    5    0    0 -0.83561212571E+02 -0.94811392121E+02  0.40774187730E+03  0.43441650451E+03  0.80576575785E+02 0.  0.
          5    1    3    3  502    0  0.12952898827E+03 -0.13202446862E+01  0.16930552303E+03  0.21322746535E+03  0.47000000000E+01 0. -1.
        -13    1    4    4    0    0 -0.28561667984E+02  0.25841347958E+02  0.41307261515E+02  0.56478615388E+02  0.00000000000E+00 0.  1.
         14    1    4    4    0    0  0.36230250415E+02  0.21494816236E+02  0.64303733422E+01  0.42614643862E+02  0.00000000000E+00 0. -1.
         -5    1    5    5    0  501 -0.53636358133E+02  0.48795472613E+02  0.14103825984E+03  0.15865603613E+03  0.47000000000E+01 0.  1.
         11    1    6    6    0    0 -0.44218031578E+02 -0.25975680179E+02  0.27546304038E+03  0.28019610435E+03  0.00000000000E+00 0. -1.
        -12    1    6    6    0    0 -0.39343180993E+02 -0.68835711941E+02  0.13227883692E+03  0.15422040016E+03  0.00000000000E+00 0.  1.
</event>
<event>
12    1  0.2685360E-002  0.1889492E+03  0.7818608E-02  0.1159413E+00
          2   -1    0    0  502    0  0.00000000000E+00  0.00000000000E+00  0.12053520799E+04  0.12053520799E+04  0.00000000000E+00 0. -1.
         -2   -1    0    0    0  501 -0.00000000000E+00 -0.00000000000E+00 -0.30982207127E+02  0.30982207127E+02  0.00000000000E+00 0.  1.
          6    2    1    2  502    0 -0.65636022374E+02 -0.42255041261E+02  0.45557282467E+03  0.49294748732E+03  0.17133899362E+03 0.  0.
         24    2    3    3    0    0 -0.11784848941E+02 -0.77511349335E+02  0.36554775495E+03  0.38217944448E+03  0.79303686465E+02 0.  0.
         -6    2    1    2    0  501  0.65636022374E+02  0.42255041261E+02  0.71879704806E+03  0.74338679966E+03  0.17280382422E+03 0.  0.
        -24    2    5    5    0    0 -0.31762777812E+02  0.39807045699E+02  0.37346418886E+03  0.38454227538E+03  0.76182584985E+02 0.  0.
          5    1    3    3  502    0 -0.53851173433E+02  0.35256308074E+02  0.90025069715E+02  0.11076804285E+03  0.47000000000E+01 0. -1.
        -13    1    4    4    0    0  0.24364626913E+02 -0.19940634092E+02  0.47771820830E+02  0.57213729104E+02  0.00000000000E+00 0.  1.
         14    1    4    4    0    0 -0.36149475853E+02 -0.57570715243E+02  0.31777593412E+03  0.32496571537E+03  0.00000000000E+00 0. -1.
         -5    1    5    5    0  501  0.97398800186E+02  0.24479955620E+01  0.34533285920E+03  0.35884452428E+03  0.47000000000E+01 0.  1.
         13    1    6    6    0    0 -0.77005182518E+01  0.36710083438E+02  0.34546155400E+03  0.34749188983E+03  0.00000000000E+00 0. -1.
        -14    1    6    6    0    0 -0.24062259561E+02  0.30969622613E+01  0.28002634860E+02  0.37050385551E+02  0.00000000000E+00 0.  1.
</event>
<event>
12    1  0.2685360E-002  0.1885493E+03  0.7818608E-02  0.1159776E+00
          2   -1    0    0  502    0  0.00000000000E+00  0.00000000000E+00  0.48491991761E+02  0.48491991761E+02  0.00000000000E+00 0. -1.
         -2   -1    0    0    0  501 -0.00000000000E+00 -0.00000000000E+00 -0.81146085293E+03  0.81146085293E+03  0.00000000000E+00 0.  1.
          6    2    1    2  502    0  0.18715704162E+02  0.77226479343E+02 -0.51293865727E+03  0.54609859056E+03  0.16971563804E+03 0.  0.
         24    2    3    3    0    0 -0.52764113095E+02  0.33622106658E+02 -0.31964200726E+03  0.33539408065E+03  0.80022989457E+02 0.  0.
         -6    2    1    2    0  501 -0.18715704162E+02 -0.77226479343E+02 -0.25003020390E+03  0.31385425414E+03  0.17226486374E+03 0.  0.
        -24    2    5    5    0    0  0.47300066333E+02 -0.21158474753E+02 -0.17561545595E+03  0.19956800034E+03  0.79382750419E+02 0.  0.
          5    1    3    3  502    0  0.71479817257E+02  0.43604372685E+02 -0.19329665001E+03  0.21070450991E+03  0.47000000000E+01 0. -1.
        -13    1    4    4    0    0 -0.24725193326E+02  0.16002111187E+02 -0.24247054280E+02  0.38148687903E+02  0.00000000000E+00 0.  1.
         14    1    4    4    0    0 -0.28038919769E+02  0.17619995472E+02 -0.29539495298E+03  0.29724539275E+03  0.00000000000E+00 0. -1.
         -5    1    5    5    0  501 -0.66015770495E+02 -0.56068004590E+02 -0.74414747958E+02  0.11428625379E+03  0.47000000000E+01 0.  1.
         11    1    6    6    0    0  0.49113735645E+01 -0.45542319190E+02 -0.89279014028E+02  0.10034424136E+03  0.00000000000E+00 0. -1.
        -12    1    6    6    0    0  0.42388692768E+02  0.24383844436E+02 -0.86336441919E+02  0.99223758986E+02  0.00000000000E+00 0.  1.
</event>
<event>
12    1  0.2685360E-002  0.2244894E+03  0.7818608E-02  0.1130580E+00
         -1   -1    0    0    0  501 -0.00000000000E+00  0.00000000000E+00  0.22440895751E+03  0.22440895751E+03  0.00000000000E+00 0. -1.
          1   -1    0    0  502    0  0.00000000000E+00 -0.00000000000E+00 -0.25143982698E+03  0.25143982698E+03  0.00000000000E+00 0.  1.
          6    2    1    2  502    0 -0.87444707240E+02 -0.11190841426E+03 -0.91382859587E+02  0.24469723697E+03  0.17707580508E+03 0.  0.
         24    2    3    3    0    0 -0.44616992072E+02  0.20001112597E+01  0.22105049477E+01  0.91103053295E+02  0.79373821635E+02 0.  0.
         -6    2    1    2    0  501  0.87444707240E+02  0.11190841426E+03  0.64351990117E+02  0.23115154753E+03  0.17064521466E+03 0.  0.
        -24    2    5    5    0    0  0.53790196555E+02  0.75189264350E+02  0.10917402967E+03  0.16397992190E+03  0.80147584568E+02 0.  0.
          5    1    3    3  502    0 -0.42827715168E+02 -0.11390852552E+03 -0.93593364535E+02  0.15359418367E+03  0.47000000000E+01 0. -1.
        -11    1    4    4    0    0 -0.19528770352E+02 -0.38572369025E+02  0.35665387044E+01  0.43381110198E+02  0.00000000000E+00 0.  1.
         12    1    4    4    0    0 -0.25088221719E+02  0.40572480284E+02 -0.13560337567E+01  0.47721943097E+02  0.00000000000E+00 0. -1.
         -5    1    5    5    0  501  0.33654510685E+02  0.36719149909E+02 -0.44822039556E+02  0.67171625627E+02  0.47000000000E+01 0.  1.
         11    1    6    6    0    0  0.66863576091E+00  0.66370736124E+02  0.75233805778E+02  0.10032769916E+03  0.00000000000E+00 0. -1.
        -12    1    6    6    0    0  0.53121560794E+02  0.88185282262E+01  0.33940223895E+02  0.63652222736E+02  0.00000000000E+00 0.  1.
</event>
<event>
12    1  0.2685360E-002  0.2093477E+03  0.7818608E-02  0.1142084E+00
          1   -1    0    0  502    0  0.00000000000E+00  0.00000000000E+00  0.14185718812E+03  0.14185718812E+03  0.00000000000E+00 0. -1.
         -1   -1    0    0    0  501 -0.00000000000E+00 -0.00000000000E+00 -0.31038613329E+03  0.31038613329E+03  0.00000000000E+00 0.  1.
          6    2    1    2  502    0 -0.32672731610E+02  0.11434216448E+03 -0.99300037624E+02  0.23095704984E+03  0.17128637842E+03 0.  0.
         24    2    3    3    0    0  0.21141468936E+02  0.12191967051E+03 -0.94691206510E+02  0.17621476178E+03  0.82303401587E+02 0.  0.
         -6    2    1    2    0  501  0.32672731610E+02 -0.11434216448E+03 -0.69228907544E+02  0.22128627157E+03  0.17330128210E+03 0.  0.
        -24    2    5    5    0    0 -0.29105307838E+02 -0.25909731720E+02  0.56481155270E+01  0.89888098427E+02  0.80805543668E+02 0.  0.
          5    1    3    3  502    0 -0.53814200546E+02 -0.75775060341E+01 -0.46088311140E+01  0.54742288063E+02  0.47000000000E+01 0. -1.
        -13    1    4    4    0    0  0.19156578377E+02  0.13339814120E+03 -0.77539260909E+02  0.15548110996E+03  0.00000000000E+00 0.  1.
         14    1    4    4    0    0  0.19848905590E+01 -0.11478470693E+02 -0.17151945601E+02  0.20733651822E+02  0.00000000000E+00 0. -1.
         -5    1    5    5    0  501  0.61778039448E+02 -0.88432432755E+02 -0.74877023070E+02  0.13139817314E+03  0.47000000000E+01 0.  1.
         11    1    6    6    0    0 -0.46011022122E+02 -0.28258072816E+02  0.28744001570E+02  0.61169849291E+02  0.00000000000E+00 0. -1.
        -12    1    6    6    0    0  0.16905714283E+02  0.23483410963E+01 -0.23095886043E+02  0.28718249136E+02  0.00000000000E+00 0.  1.
</event>
<event>
12    1  0.2685360E-002  0.1952075E+03  0.7818608E-02  0.1153847E+00
         -1   -1    0    0    0  501 -0.00000000000E+00  0.00000000000E+00  0.15886466869E+04  0.15886466869E+04  0.00000000000E+00 0. -1.
          1   -1    0    0  502    0  0.00000000000E+00 -0.00000000000E+00 -0.35351000750E+02  0.35351000750E+02  0.00000000000E+00 0.  1.
          6    2    1    2  502    0  0.45613676531E+02  0.79857630786E+02  0.31564890492E+03  0.37101605216E+03  0.17193263536E+03 0.  0.
         24    2    3    3    0    0 -0.57668501876E+01  0.83025218523E+02  0.29056215203E+03  0.31355800391E+03  0.83461453087E+02 0.  0.
         -6    2    1    2    0  501 -0.45613676531E+02 -0.79857630786E+02  0.12376467813E+04  0.12529816355E+04  0.17244006236E+03 0.  0.
        -24    2    5    5    0    0  0.20178403550E+01 -0.93407193196E+02  0.10976202753E+04  0.11043819572E+04  0.78487343490E+02 0.  0.
          5    1    3    3  502    0  0.51380526719E+02 -0.31675877375E+01  0.25086752888E+02  0.57458048248E+02  0.47000000000E+01 0. -1.
        -11    1    4    4    0    0  0.12003223196E+02  0.81444679676E+02  0.14365808541E+03  0.16557463187E+03  0.00000000000E+00 0.  1.
         12    1    4    4    0    0 -0.17770073383E+02  0.15805388468E+01  0.14690406662E+03  0.14798337204E+03  0.00000000000E+00 0. -1.
         -5    1    5    5    0  501 -0.47631516886E+02  0.13549562410E+02  0.14002650591E+03  0.14859967833E+03  0.47000000000E+01 0.  1.
         11    1    6    6    0    0  0.11569077341E+02 -0.72735369673E+02  0.42204395004E+03  0.42842195709E+03  0.00000000000E+00 0. -1.
        -12    1    6    6    0    0 -0.95512369855E+01 -0.20671823523E+02  0.67557632531E+03  0.67596000010E+03  0.00000000000E+00 0.  1.
</event>
<event>
12    1  0.2685360E-002  0.3252482E+03  0.7818608E-02  0.1073259E+00
          2   -1    0    0  502    0  0.00000000000E+00  0.00000000000E+00  0.44134456730E+03  0.44134456730E+03  0.00000000000E+00 0. -1.
         -2   -1    0    0    0  501 -0.00000000000E+00 -0.00000000000E+00 -0.24498701415E+03  0.24498701415E+03  0.00000000000E+00 0.  1.
          6    2    1    2  502    0 -0.34084565262E+01  0.27285207497E+03  0.47558095049E+02  0.32813860180E+03  0.17593549158E+03 0.  0.
         24    2    3    3    0    0 -0.69025787964E+02  0.15101812604E+03  0.99400555202E+01  0.18465915312E+03  0.80182069878E+02 0.  0.
         -6    2    1    2    0  501  0.34084565262E+01 -0.27285207497E+03  0.14879945810E+03  0.35819297965E+03  0.17804791362E+03 0.  0.
        -24    2    5    5    0    0  0.15526636811E+02 -0.99481668065E+02  0.13081283243E+03  0.18340809189E+03  0.79930296573E+02 0.  0.
          5    1    3    3  502    0  0.65617331438E+02  0.12183394893E+03  0.37618039529E+02  0.14347944868E+03  0.47000000000E+01 0. -1.
        -13    1    4    4    0    0 -0.46517264265E+02  0.11936586003E+03 -0.27149736213E+02  0.13095484944E+03  0.00000000000E+00 0.  1.
         14    1    4    4    0    0 -0.22508523699E+02  0.31652266008E+02  0.37089791733E+02  0.53704303676E+02  0.00000000000E+00 0. -1.
         -5    1    5    5    0  501 -0.12118180285E+02 -0.17337040691E+03  0.17986625671E+02  0.17478488775E+03  0.47000000000E+01 0.  1.
         13    1    6    6    0    0  0.42328095250E+02 -0.90060230308E+02  0.93818689468E+02  0.13676424688E+03  0.00000000000E+00 0. -1.
        -14    1    6    6    0    0 -0.26801458439E+02 -0.94214377571E+01  0.36994142965E+02  0.46643845013E+02  0.00000000000E+00 0.  1.
</event>
<event>
12    1  0.2685360E-002  0.1838012E+03  0.7818608E-02  0.1164174E+00
          1   -1    0    0  502    0  0.00000000000E+00  0.00000000000E+00  0.64342562469E+03  0.64342562469E+03  0.00000000000E+00 0. -1.
         -1   -1    0    0    0  501 -0.00000000000E+00 -0.00000000000E+00 -0.66618905368E+02  0.66618905368E+02  0.00000000000E+00 0.  1.
          6    2    1    2  502    0  0.36885154349E+02  0.54677773952E+02  0.45114762060E+03  0.48694963861E+03  0.17098421388E+03 0.  0.
         24    2    3    3    0    0 -0.35667155183E+02  0.20051361989E+02  0.14037012718E+03  0.16590826054E+03  0.78406474425E+02 0.  0.
         -6    2    1    2    0  501 -0.36885154349E+02 -0.54677773952E+02  0.12565909872E+03  0.22309489144E+03  0.17213642241E+03 0.  0.
        -24    2    5    5    0    0  0.23388991751E+02  0.48568168225E+01  0.10909829401E+03  0.13664438283E+03  0.78731289836E+02 0.  0.
          5    1    3    3  502    0  0.72552309532E+02  0.34626411963E+02  0.31077749341E+03  0.32104137808E+03  0.47000000000E+01 0. -1.
        -13    1    4    4    0    0 -0.98185258702E+01  0.42421766244E+02  0.37359902530E+02  0.57373966383E+02  0.00000000000E+00 0.  1.
         14    1    4    4    0    0 -0.25848629313E+02 -0.22370404254E+02  0.10301022465E+03  0.10853429415E+03  0.00000000000E+00 0. -1.
         -5    1    5    5    0  501 -0.60274146099E+02 -0.59534590775E+02  0.16560804714E+02  0.86450508613E+02  0.47000000000E+01 0.  1.
         11    1    6    6    0    0  0.18982855675E+01 -0.25234659142E+02  0.92881257798E+02  0.96266918306E+02  0.00000000000E+00 0. -1.
        -12    1    6    6    0    0  0.21490706183E+02  0.30091475965E+02  0.16217036209E+02  0.40377464524E+02  0.00000000000E+00 0.  1.
</event>
<event>
12    1  0.2685360E-002  0.2348107E+03  0.7818608E-02  0.1123299E+00
          1   -1    0    0  502    0  0.00000000000E+00  0.00000000000E+00  0.13836496021E+04  0.13836496021E+04  0.00000000000E+00 0.  1.
         -1   -1    0    0    0  501 -0.00000000000E+00 -0.00000000000E+00 -0.43452671443E+02  0.43452671443E+02  0.00000000000E+00 0. -1.
          6    2    1    2  502    0  0.15724733531E+03  0.18545052122E+02  0.87568594188E+03  0.90662889374E+03  0.17343424902E+03 0.  0.
         24    2    3    3    0    0  0.14043650086E+03 -0.64400324144E+01  0.85363590467E+03  0.86901037775E+03  0.81981059389E+02 0.  0.
         -6    2    1    2    0  501 -0.15724733531E+03 -0.18545052122E+02  0.46451098878E+03  0.52047337981E+03  0.17335350291E+03 0.  0.
        -24    2    5    5    0    0 -0.16354077384E+03  0.30544169043E+02  0.38179461490E+03  0.42396717529E+03  0.79388329020E+02 0.  0.
          5    1    3    3  502    0  0.16810834456E+02  0.24985084536E+02  0.22050037210E+02  0.37618515991E+02  0.47000000000E+01 0. -1.
        -13    1    4    4    0    0  0.10971591823E+03 -0.27907007898E+02  0.46546767711E+03  0.47903709902E+03  0.00000000000E+00 0.  1.
         14    1    4    4    0    0  0.30720582623E+02  0.21466975484E+02  0.38816822756E+03  0.38997327873E+03  0.00000000000E+00 0. -1.
         -5    1    5    5    0  501  0.62934385297E+01 -0.49089221165E+02  0.82716373884E+02  0.96506204524E+02  0.47000000000E+01 0.  1.
         11    1    6    6    0    0 -0.13295240650E+02  0.21032702358E+02  0.19416495867E+02  0.31561658768E+02  0.00000000000E+00 0. -1.
        -12    1    6    6    0    0 -0.15024553319E+03  0.95114666855E+01  0.36237811903E+03  0.39240551652E+03  0.00000000000E+00 0.  1.
</event>
<event>
12    1  0.2685360E-002  0.2075029E+03  0.7818608E-02  0.1143559E+00
         -2   -1    0    0    0  501 -0.00000000000E+00  0.00000000000E+00  0.18580155219E+03  0.18580155219E+03  0.00000000000E+00 0.  1.
          2   -1    0    0  502    0  0.00000000000E+00 -0.00000000000E+00 -0.59557176845E+03  0.59557176845E+03  0.00000000000E+00 0. -1.
          6    2    1    2  502    0 -0.82729919016E+02  0.82453395828E+02 -0.51033585154E+03  0.55099745538E+03  0.17179264386E+03 0.  0.
         24    2    3    3    0    0 -0.93160819906E+02  0.64197111239E+02 -0.22099575422E+03  0.26085632156E+03  0.80041799427E+02 0.  0.
         -6    2    1    2    0  501  0.82729919016E+02 -0.82453395828E+02  0.10056563528E+03  0.23037586526E+03  0.17122146568E+03 0.  0.
        -24    2    5    5    0    0 -0.25264998398E+02 -0.40458288461E+02  0.41271926653E+02  0.10012869595E+03  0.77763684153E+02 0.  0.
          5    1    3    3  502    0  0.10430900890E+02  0.18256284589E+02 -0.28934009732E+03  0.29014113382E+03  0.47000000000E+01 0. -1.
        -11    1    4    4    0    0 -0.44004189355E+02  0.73396718459E+02 -0.11214699209E+03  0.14106875911E+03  0.00000000000E+00 0.  1.
         12    1    4    4    0    0 -0.49156630551E+02 -0.91996072204E+01 -0.10884876213E+03  0.11978756245E+03  0.00000000000E+00 0. -1.
         -5    1    5    5    0  501  0.10799491741E+03 -0.41995107367E+02  0.59293708629E+02  0.13024716931E+03  0.47000000000E+01 0.  1.
         11    1    6    6    0    0  0.23088837507E+02 -0.34038463902E+02  0.27382266041E+02  0.49411536464E+02  0.00000000000E+00 0. -1.
        -12    1    6    6    0    0 -0.48353835905E+02 -0.64198245590E+01  0.13889660613E+02  0.50717159483E+02  0.00000000000E+00 0.  1.
</event>
<event>
12    1  0.2685360E-002  0.2103165E+03  0.7818608E-02  0.1141316E+00
         -2   -1    0    0    0  501 -0.00000000000E+00  0.00000000000E+00  0.81591746114E+02  0.81591746114E+02  0.00000000000E+00 0.  1.
          2   -1    0    0  502    0  0.00000000000E+00 -0.00000000000E+00 -0.54515246393E+03  0.54515246393E+03  0.00000000000E+00 0. -1.
          6    2    1    2  502    0 -0.59408557356E+02 -0.10571209458E+03 -0.20805160482E+03  0.29558482941E+03  0.17140740205E+03 0.  0.
         24    2    3    3    0    0 -0.60209615658E+02 -0.42637827111E+02 -0.38022805987E+02  0.11417124848E+03  0.78397436727E+02 0.  0.
         -6    2    1    2    0  501  0.59408557356E+02  0.10571209458E+03 -0.25550911299E+03  0.33115938063E+03  0.17227073151E+03 0.  0.
        -24    2    5    5    0    0 -0.22259391778E+02  0.94648230754E+02 -0.17919260497E+03  0.21873890921E+03  0.79265078190E+02 0.  0.
          5    1    3    3  502    0  0.80105830209E+00 -0.63074267469E+02 -0.17002879884E+03  0.18141358093E+03  0.47000000000E+01 0. -1.
        -13    1    4    4    0    0  0.17758372443E+02 -0.14203034268E+02  0.34057737468E+00  0.22742074821E+02  0.00000000000E+00 0.  1.
         14    1    4    4    0    0 -0.77967988101E+02 -0.28434792843E+02 -0.38363383361E+02  0.91429173656E+02  0.00000000000E+00 0. -1.
         -5    1    5    5    0  501  0.81667949133E+02  0.11063863826E+02 -0.76316508018E+02  0.11242047142E+03  0.47000000000E+01 0.  1.
         13    1    6    6    0    0  0.36987327566E+01  0.26932271111E+02 -0.12574619051E+03  0.12865120396E+03  0.00000000000E+00 0. -1.
        -14    1    6    6    0    0 -0.25958124534E+02  0.67715959643E+02 -0.53446414454E+02  0.90087705252E+02  0.00000000000E+00 0.  1.
</event>
<event>
12    1  0.2685360E-002  0.2763285E+03  0.7818608E-02  0.1097711E+00
         -2   -1    0    0    0  501 -0.00000000000E+00  0.00000000000E+00  0.14273777105E+03  0.14273777105E+03  0.00000000000E+00 0. -1.
          2   -1    0    0  502    0  0.00000000000E+00 -0.00000000000E+00 -0.84580478590E+03  0.84580478590E+03  0.00000000000E+00 0.  1.
          6    2    1    2  502    0  0.12923750263E+03  0.17363534330E+03 -0.65194489778E+03  0.70846270972E+03  0.17330809790E+03 0.  0.
         24    2    3    3    0    0  0.76409624585E+02  0.17413112424E+03 -0.59937152888E+03  0.63378286228E+03  0.79211159047E+02 0.  0.
         -6    2    1    2    0  501 -0.12923750263E+03 -0.17363534330E+03 -0.51122117069E+02  0.28007984723E+03  0.17023420761E+03 0.  0.
        -24    2    5    5    0    0 -0.14681478099E+03 -0.11415704993E+03 -0.67625432907E+01  0.20368292397E+03  0.82792448701E+02 0.  0.
          5    1    3    3  502    0  0.52827878047E+02 -0.49578094555E+00 -0.52573368894E+02  0.74679847446E+02  0.47000000000E+01 0. -1.
        -13    1    4    4    0    0  0.51914642454E+02  0.30710925108E+02 -0.16377828079E+03  0.17453256510E+03  0.00000000000E+00 0.  1.
         14    1    4    4    0    0  0.24494982131E+02  0.14342019914E+03 -0.43559324810E+03  0.45925029718E+03  0.00000000000E+00 0. -1.
         -5    1    5    5    0  501  0.17577278359E+02 -0.59478293374E+02 -0.44359573778E+02  0.76396923256E+02  0.47000000000E+01 0.  1.
         11    1    6    6    0    0 -0.11928282077E+03 -0.12173073158E+03 -0.21097595442E+02  0.17173197395E+03  0.00000000000E+00 0. -1.
        -12    1    6    6    0    0 -0.27531960219E+02  0.75736816573E+01  0.14335052152E+02  0.31950950025E+02  0.00000000000E+00 0.  1.
</event>
<event>
12    1  0.2685360E-002  0.2101206E+03  0.7818608E-02  0.1141471E+00
         -2   -1    0    0    0  501 -0.00000000000E+00  0.00000000000E+00  0.65109686082E+02  0.65109686082E+02  0.00000000000E+00 0.  1.
          2   -1    0    0  502    0  0.00000000000E+00 -0.00000000000E+00 -0.72824356181E+03  0.72824356181E+03  0.00000000000E+00 0. -1.
          6    2    1    2  502    0  0.11955877780E+03  0.25480390794E+02 -0.22622303605E+03  0.30816808793E+03  0.16984450745E+03 0.  0.
         24    2    3    3    0    0  0.11956902859E+03  0.15114450849E+02 -0.24595019220E+03  0.28539302469E+03  0.80202757274E+02 0.  0.
         -6    2    1    2    0  501 -0.11955877780E+03 -0.25480390794E+02 -0.43691083968E+03  0.48518515997E+03  0.17195931485E+03 0.  0.
        -24    2    5    5    0    0 -0.13952062632E+03 -0.59711703023E+02 -0.37785738411E+03  0.41391343523E+03  0.74274063360E+02 0.  0.
          5    1    3    3  502    0 -0.10250792349E-01  0.10365939946E+02  0.19727156145E+02  0.22775063240E+02  0.47000000000E+01 0. -1.
        -11    1    4    4    0    0  0.51779372040E+02  0.14173926534E+02 -0.35670832064E+02  0.64454726920E+02  0.00000000000E+00 0.  1.
         12    1    4    4    0    0  0.67789656553E+02  0.94052431440E+00 -0.21027936013E+03  0.22093829777E+03  0.00000000000E+00 0. -1.
         -5    1    5    5    0  501  0.19961848521E+02  0.34231312229E+02 -0.59053455569E+02  0.71271724744E+02  0.47000000000E+01 0.  1.
         11    1    6    6    0    0 -0.26453900746E+02  0.13162935341E+02 -0.11371869433E+03  0.11749473678E+03  0.00000000000E+00 0. -1.
        -12    1    6    6    0    0 -0.11306672558E+03 -0.72874638364E+02 -0.26413868978E+03  0.29641869845E+03  0.00000000000E+00 0.  1.
</event>
<event>
12    1  0.2685360E-002  0.1862846E+03  0.7818608E-02  0.1161856E+00
          2   -1    0    0  502    0  0.00000000000E+00  0.00000000000E+00  0.75610457472E+02  0.75610457472E+02  0.00000000000E+00 0.  1.
         -2   -1    0    0    0  501 -0.00000000000E+00 -0.00000000000E+00 -0.51917196024E+03  0.51917196024E+03  0.00000000000E+00 0. -1.
          6    2    1    2  502    0 -0.57958852022E+02 -0.45985786326E+02 -0.12126091494E+03  0.22287688121E+03  0.17174391871E+03 0.  0.
         24    2    3    3    0    0 -0.99673451277E+02 -0.61122227735E+02 -0.98375627453E+02  0.17272664659E+03  0.80535748287E+02 0.  0.
         -6    2    1    2    0  501  0.57958852022E+02  0.45985786326E+02 -0.32230058783E+03  0.37190553650E+03  0.17018266096E+03 0.  0.
        -24    2    5    5    0    0  0.96892009587E+02  0.65847142483E+02 -0.24635985585E+03  0.28415960212E+03  0.79558740613E+02 0.  0.
          5    1    3    3  502    0  0.41714599255E+02  0.15136441408E+02 -0.22885287486E+02  0.50150234624E+02  0.47000000000E+01 0. -1.
        -11    1    4    4    0    0 -0.13373827026E+02 -0.53300121081E+02 -0.32170778462E+02  0.63676692310E+02  0.00000000000E+00 0.  1.
         12    1    4    4    0    0 -0.86299624250E+02 -0.78221066532E+01 -0.66204848990E+02  0.10904995428E+03  0.00000000000E+00 0. -1.
         -5    1    5    5    0  501 -0.38933157566E+02 -0.19861356157E+02 -0.75940731983E+02  0.87745934382E+02  0.47000000000E+01 0.  1.
         13    1    6    6    0    0  0.31808045627E+02  0.62578076026E+02 -0.16906961089E+03  0.18306365202E+03  0.00000000000E+00 0. -1.
        -14    1    6    6    0    0  0.65083963960E+02  0.32690664574E+01 -0.77290244964E+02  0.10109595010E+03  0.00000000000E+00 0.  1.
</event>
<event>
12    1  0.2685360E-002  0.1757832E+03  0.7818608E-02  0.1171948E+00
         -3   -1    0    0    0  501 -0.00000000000E+00  0.00000000000E+00  0.10779886663E+03  0.10779886663E+03  0.00000000000E+00 0. -1.
          3   -1    0    0  502    0  0.00000000000E+00 -0.00000000000E+00 -0.34562532577E+03  0.34562532577E+03  0.00000000000E+00 0.  1.
          6    2    1    2  502    0 -0.25541720825E+01  0.26646831032E+02 -0.21380238084E+03  0.27824878366E+03  0.17605212341E+03 0.  0.
         24    2    3    3    0    0  0.60037774537E+02 -0.21865711438E+02 -0.12994722890E+03  0.16281484123E+03  0.74429473453E+02 0.  0.
         -6    2    1    2    0  501  0.25541720825E+01 -0.26646831032E+02 -0.24024078295E+02  0.17517540874E+03  0.17144296454E+03 0.  0.
        -24    2    5    5    0    0 -0.46318869891E+02  0.19269397757E+02 -0.45303506720E+02  0.10466457005E+03  0.79909430640E+02 0.  0.
          5    1    3    3  502    0 -0.62591946619E+02  0.48512542470E+02 -0.83855151945E+02  0.11543394244E+03  0.47000000000E+01 0. -1.
        -11    1    4    4    0    0  0.29871960049E+02 -0.20191259061E+01 -0.12229139313E+03  0.12590312029E+03  0.00000000000E+00 0.  1.
         12    1    4    4    0    0  0.30165814488E+02 -0.19846585532E+02 -0.76558357673E+01  0.36911720934E+02  0.00000000000E+00 0. -1.
         -5    1    5    5    0  501  0.48873041974E+02 -0.45916228789E+02  0.21279428425E+02  0.70510838685E+02  0.47000000000E+01 0.  1.
         13    1    6    6    0    0 -0.23601728446E+00  0.18184882205E+02  0.18506356710E+02  0.25946693116E+02  0.00000000000E+00 0. -1.
        -14    1    6    6    0    0 -0.46082852607E+02  0.10845155515E+01 -0.63809863430E+02  0.78717876937E+02  0.00000000000E+00 0.  1.
</event>
<event>
12    1  0.2685360E-002  0.1746774E+03  0.7818608E-02  0.1173056E+00
          2   -1    0    0  502    0  0.00000000000E+00  0.00000000000E+00  0.14202649395E+04  0.14202649395E+04  0.00000000000E+00 0.  1.
         -2   -1    0    0    0  501 -0.00000000000E+00 -0.00000000000E+00 -0.29671411685E+02  0.29671411685E+02  0.00000000000E+00 0. -1.
          6    2    1    2  502    0 -0.12798352928E+02 -0.19591085498E+02  0.31683827956E+03  0.36219674865E+03  0.17393211569E+03 0.  0.
         24    2    3    3    0    0 -0.64756732794E+02 -0.75558667138E+01  0.27812707699E+03  0.29612733868E+03  0.78014128170E+02 0.  0.
         -6    2    1    2    0  501  0.12798352928E+02  0.19591085498E+02  0.10737552483E+04  0.10877396026E+04  0.17227739638E+03 0.  0.
        -24    2    5    5    0    0  0.61127846953E+02 -0.29595661013E+02  0.66515525709E+03  0.67333506732E+03  0.79599497672E+02 0.  0.
          5    1    3    3  502    0  0.51958379866E+02 -0.12035218784E+02  0.38711202571E+02  0.66069409972E+02  0.47000000000E+01 0. -1.
        -13    1    4    4    0    0 -0.89237302425E+01  0.26962080608E+02  0.14430425858E+03  0.14707245084E+03  0.00000000000E+00 0.  1.
         14    1    4    4    0    0 -0.55833002552E+02 -0.34517947322E+02  0.13382281842E+03  0.14905488784E+03  0.00000000000E+00 0. -1.
         -5    1    5    5    0  501 -0.48329494025E+02  0.49186746511E+02  0.40859999118E+03  0.41440453523E+03  0.47000000000E+01 0.  1.
         11    1    6    6    0    0  0.79690776922E+02 -0.15273168241E+02  0.52441023685E+03  0.53065053105E+03  0.00000000000E+00 0. -1.
        -12    1    6    6    0    0 -0.18562929969E+02 -0.14322492773E+02  0.14074502024E+03  0.14268453627E+03  0.00000000000E+00 0.  1.
</event>
<event>
12    1  0.2685360E-002  0.1969171E+03  0.7818608E-02  0.1152366E+00
         -2   -1    0    0    0  501 -0.00000000000E+00  0.00000000000E+00  0.20972422007E+03  0.20972422007E+03  0.00000000000E+00 0.  1.
          2   -1    0    0  502    0  0.00000000000E+00 -0.00000000000E+00 -0.23748684179E+03  0.23748684179E+03  0.00000000000E+00 0. -1.
          6    2    1    2  502    0 -0.84142917329E+02 -0.38861820052E+02  0.91251492935E+02  0.21840495387E+03  0.17545260704E+03 0.  0.
         24    2    3    3    0    0 -0.85151040565E+02 -0.73141795704E+02  0.11278594057E+03  0.17763786570E+03  0.78956449707E+02 0.  0.
         -6    2    1    2    0  501  0.84142917329E+02  0.38861820052E+02 -0.11901411466E+03  0.22880610799E+03  0.17203954188E+03 0.  0.
        -24    2    5    5    0    0  0.22313855953E+02 -0.16317851002E+02 -0.11862274464E+03  0.14580085455E+03  0.80139585804E+02 0.  0.
          5    1    3    3  502    0  0.10081232357E+01  0.34279975652E+02 -0.21534447637E+02  0.40767088174E+02  0.47000000000E+01 0. -1.
        -13    1    4    4    0    0 -0.55528474953E+02 -0.87193105189E+02  0.94704473567E+02  0.14019624259E+03  0.00000000000E+00 0.  1.
         14    1    4    4    0    0 -0.29622565612E+02  0.14051309485E+02  0.18081467005E+02  0.37441623105E+02  0.00000000000E+00 0. -1.
         -5    1    5    5    0  501  0.61829061376E+02  0.55179671055E+02 -0.39137001906E+00  0.83005253441E+02  0.47000000000E+01 0.  1.
         13    1    6    6    0    0  0.48733196911E+02 -0.13691979041E+01 -0.96901775738E+02  0.10847466674E+03  0.00000000000E+00 0. -1.
        -14    1    6    6    0    0 -0.26419340958E+02 -0.14948653098E+02 -0.21720968904E+02  0.37326187808E+02  0.00000000000E+00 0.  1.
</event>
<event>
12    1  0.2685360E-002  0.1838866E+03  0.7818608E-02  0.1164094E+00
          1   -1    0    0  502    0  0.00000000000E+00  0.00000000000E+00  0.19215544579E+04  0.19215544579E+04  0.00000000000E+00 0.  1.
         -1   -1    0    0    0  501 -0.00000000000E+00 -0.00000000000E+00 -0.18259523432E+02  0.18259523432E+02  0.00000000000E+00 0. -1.
          6    2    1    2  502    0  0.16222938096E+02  0.61608993829E+02  0.11337939166E+04  0.11485279735E+04  0.17195641498E+03 0.  0.
         24    2    3    3    0    0  0.19747950663E+02  0.48105329029E+02  0.11283625149E+04  0.11328319612E+04  0.86035940408E+02 0.  0.
         -6    2    1    2    0  501 -0.16222938096E+02 -0.61608993829E+02  0.76950101784E+03  0.79128600785E+03  0.17304010494E+03 0.  0.
        -24    2    5    5    0    0 -0.81938942103E+02 -0.31013969033E+02  0.44528239728E+03  0.45902940122E+03  0.68961738350E+02 0.  0.
          5    1    3    3  502    0 -0.35250125664E+01  0.13503664800E+02  0.54314017102E+01  0.15696012269E+02  0.47000000000E+01 0. -1.
        -11    1    4    4    0    0  0.51767593264E+02  0.29097404783E+02  0.83621121044E+03  0.83831720199E+03  0.00000000000E+00 0.  1.
         12    1    4    4    0    0 -0.32019642601E+02  0.19007924246E+02  0.29215130447E+03  0.29451475923E+03  0.00000000000E+00 0. -1.
         -5    1    5    5    0  501  0.65716004006E+02 -0.30595024796E+02  0.32421862056E+03  0.33225660662E+03  0.47000000000E+01 0.  1.
         11    1    6    6    0    0 -0.68214186834E+02 -0.41998977523E+02  0.24042605869E+03  0.25342016315E+03  0.00000000000E+00 0. -1.
        -12    1    6    6    0    0 -0.13724755268E+02  0.10985008490E+02  0.20485633859E+03  0.20560923807E+03  0.00000000000E+00 0.  1.
</event>
<event>
12    1  0.2685360E-002  0.1962435E+03  0.7818608E-02  0.1152948E+00
         -2   -1    0    0    0  501 -0.00000000000E+00  0.00000000000E+00  0.42022767980E+02  0.42022767980E+02  0.00000000000E+00 0. -1.
          2   -1    0    0  502    0  0.00000000000E+00 -0.00000000000E+00 -0.92674478443E+03  0.92674478443E+03  0.00000000000E+00 0.  1.
          6    2    1    2  502    0  0.61145504651E+02 -0.40173520357E+02 -0.41417886841E+03  0.46202297426E+03  0.19122868308E+03 0.  0.
         24    2    3    3    0    0  0.21191283000E+02 -0.81339812485E+02 -0.37654295842E+03  0.39325121294E+03  0.76135940059E+02 0.  0.
         -6    2    1    2    0  501 -0.61145504651E+02  0.40173520357E+02 -0.47054314805E+03  0.50674457815E+03  0.17328164599E+03 0.  0.
        -24    2    5    5    0    0 -0.15802607248E+02  0.13110720430E+02 -0.89033838356E+02  0.12156953111E+03  0.80190480329E+02 0.  0.
          5    1    3    3  502    0  0.39954221651E+02  0.41166292128E+02 -0.37635909986E+02  0.68771761325E+02  0.47000000000E+01 0. -1.
        -11    1    4    4    0    0 -0.28588339818E+01 -0.87855932885E+02 -0.27562034289E+03  0.28929813565E+03  0.00000000000E+00 0.  1.
         12    1    4    4    0    0  0.24050116982E+02  0.65161204000E+01 -0.10092261553E+03  0.10395307728E+03  0.00000000000E+00 0. -1.
         -5    1    5    5    0  501 -0.45342897403E+02  0.27062799927E+02 -0.38150930969E+03  0.38517504705E+03  0.47000000000E+01 0.  1.
         11    1    6    6    0    0 -0.19118470750E+02 -0.18341967325E+02  0.61922916981E+00  0.26501455317E+02  0.00000000000E+00 0. -1.
        -12    1    6    6    0    0  0.33158635014E+01  0.31452687755E+02 -0.89653067525E+02  0.95068075791E+02  0.00000000000E+00 0.  1.
</event>
<event>
12    1  0.2685360E-002  0.5939119E+03  0.7818608E-02  0.9918118E-01
          2   -1    0    0  502    0  0.00000000000E+00  0.00000000000E+00  0.21801367712E+04  0.21801367712E+04  0.00000000000E+00 0. -1.
         -2   -1    0    0    0  501 -0.00000000000E+00 -0.00000000000E+00 -0.25096040121E+03  0.25096040121E+03  0.00000000000E+00 0.  1.
          6    2    1    2  502    0  0.28571684609E+03  0.49113685209E+03  0.24042409549E+03  0.64107732684E+03  0.17414611586E+03 0.  0.
         24    2    3    3    0    0  0.25183502142E+03  0.47596792876E+03  0.18633725590E+03  0.57530840944E+03  0.79321156157E+02 0.  0.
         -6    2    1    2    0  501 -0.28571684609E+03 -0.49113685209E+03  0.16887522745E+04  0.17900198456E+04  0.17157295626E+03 0.  0.
        -24    2    5    5    0    0 -0.14335402887E+03 -0.36399804224E+03  0.10525997946E+04  0.11258334889E+04  0.80559076589E+02 0.  0.
          5    1    3    3  502    0  0.33881824675E+02  0.15168923329E+02  0.54086839594E+02  0.65768917397E+02  0.47000000000E+01 0. -1.
        -13    1    4    4    0    0  0.25166735834E+02  0.10659868151E+03  0.21341852333E+02  0.11158905929E+03  0.00000000000E+00 0.  1.
         14    1    4    4    0    0  0.22666828559E+03  0.36936924725E+03  0.16499540356E+03  0.46371935014E+03  0.00000000000E+00 0. -1.
         -5    1    5    5    0  501 -0.14236281723E+03 -0.12713880985E+03  0.63615247993E+03  0.66418635669E+03  0.47000000000E+01 0.  1.
         13    1    6    6    0    0 -0.62725904326E+02 -0.14448970258E+03  0.53814033179E+03  0.56071992111E+03  0.00000000000E+00 0. -1.
        -14    1    6    6    0    0 -0.80628124541E+02 -0.21950833966E+03  0.51445946282E+03  0.56511356782E+03  0.00000000000E+00 0.  1.
</event>
<event>
12    1  0.2685360E-002  0.1755213E+03  0.7818608E-02  0.1172209E+00
          2   -1    0    0  502    0  0.00000000000E+00  0.00000000000E+00  0.12162052486E+04  0.12162052486E+04  0.00000000000E+00 0.  1.
         -2   -1    0    0    0  501 -0.00000000000E+00 -0.00000000000E+00 -0.34188143421E+02  0.34188143421E+02  0.00000000000E+00 0. -1.
          6    2    1    2  502    0 -0.80922075289E+01 -0.22300689241E+02  0.27765515663E+03  0.32951836522E+03  0.17586120223E+03 0.  0.
         24    2    3    3    0    0 -0.29807403331E+02  0.28199232181E+01  0.28308770928E+03  0.29554488251E+03  0.79446165233E+02 0.  0.
         -6    2    1    2    0  501  0.80922075289E+01  0.22300689241E+02  0.90436194858E+03  0.92087502683E+03  0.17198103512E+03 0.  0.
        -24    2    5    5    0    0  0.63850547648E+02  0.34009465587E+02  0.75077840283E+03  0.75699676878E+03  0.64361180895E+02 0.  0.
          5    1    3    3  502    0  0.21715195803E+02 -0.25120612459E+02 -0.54325526545E+01  0.33973482709E+02  0.47000000000E+01 0. -1.
        -13    1    4    4    0    0 -0.28181797265E+02 -0.32995788132E+02  0.10045646543E+03  0.10942777152E+03  0.00000000000E+00 0.  1.
         14    1    4    4    0    0 -0.16256060666E+01  0.35815711351E+02  0.18263124385E+03  0.18611711099E+03  0.00000000000E+00 0. -1.
         -5    1    5    5    0  501 -0.55758340119E+02 -0.11708776346E+02  0.15358354575E+03  0.16387825805E+03  0.47000000000E+01 0.  1.
         13    1    6    6    0    0  0.35449513746E+02 -0.18621263599E+01  0.13730654306E+03  0.14182109260E+03  0.00000000000E+00 0. -1.
        -14    1    6    6    0    0  0.28401033902E+02  0.35871591947E+02  0.61347185977E+03  0.61517567618E+03  0.00000000000E+00 0.  1.
</event>
<event>
12    1  0.2685360E-002  0.2399972E+03  0.7818608E-02  0.1119795E+00
         -2   -1    0    0    0  501 -0.00000000000E+00  0.00000000000E+00  0.15183915591E+02  0.15183915591E+02  0.00000000000E+00 0.  1.
          2   -1    0    0  502    0  0.00000000000E+00 -0.00000000000E+00 -0.38363497642E+04  0.38363497642E+04  0.00000000000E+00 0. -1.
          6    2    1    2  502    0 -0.14125470027E+03 -0.90831308604E+02 -0.17082174488E+04  0.17250190063E+04  0.17169887294E+03 0.  0.
         24    2    3    3    0    0 -0.10286174346E+03 -0.90409667693E+01 -0.63705599504E+03  0.65004336517E+03  0.77805902314E+02 0.  0.
         -6    2    1    2    0  501  0.14125470027E+03  0.90831308604E+02 -0.21129483998E+04  0.21265146735E+04  0.17120309302E+03 0.  0.
        -24    2    5    5    0    0  0.50224815863E+02 -0.56487412872E+01 -0.12527982427E+04  0.12561841485E+04  0.77076180253E+02 0.  0.
          5    1    3    3  502    0 -0.38392956814E+02 -0.81790341834E+02 -0.10711614537E+04  0.10749756412E+04  0.47000000000E+01 0. -1.
        -13    1    4    4    0    0  0.27225651791E-01 -0.19857851616E+02 -0.47579247103E+02  0.51556956533E+02  0.00000000000E+00 0.  1.
         14    1    4    4    0    0 -0.10288896911E+03  0.10816884847E+02 -0.58947674793E+03  0.59848640863E+03  0.00000000000E+00 0. -1.
         -5    1    5    5    0  501  0.91029884408E+02  0.96480049891E+02 -0.86015015714E+03  0.87033052498E+03  0.47000000000E+01 0.  1.
         13    1    6    6    0    0  0.28005288557E+02 -0.36276490884E+02 -0.41320477721E+03  0.41573846092E+03  0.00000000000E+00 0. -1.
        -14    1    6    6    0    0  0.22219527306E+02  0.30627749597E+02 -0.83959346549E+03  0.84044568755E+03  0.00000000000E+00 0.  1.
</event>
<event>
12    1  0.2685360E-002  0.2366400E+03  0.7818608E-02  0.1122052E+00
          1   -1    0    0  502    0  0.00000000000E+00  0.00000000000E+00  0.56728759910E+02  0.56728759910E+02  0.00000000000E+00 0. -1.
         -1   -1    0    0    0  501 -0.00000000000E+00 -0.00000000000E+00 -0.10457809031E+04  0.10457809031E+04  0.00000000000E+00 0.  1.
          6    2    1    2  502    0 -0.10819165417E+03 -0.12274098996E+03 -0.62686635194E+03  0.67036935095E+03  0.17222908831E+03 0.  0.
         24    2    3    3    0    0 -0.19493267320E+01 -0.84126977540E+01 -0.18884090450E+03  0.20534593957E+03  0.80196597962E+02 0.  0.
         -6    2    1    2    0  501  0.10819165417E+03  0.12274098996E+03 -0.36218579128E+03  0.43214031208E+03  0.16969359821E+03 0.  0.
        -24    2    5    5    0    0  0.10387139342E+03  0.15091774510E+03 -0.34452364512E+03  0.39827830402E+03  0.79772384008E+02 0.  0.
          5    1    3    3  502    0 -0.10624232744E+03 -0.11432829221E+03 -0.43802544744E+03  0.46502341139E+03  0.47000000000E+01 0. -1.
        -11    1    4    4    0    0 -0.17923990252E+01 -0.42341464805E+02 -0.13686394703E+03  0.14327509321E+03  0.00000000000E+00 0.  1.
         12    1    4    4    0    0 -0.15692770673E+00  0.33928767051E+02 -0.51976957468E+02  0.62070846357E+02  0.00000000000E+00 0. -1.
         -5    1    5    5    0  501  0.43202607475E+01 -0.28176755137E+02 -0.17662146155E+02  0.33862008059E+02  0.47000000000E+01 0.  1.
         11    1    6    6    0    0  0.24471598364E+02 -0.12341577518E+01 -0.21978463518E+02  0.32915575804E+02  0.00000000000E+00 0. -1.
        -12    1    6    6    0    0  0.79399795059E+02  0.15215190285E+03 -0.32254518161E+03  0.36536272822E+03  0.00000000000E+00 0.  1.
</event>
<event>
12    1  0.2685360E-002  0.2349731E+03  0.7818608E-02  0.1123188E+00
          2   -1    0    0  502    0  0.00000000000E+00  0.00000000000E+00  0.21490921938E+04  0.21490921938E+04  0.00000000000E+00 0. -1.
         -2   -1    0    0    0  501 -0.00000000000E+00 -0.00000000000E+00 -0.26665265304E+02  0.26665265304E+02  0.00000000000E+00 0.  1.
          6    2    1    2  502    0 -0.10299437637E+03 -0.11982601339E+03  0.12653672917E+04  0.12868423119E+04  0.17275021773E+03 0.  0.
         24    2    3    3    0    0 -0.79334298455E+02 -0.66114069222E+02  0.44338867502E+03  0.46275754167E+03  0.82982071416E+02 0.  0.
         -6    2    1    2    0  501  0.10299437637E+03  0.11982601339E+03  0.85705963674E+03  0.88891514715E+03  0.17507941874E+03 0.  0.
        -24    2    5    5    0    0  0.11486479862E+03  0.13540031381E+03  0.60017699720E+03  0.63124433729E+03  0.82035470698E+02 0.  0.
          5    1    3    3  502    0 -0.23660077911E+02 -0.53711944163E+02  0.82197861672E+03  0.82408477026E+03  0.47000000000E+01 0. -1.
        -11    1    4    4    0    0 -0.58449211932E+02 -0.52583552432E+02  0.42395468694E+03  0.43118315939E+03  0.00000000000E+00 0.  1.
         12    1    4    4    0    0 -0.20885086523E+02 -0.13530516791E+02  0.19433988076E+02  0.31574382278E+02  0.00000000000E+00 0. -1.
         -5    1    5    5    0  501 -0.11870422255E+02 -0.15574300426E+02  0.25688263954E+03  0.25767080986E+03  0.47000000000E+01 0.  1.
         13    1    6    6    0    0  0.61202540903E+02  0.10880282696E+03  0.49204365889E+03  0.50763251316E+03  0.00000000000E+00 0. -1.
        -14    1    6    6    0    0  0.53662257718E+02  0.26597486846E+02  0.10813333831E+03  0.12361182413E+03  0.00000000000E+00 0.  1.
</event>
<event>
12    1  0.2685360E-002  0.2038975E+03  0.7818608E-02  0.1146492E+00
          2   -1    0    0  502    0  0.00000000000E+00  0.00000000000E+00  0.13989698428E+03  0.13989698428E+03  0.00000000000E+00 0.  1.
         -2   -1    0    0    0  501 -0.00000000000E+00 -0.00000000000E+00 -0.30582073394E+03  0.30582073394E+03  0.00000000000E+00 0. -1.
          6    2    1    2  502    0  0.10695461217E+02 -0.10880218578E+03 -0.45475025464E+02  0.20885635176E+03  0.17204850830E+03 0.  0.
         24    2    3    3    0    0  0.10398989958E+02  0.83804079538E+01 -0.42989212061E+02  0.91552824798E+02  0.79721246510E+02 0.  0.
         -6    2    1    2    0  501 -0.10695461217E+02  0.10880218578E+03 -0.12044872420E+03  0.23686136647E+03  0.17217172603E+03 0.  0.
        -24    2    5    5    0    0  0.48809164962E+02  0.10545778481E+03 -0.66993809345E+02  0.15666471145E+03  0.80944316417E+02 0.  0.
          5    1    3    3  502    0  0.29647125844E+00 -0.11718259373E+03 -0.24858134027E+01  0.11730352696E+03  0.47000000000E+01 0. -1.
        -11    1    4    4    0    0  0.36092111060E+02 -0.20097939987E+02 -0.14527140339E+02  0.43790472468E+02  0.00000000000E+00 0.  1.
         12    1    4    4    0    0 -0.25693121102E+02  0.28478347941E+02 -0.28462071722E+02  0.47762352330E+02  0.00000000000E+00 0. -1.
         -5    1    5    5    0  501 -0.59504626179E+02  0.33444009644E+01 -0.53454914850E+02  0.80196655019E+02  0.47000000000E+01 0.  1.
         11    1    6    6    0    0  0.39941821032E+02  0.24639561696E+02 -0.58382924870E+02  0.74906761940E+02  0.00000000000E+00 0. -1.
        -12    1    6    6    0    0  0.88673439299E+01  0.80818223119E+02 -0.86108844759E+01  0.81757949509E+02  0.00000000000E+00 0.  1.
</event>
<event>
12    1  0.2685360E-002  0.2206515E+03  0.7818608E-02  0.1133398E+00
          2   -1    0    0  502    0  0.00000000000E+00  0.00000000000E+00  0.36846289695E+03  0.36846289695E+03  0.00000000000E+00 0. -1.
         -2   -1    0    0    0  501 -0.00000000000E+00 -0.00000000000E+00 -0.18338724451E+03  0.18338724451E+03  0.00000000000E+00 0.  1.
          6    2    1    2  502    0  0.83394826451E+02  0.10109967607E+03 -0.54403896232E+02  0.22361620742E+03  0.17282529536E+03 0.  0.
         24    2    3    3    0    0  0.11098524483E+02 -0.11963521206E+02 -0.11985318221E+02  0.82791963713E+02  0.80278006435E+02 0.  0.
         -6    2    1    2    0  501 -0.83394826451E+02 -0.10109967607E+03  0.23947954867E+03  0.32823393403E+03  0.18223945686E+03 0.  0.
        -24    2    5    5    0    0  0.77121224287E+01 -0.10291614807E+03  0.16512949579E+03  0.21053178423E+03  0.80029191071E+02 0.  0.
          5    1    3    3  502    0  0.72296301968E+02  0.11306319728E+03 -0.42418578011E+02  0.14082424371E+03  0.47000000000E+01 0. -1.
        -11    1    4    4    0    0 -0.23483204720E+02  0.22902490343E+02 -0.41580720931E+01  0.33064702196E+02  0.00000000000E+00 0.  1.
         12    1    4    4    0    0  0.34581729203E+02 -0.34866011549E+02 -0.78272461279E+01  0.49727261516E+02  0.00000000000E+00 0. -1.
         -5    1    5    5    0  501 -0.91106948880E+02  0.18164719995E+01  0.74350052881E+02  0.11770214980E+03  0.47000000000E+01 0.  1.
         11    1    6    6    0    0 -0.15834440315E+02 -0.76504218874E+02  0.15524220028E+03  0.17379230637E+03  0.00000000000E+00 0. -1.
        -12    1    6    6    0    0  0.23546562744E+02 -0.26411929195E+02  0.98872955167E+01  0.36739477861E+02  0.00000000000E+00 0.  1.
</event>
<event>
12    1  0.2685360E-002  0.1716794E+03  0.7818608E-02  0.1176108E+00
          2   -1    0    0  502    0  0.00000000000E+00  0.00000000000E+00  0.27535923372E+03  0.27535923372E+03  0.00000000000E+00 0. -1.
         -2   -1    0    0    0  501 -0.00000000000E+00 -0.00000000000E+00 -0.16253683800E+03  0.16253683800E+03  0.00000000000E+00 0.  1.
          6    2    1    2  502    0 -0.14814789938E+02  0.10634623470E+02  0.18473161226E+03  0.25345505322E+03  0.17257207833E+03 0.  0.
         24    2    3    3    0    0  0.49633255384E+02 -0.19171439633E+02  0.70734347753E+02  0.11906971824E+03  0.79644495801E+02 0.  0.
         -6    2    1    2    0  501  0.14814789938E+02 -0.10634623470E+02 -0.71909216546E+02  0.18444101850E+03  0.16886379323E+03 0.  0.
        -24    2    5    5    0    0  0.22752651809E+02  0.67475855945E+01 -0.11210653991E+03  0.13968539708E+03  0.79880665932E+02 0.  0.
          5    1    3    3  502    0 -0.64448045322E+02  0.29806063103E+02  0.11399726451E+03  0.13438533498E+03  0.47000000000E+01 0. -1.
        -13    1    4    4    0    0  0.29466961717E+02  0.20323706144E+02  0.25161206432E+00  0.35796901722E+02  0.00000000000E+00 0.  1.
         14    1    4    4    0    0  0.20166293667E+02 -0.39495145777E+02  0.70482735689E+02  0.83272816516E+02  0.00000000000E+00 0. -1.
         -5    1    5    5    0  501 -0.79378618711E+01 -0.17382209065E+02  0.40197323368E+02  0.44755621423E+02  0.47000000000E+01 0.  1.
         11    1    6    6    0    0 -0.48101071043E+00  0.48998836836E+01  0.12229703254E+02  0.13183545544E+02  0.00000000000E+00 0. -1.
        -12    1    6    6    0    0  0.23233662520E+02  0.18477019109E+01 -0.12433624317E+03  0.12650185153E+03  0.00000000000E+00 0.  1.
</event>
<event>
12    1  0.2685360E-002  0.2738625E+03  0.7818608E-02  0.1099089E+00
          3   -1    0    0  502    0  0.00000000000E+00  0.00000000000E+00  0.17906273931E+03  0.17906273931E+03  0.00000000000E+00 0.  1.
         -3   -1    0    0    0  501 -0.00000000000E+00 -0.00000000000E+00 -0.47422414093E+03  0.47422414093E+03  0.00000000000E+00 0. -1.
          6    2    1    2  502    0  0.21227711860E+03  0.18782609891E+01 -0.25869633183E+03  0.37597559293E+03  0.17137313510E+03 0.  0.
         24    2    3    3    0    0  0.14616430853E+03  0.50138924997E+02 -0.23193973207E+03  0.28973174691E+03  0.79186671651E+02 0.  0.
         -6    2    1    2    0  501 -0.21227711860E+03 -0.18782609891E+01 -0.36465069792E+02  0.27731128732E+03  0.17466180410E+03 0.  0.
        -24    2    5    5    0    0 -0.22768812445E+03  0.20759011290E+02 -0.47944435223E+02  0.24724783727E+03  0.80993861499E+02 0.  0.
          5    1    3    3  502    0  0.66112810065E+02 -0.48260664008E+02 -0.26756599753E+02  0.86243846016E+02  0.47000000000E+01 0. -1.
        -13    1    4    4    0    0  0.95796983499E+02  0.29344481349E+02 -0.79670449381E+02  0.12800601993E+03  0.00000000000E+00 0.  1.
         14    1    4    4    0    0  0.50367325034E+02  0.20794443648E+02 -0.15226928269E+03  0.16172572699E+03  0.00000000000E+00 0. -1.
         -5    1    5    5    0  501  0.15411005855E+02 -0.22637272279E+02  0.11479365432E+02  0.30063450042E+02  0.47000000000E+01 0.  1.
         13    1    6    6    0    0 -0.17354591295E+03  0.46330332904E+02 -0.52664291189E+02  0.18718496525E+03  0.00000000000E+00 0. -1.
        -14    1    6    6    0    0 -0.54142211506E+02 -0.25571321614E+02  0.47198559654E+01  0.60062872027E+02  0.00000000000E+00 0.  1.
</event>
<event>
12    1  0.2685360E-002  0.2181426E+03  0.7818608E-02  0.1135275E+00
         -2   -1    0    0    0  501 -0.00000000000E+00  0.00000000000E+00  0.19285954681E+03  0.19285954681E+03  0.00000000000E+00 0.  1.
          2   -1    0    0  502    0  0.00000000000E+00 -0.00000000000E+00 -0.39856250303E+03  0.39856250303E+03  0.00000000000E+00 0. -1.
          6    2    1    2  502    0  0.99069264201E+02  0.86684578747E+02  0.79427821627E+02  0.23288913603E+03  0.17492751507E+03 0.  0.
         24    2    3    3    0    0  0.60138071622E+02  0.17740192963E+02  0.10937763492E+03  0.14810678289E+03  0.77722905326E+02 0.  0.
         -6    2    1    2    0  501 -0.99069264201E+02 -0.86684578747E+02 -0.28513077784E+03  0.35853291381E+03  0.17296633924E+03 0.  0.
        -24    2    5    5    0    0 -0.45423363027E+02  0.11204474595E+02 -0.19963287049E+03  0.21784840280E+03  0.73592264960E+02 0.  0.
          5    1    3    3  502    0  0.38931192579E+02  0.68944385784E+02 -0.29949813296E+02  0.84782353136E+02  0.47000000000E+01 0. -1.
        -11    1    4    4    0    0  0.76031251866E+02  0.11052723181E+02  0.65494595562E+02  0.10095769410E+03  0.00000000000E+00 0.  1.
         12    1    4    4    0    0 -0.15893180244E+02  0.66874697823E+01  0.43883039362E+02  0.47149088793E+02  0.00000000000E+00 0. -1.
         -5    1    5    5    0  501 -0.53645901174E+02 -0.97889053341E+02 -0.85497907351E+02  0.14068451101E+03  0.47000000000E+01 0.  1.
         11    1    6    6    0    0 -0.35047331282E+02  0.22408303518E+02 -0.40746602947E+02  0.58230002132E+02  0.00000000000E+00 0. -1.
        -12    1    6    6    0    0 -0.10376031745E+02 -0.11203828923E+02 -0.15888626755E+03  0.15961840067E+03  0.00000000000E+00 0.  1.
</event>
<event>
12    1  0.2685360E-002  0.1847083E+03  0.7818608E-02  0.1163323E+00
         -1   -1    0    0    0  501 -0.00000000000E+00  0.00000000000E+00  0.19653844591E+02  0.19653844591E+02  0.00000000000E+00 0.  1.
          1   -1    0    0  502    0  0.00000000000E+00 -0.00000000000E+00 -0.21487262228E+04  0.21487262228E+04  0.00000000000E+00 0. -1.
          6    2    1    2  502    0 -0.24622277645E+02  0.63173717807E+02 -0.58915301940E+03  0.61741860398E+03  0.17177682349E+03 0.  0.
         24    2    3    3    0    0 -0.63895393831E+02 -0.94046542752E+00 -0.27047265730E+03  0.28995521772E+03  0.82674446539E+02 0.  0.
         -6    2    1    2    0  501  0.24622277645E+02 -0.63173717807E+02 -0.15399193588E+04  0.15509614634E+04  0.17185067411E+03 0.  0.
        -24    2    5    5    0    0 -0.52563646422E+02 -0.25031612038E+02 -0.84326154041E+03  0.84898803583E+03  0.79379726096E+02 0.  0.
          5    1    3    3  502    0  0.39273116186E+02  0.64114183234E+02 -0.31868036210E+03  0.32746338625E+03  0.47000000000E+01 0. -1.
        -13    1    4    4    0    0 -0.65467036450E+01  0.10838268154E+02  0.55704723525E+00  0.12674292359E+02  0.00000000000E+00 0.  1.
         14    1    4    4    0    0 -0.57348690186E+02 -0.11778733581E+02 -0.27102970453E+03  0.27728092536E+03  0.00000000000E+00 0. -1.
         -5    1    5    5    0  501  0.77185924067E+02 -0.38142105769E+02 -0.69665781842E+03  0.70197342761E+03  0.47000000000E+01 0.  1.
         13    1    6    6    0    0 -0.43308965805E+02 -0.12978638221E+02 -0.18130874112E+03  0.18686083371E+03  0.00000000000E+00 0. -1.
        -14    1    6    6    0    0 -0.92546806170E+01 -0.12052973817E+02 -0.66195279930E+03  0.66212720212E+03  0.00000000000E+00 0.  1.
</event>
<event>
12    1  0.2685360E-002  0.1781059E+03  0.7818608E-02  0.1169649E+00
          1   -1    0    0  502    0  0.00000000000E+00  0.00000000000E+00  0.18092471730E+03  0.18092471730E+03  0.00000000000E+00 0. -1.
         -1   -1    0    0    0  501 -0.00000000000E+00 -0.00000000000E+00 -0.39645064969E+03  0.39645064969E+03  0.00000000000E+00 0.  1.
          6    2    1    2  502    0  0.35379288553E+02 -0.32708983550E+02 -0.32374337015E+03  0.37020936655E+03  0.17298448976E+03 0.  0.
         24    2    3    3    0    0 -0.27853333478E+02  0.32686550126E+02 -0.13135759035E+03  0.15734950987E+03  0.75231861393E+02 0.  0.
         -6    2    1    2    0  501 -0.35379288553E+02  0.32708983550E+02  0.10821743776E+03  0.20716600044E+03  0.16995636570E+03 0.  0.
        -24    2    5    5    0    0 -0.56537394652E+02  0.53599332053E+02  0.12939674586E+03  0.17035940856E+03  0.78800030800E+02 0.  0.
          5    1    3    3  502    0  0.63232622031E+02 -0.65395533676E+02 -0.19238577981E+03  0.21285985668E+03  0.47000000000E+01 0. -1.
        -13    1    4    4    0    0  0.24483918638E+02  0.81095289149E+01 -0.61352561522E+02  0.66553463745E+02  0.00000000000E+00 0.  1.
         14    1    4    4    0    0 -0.52337252116E+02  0.24577021211E+02 -0.70005028823E+02  0.90796046121E+02  0.00000000000E+00 0. -1.
         -5    1    5    5    0  501  0.21158106098E+02 -0.20890348503E+02 -0.21179308106E+02  0.36806591884E+02  0.47000000000E+01 0.  1.
         13    1    6    6    0    0 -0.17398211072E+02  0.17408443574E+02  0.11141502054E+03  0.11410108877E+03  0.00000000000E+00 0. -1.
        -14    1    6    6    0    0 -0.39139183579E+02  0.36190888479E+02  0.17981725324E+02  0.56258319792E+02  0.00000000000E+00 0.  1.
</event>
<event>
12    1  0.2685360E-002  0.2048572E+03  0.7818608E-02  0.1145705E+00
          4   -1    0    0  502    0  0.00000000000E+00  0.00000000000E+00  0.49591740990E+02  0.49591740990E+02  0.00000000000E+00 0. -1.
         -4   -1    0    0    0  501 -0.00000000000E+00 -0.00000000000E+00 -0.87235075582E+03  0.87235075582E+03  0.00000000000E+00 0.  1.
          6    2    1    2  502    0  0.11663138494E+03  0.59811912213E+01 -0.48569526026E+03  0.52610349269E+03  0.16506466787E+03 0.  0.
         24    2    3    3    0    0  0.79679837376E+02 -0.50119740880E+02 -0.39056107324E+03  0.40954734746E+03  0.79562635527E+02 0.  0.
         -6    2    1    2    0  501 -0.11663138494E+03 -0.59811912213E+01 -0.33706375457E+03  0.39583900412E+03  0.17157472989E+03 0.  0.
        -24    2    5    5    0    0 -0.13935661782E+00 -0.77604206302E+01 -0.84452041646E+02  0.11761548638E+03  0.81492403014E+02 0.  0.
          5    1    3    3  502    0  0.36951547564E+02  0.56100932101E+02 -0.95134187014E+02  0.11655614522E+03  0.47000000000E+01 0. -1.
        -11    1    4    4    0    0 -0.90166145442E+01 -0.14944664143E+02 -0.18450380892E+02  0.25398009356E+02  0.00000000000E+00 0.  1.
         12    1    4    4    0    0  0.88696451920E+02 -0.35175076736E+02 -0.37211069235E+03  0.38414933811E+03  0.00000000000E+00 0. -1.
         -5    1    5    5    0  501 -0.11649202832E+03  0.17792294089E+01 -0.25261171293E+03  0.27822351775E+03  0.47000000000E+01 0.  1.
         11    1    6    6    0    0 -0.36594420971E+02  0.13160159940E+02 -0.31739507169E+02  0.50196989662E+02  0.00000000000E+00 0. -1.
        -12    1    6    6    0    0  0.36455064353E+02 -0.20920580570E+02 -0.52712534477E+02  0.67418496716E+02  0.00000000000E+00 0.  1.
</event>
<event>
12    1  0.2685360E-002  0.1845000E+03  0.7818608E-02  0.1163518E+00
         -1   -1    0    0    0  501 -0.00000000000E+00  0.00000000000E+00  0.46668962074E+02  0.46668962074E+02  0.00000000000E+00 0.  1.
          1   -1    0    0  502    0  0.00000000000E+00 -0.00000000000E+00 -0.79878540930E+03  0.79878540930E+03  0.00000000000E+00 0. -1.
          6    2    1    2  502    0 -0.20356863951E+02 -0.63809433532E+02 -0.25002733215E+03  0.31026930750E+03  0.17107697285E+03 0.  0.
         24    2    3    3    0    0 -0.46458686516E+02  0.19946754052E+02 -0.14885678071E+03  0.17627686526E+03  0.79742770908E+02 0.  0.
         -6    2    1    2    0  501  0.20356863951E+02  0.63809433532E+02 -0.50208911509E+03  0.53518506388E+03  0.17275279273E+03 0.  0.
        -24    2    5    5    0    0 -0.48314819151E+02  0.21564116759E+02 -0.35671026623E+03  0.36887942193E+03  0.77656171743E+02 0.  0.
          5    1    3    3  502    0  0.26101822565E+02 -0.83756187584E+02 -0.10117055144E+03  0.13399244224E+03  0.47000000000E+01 0. -1.
        -13    1    4    4    0    0 -0.24273139969E+02 -0.30576031834E+02 -0.67404652240E+02  0.77893941936E+02  0.00000000000E+00 0.  1.
         14    1    4    4    0    0 -0.22185546548E+02  0.50522785886E+02 -0.81452128467E+02  0.98382923321E+02  0.00000000000E+00 0. -1.
         -5    1    5    5    0  501  0.68671683102E+02  0.42245316774E+02 -0.14537884885E+03  0.16630564195E+03  0.47000000000E+01 0.  1.
         11    1    6    6    0    0  0.50777098411E+00  0.38893002859E+02 -0.20243451823E+03  0.20613747275E+03  0.00000000000E+00 0. -1.
        -12    1    6    6    0    0 -0.48822590135E+02 -0.17328886101E+02 -0.15427574800E+03  0.16274194918E+03  0.00000000000E+00 0.  1.
</event>
<event>
12    1  0.2685360E-002  0.2151302E+03  0.7818608E-02  0.1137567E+00
          2   -1    0    0  502    0  0.00000000000E+00  0.00000000000E+00  0.10072339537E+04  0.10072339537E+04  0.00000000000E+00 0. -1.
         -2   -1    0    0    0  501 -0.00000000000E+00 -0.00000000000E+00 -0.51915724003E+02  0.51915724003E+02  0.00000000000E+00 0.  1.
          6    2    1    2  502    0 -0.92499754516E+02 -0.88257288638E+02  0.66063184763E+03  0.69533073555E+03  0.17522796610E+03 0.  0.
         24    2    3    3    0    0 -0.51974420544E+02  0.22491791098E+01  0.16080033370E+03  0.18573544934E+03  0.77035774983E+02 0.  0.
         -6    2    1    2    0  501  0.92499754516E+02  0.88257288638E+02  0.29468638202E+03  0.36381894211E+03  0.17081746196E+03 0.  0.
        -24    2    5    5    0    0  0.10208741053E+03  0.10705420078E+03  0.29775457435E+03  0.34198431691E+03  0.80081490803E+02 0.  0.
          5    1    3    3  502    0 -0.40525333972E+02 -0.90506467748E+02  0.49983151394E+03  0.50959528621E+03  0.47000000000E+01 0. -1.
        -11    1    4    4    0    0 -0.23417689987E+02 -0.36009264859E+02  0.96693642905E+02  0.10580508465E+03  0.00000000000E+00 0.  1.
         12    1    4    4    0    0 -0.28556730557E+02  0.38258443969E+02  0.64106690791E+02  0.79930364688E+02  0.00000000000E+00 0. -1.
         -5    1    5    5    0  501 -0.95876560116E+01 -0.18796912139E+02 -0.30681923327E+01  0.21834625207E+02  0.47000000000E+01 0.  1.
         11    1    6    6    0    0  0.43297172436E+02  0.82546967915E+02  0.23392096645E+03  0.25180878777E+03  0.00000000000E+00 0. -1.
        -12    1    6    6    0    0  0.58790238091E+02  0.24507232862E+02  0.63833607909E+02  0.90175529142E+02  0.00000000000E+00 0.  1.
</event>
<event>
12    1  0.2685360E-002  0.2317292E+03  0.7818608E-02  0.1125429E+00
         -2   -1    0    0    0  501 -0.00000000000E+00  0.00000000000E+00  0.49059173826E+03  0.49059173826E+03  0.00000000000E+00 0.  1.
          2   -1    0    0  502    0  0.00000000000E+00 -0.00000000000E+00 -0.21073633190E+03  0.21073633190E+03  0.00000000000E+00 0. -1.
          6    2    1    2  502    0  0.15617065245E+03 -0.76526192148E+00  0.38326093780E+03  0.44826082869E+03  0.17221778589E+03 0.  0.
         24    2    3    3    0    0  0.15575513786E+02  0.15510678568E+02  0.91429703987E+02  0.12388533904E+03  0.80653634006E+02 0.  0.
         -6    2    1    2    0  501 -0.15617065245E+03  0.76526192148E+00 -0.10340553145E+03  0.25306724147E+03  0.17017774960E+03 0.  0.
        -24    2    5    5    0    0 -0.13464018767E+03 -0.15237838202E+02 -0.13916761076E+03  0.20811530665E+03  0.74727405479E+02 0.  0.
          5    1    3    3  502    0  0.14059513866E+03 -0.16275940489E+02  0.29183123382E+03  0.32437548965E+03  0.47000000000E+01 0. -1.
        -13    1    4    4    0    0  0.20349959997E+02  0.30570436651E+00  0.10248692924E+03  0.10448820504E+03  0.00000000000E+00 0.  1.
         14    1    4    4    0    0 -0.47744462113E+01  0.15204974201E+02 -0.11057225254E+02  0.19397134000E+02  0.00000000000E+00 0. -1.
         -5    1    5    5    0  501 -0.21530464782E+02  0.16003100124E+02  0.35762079311E+02  0.44951934819E+02  0.47000000000E+01 0.  1.
         11    1    6    6    0    0 -0.10457637476E+03  0.10369110214E+02 -0.63559632265E+02  0.12281515972E+03  0.00000000000E+00 0. -1.
        -12    1    6    6    0    0 -0.30063812909E+02 -0.25606948416E+02 -0.75607978493E+02  0.85300146926E+02  0.00000000000E+00 0.  1.
</event>
<event>
12    1  0.2685360E-002  0.2121330E+03  0.7818608E-02  0.1139888E+00
          2   -1    0    0  502    0  0.00000000000E+00  0.00000000000E+00  0.13440922595E+04  0.13440922595E+04  0.00000000000E+00 0. -1.
         -2   -1    0    0    0  501 -0.00000000000E+00 -0.00000000000E+00 -0.34487212839E+02  0.34487212839E+02  0.00000000000E+00 0.  1.
          6    2    1    2  502    0 -0.84878036600E+02  0.91572835429E+02  0.77213586359E+03  0.80070589784E+03  0.17130755296E+03 0.  0.
         24    2    3    3    0    0 -0.13947621972E+02 -0.16092784152E+02  0.29512762325E+03  0.30655818641E+03  0.80150444705E+02 0.  0.
         -6    2    1    2    0  501  0.84878036600E+02 -0.91572835429E+02  0.53746918309E+03  0.57787357453E+03  0.17168249787E+03 0.  0.
        -24    2    5    5    0    0  0.41309658796E+02 -0.34005898043E+02  0.46738480070E+03  0.47714588976E+03  0.79729286775E+02 0.  0.
          5    1    3    3  502    0 -0.70930414629E+02  0.10766561958E+03  0.47700824034E+03  0.49414771143E+03  0.47000000000E+01 0. -1.
        -13    1    4    4    0    0  0.36374587544E+01 -0.22530700544E+02  0.18722452718E+02  0.29519380227E+02  0.00000000000E+00 0.  1.
         14    1    4    4    0    0 -0.17585080726E+02  0.64379163929E+01  0.27640517054E+03  0.27703880618E+03  0.00000000000E+00 0. -1.
         -5    1    5    5    0  501  0.43568377804E+02 -0.57566937386E+02  0.70084382388E+02  0.10072768477E+03  0.47000000000E+01 0.  1.
         11    1    6    6    0    0  0.46928359080E+01 -0.53596823763E+02  0.23505762990E+03  0.24113633405E+03  0.00000000000E+00 0. -1.
        -12    1    6    6    0    0  0.36616822888E+02  0.19590925720E+02  0.23232717081E+03  0.23600955570E+03  0.00000000000E+00 0.  1.
</event>
<event>
12    1  0.2685360E-002  0.2609252E+03  0.7818608E-02  0.1106589E+00
         -1   -1    0    0    0  501 -0.00000000000E+00  0.00000000000E+00  0.66477741495E+02  0.66477741495E+02  0.00000000000E+00 0. -1.
          1   -1    0    0  502    0  0.00000000000E+00 -0.00000000000E+00 -0.11787835094E+04  0.11787835094E+04  0.00000000000E+00 0.  1.
          6    2    1    2  502    0  0.19532060695E+03 -0.20614966620E+02 -0.33010326022E+03  0.42059673921E+03  0.17134275087E+03 0.  0.
         24    2    3    3    0    0  0.15974890731E+03 -0.44102173897E+02 -0.32968256741E+03  0.37771012471E+03  0.80682265215E+02 0.  0.
         -6    2    1    2    0  501 -0.19532060695E+03  0.20614966620E+02 -0.78220250766E+03  0.82466451167E+03  0.17220823866E+03 0.  0.
        -24    2    5    5    0    0 -0.20238290292E+03 -0.15073547189E+02 -0.58467411488E+03  0.62375880743E+03  0.77750742819E+02 0.  0.
          5    1    3    3  502    0  0.35571699639E+02  0.23487207276E+02 -0.42069280788E+00  0.42886614500E+02  0.47000000000E+01 0. -1.
        -11    1    4    4    0    0  0.10060161545E+03 -0.65088188407E+02 -0.19077410421E+03  0.22528185932E+03  0.00000000000E+00 0.  1.
         12    1    4    4    0    0  0.59147291864E+02  0.20986014510E+02 -0.13890846321E+03  0.15242826539E+03  0.00000000000E+00 0. -1.
         -5    1    5    5    0  501  0.70622959713E+01  0.35688513809E+02 -0.19752839278E+03  0.20090570424E+03  0.47000000000E+01 0.  1.
         13    1    6    6    0    0 -0.53430210655E+02 -0.17137935383E+02 -0.81143480712E+02  0.98654755090E+02  0.00000000000E+00 0. -1.
        -14    1    6    6    0    0 -0.14895269227E+03  0.20643881940E+01 -0.50353063417E+03  0.52510405234E+03  0.00000000000E+00 0.  1.
</event>
<event>
12    1  0.2685360E-002  0.1848267E+03  0.7818608E-02  0.1163212E+00
         -1   -1    0    0    0  501 -0.00000000000E+00  0.00000000000E+00  0.10188803689E+02  0.10188803689E+02  0.00000000000E+00 0.  1.
          1   -1    0    0  502    0  0.00000000000E+00 -0.00000000000E+00 -0.38027815292E+04  0.38027815292E+04  0.00000000000E+00 0. -1.
          6    2    1    2  502    0 -0.48360443150E+02 -0.44139415403E+02 -0.25616621652E+04  0.25683983224E+04  0.17398239410E+03 0.  0.
         24    2    3    3    0    0 -0.91261090653E+02 -0.14835648231E+02 -0.13530624503E+04  0.13586733383E+04  0.81649021123E+02 0.  0.
         -6    2    1    2    0  501  0.48360443150E+02  0.44139415403E+02 -0.12309305603E+04  0.12445720105E+04  0.17170446854E+03 0.  0.
        -24    2    5    5    0    0  0.65200603003E+02 -0.17193271622E+02 -0.97988607654E+03  0.98555326152E+03  0.81189784326E+02 0.  0.
          5    1    3    3  502    0  0.42900647503E+02 -0.29303767172E+02 -0.12085997149E+04  0.12097249841E+04  0.47000000000E+01 0. -1.
        -13    1    4    4    0    0 -0.13199309526E+02  0.30352618382E+02 -0.34567817927E+03  0.34725913500E+03  0.00000000000E+00 0.  1.
         14    1    4    4    0    0 -0.78061781127E+02 -0.45188266614E+02 -0.10073842711E+04  0.10114142033E+04  0.00000000000E+00 0. -1.
         -5    1    5    5    0  501 -0.16840159853E+02  0.61332687024E+02 -0.25104448374E+03  0.25901874894E+03  0.47000000000E+01 0.  1.
         13    1    6    6    0    0  0.92607513665E+01  0.29566889015E+02 -0.21877795718E+03  0.22096098522E+03  0.00000000000E+00 0. -1.
        -14    1    6    6    0    0  0.55939851636E+02 -0.46760160637E+02 -0.76110811936E+03  0.76459227630E+03  0.00000000000E+00 0.  1.
</event>
<event>
12    1  0.2685360E-002  0.1979953E+03  0.7818608E-02  0.1151441E+00
         -3   -1    0    0    0  501 -0.00000000000E+00  0.00000000000E+00  0.10249858729E+03  0.10249858729E+03  0.00000000000E+00 0.  1.
          3   -1    0    0  502    0  0.00000000000E+00 -0.00000000000E+00 -0.38402889249E+03  0.38402889249E+03  0.00000000000E+00 0. -1.
          6    2    1    2  502    0 -0.71295584162E+02  0.38100103438E+02 -0.12325957260E+03  0.22618659472E+03  0.17155982976E+03 0.  0.
         24    2    3    3    0    0 -0.11159908221E+03  0.47016783076E+02 -0.11169638997E+03  0.18306263011E+03  0.79817980229E+02 0.  0.
         -6    2    1    2    0  501  0.71295584162E+02 -0.38100103438E+02 -0.15827073260E+03  0.26034088506E+03  0.19024477242E+03 0.  0.
        -24    2    5    5    0    0  0.12097772449E+02  0.31089683911E+02 -0.13062951259E+02  0.88879526883E+02  0.81338828731E+02 0.  0.
          5    1    3    3  502    0  0.40303498051E+02 -0.89166796381E+01 -0.11563182631E+02  0.43123964608E+02  0.47000000000E+01 0. -1.
        -11    1    4    4    0    0 -0.72136490594E+02 -0.12783132733E+02 -0.60339832911E+02  0.94910363993E+02  0.00000000000E+00 0.  1.
         12    1    4    4    0    0 -0.39462591620E+02  0.59799915809E+02 -0.51356557062E+02  0.88152266116E+02  0.00000000000E+00 0. -1.
         -5    1    5    5    0  501  0.59197811713E+02 -0.69189787348E+02 -0.14520778134E+03  0.17146135818E+03  0.47000000000E+01 0.  1.
         11    1    6    6    0    0 -0.15139687391E+01  0.46024200204E+02 -0.35897523867E+02  0.58387938185E+02  0.00000000000E+00 0. -1.
        -12    1    6    6    0    0  0.13611741188E+02 -0.14934516293E+02  0.22834572608E+02  0.30491588697E+02  0.00000000000E+00 0.  1.
</event>
<event>
12    1  0.2685360E-002  0.1756331E+03  0.7818608E-02  0.1172098E+00
         -2   -1    0    0    0  501 -0.00000000000E+00  0.00000000000E+00  0.84079896397E+02  0.84079896397E+02  0.00000000000E+00 0.  1.
          2   -1    0    0  502    0  0.00000000000E+00 -0.00000000000E+00 -0.72722897720E+03  0.72722897720E+03  0.00000000000E+00 0. -1.
          6    2    1    2  502    0 -0.18239254447E+01  0.37220387113E+02 -0.35736018213E+02  0.17892665191E+03  0.17131549797E+03 0.  0.
         24    2    3    3    0    0 -0.62246686997E+02 -0.41819717517E+01 -0.24836405619E+02  0.10472451590E+03  0.80363164802E+02 0.  0.
         -6    2    1    2    0  501  0.18239254447E+01 -0.37220387113E+02 -0.60741306259E+03  0.63238222169E+03  0.17195337095E+03 0.  0.
        -24    2    5    5    0    0  0.31137003170E+02 -0.66955399562E+02 -0.25940947361E+03  0.28185117395E+03  0.81818523314E+02 0.  0.
          5    1    3    3  502    0  0.60422761552E+02  0.41402358865E+02 -0.10899612594E+02  0.74202136006E+02  0.47000000000E+01 0. -1.
        -11    1    4    4    0    0  0.45658755661E+01 -0.11832605548E+02  0.20154641068E+02  0.23813175561E+02  0.00000000000E+00 0.  1.
         12    1    4    4    0    0 -0.66812562563E+02  0.76506337965E+01 -0.44991046687E+02  0.80911340341E+02  0.00000000000E+00 0. -1.
         -5    1    5    5    0  501 -0.29313077726E+02  0.29735012449E+02 -0.34800358898E+03  0.35053104775E+03  0.47000000000E+01 0.  1.
         11    1    6    6    0    0 -0.16582586293E+02 -0.57445802850E+02 -0.11761798329E+03  0.13194314088E+03  0.00000000000E+00 0. -1.
        -12    1    6    6    0    0  0.47719589463E+02 -0.95095967114E+01 -0.14179149032E+03  0.14990803306E+03  0.00000000000E+00 0.  1.
</event>
<event>
12    1  0.2685360E-002  0.1752100E+03  0.7818608E-02  0.1172521E+00
         -2   -1    0    0    0  501 -0.00000000000E+00  0.00000000000E+00  0.86944219619E+02  0.86944219619E+02  0.00000000000E+00 0.  1.
          2   -1    0    0  502    0  0.00000000000E+00 -0.00000000000E+00 -0.40724787299E+03  0.40724787299E+03  0.00000000000E+00 0. -1.
          6    2    1    2  502    0 -0.82522066282E+01  0.39875320460E+02 -0.68644799391E+02  0.18650956091E+03  0.16856917788E+03 0.  0.
         24    2    3    3    0    0 -0.36902009790E+00  0.57655868701E+02  0.15583197601E+02  0.99937406018E+02  0.80126860057E+02 0.  0.
         -6    2    1    2    0  501  0.82522066282E+01 -0.39875320460E+02 -0.25165885398E+03  0.30768253169E+03  0.17227368176E+03 0.  0.
        -24    2    5    5    0    0 -0.27557127021E+02 -0.79556260123E+02 -0.20840498586E+03  0.23876321324E+03  0.80539680229E+02 0.  0.
          5    1    3    3  502    0 -0.78831865303E+01 -0.17780548240E+02 -0.84227996993E+02  0.86572154894E+02  0.47000000000E+01 0. -1.
        -11    1    4    4    0    0 -0.26296181224E+02  0.26643264012E+02  0.38310596729E+02  0.53563555576E+02  0.00000000000E+00 0.  1.
         12    1    4    4    0    0  0.25927161127E+02  0.31012604689E+02 -0.22727399128E+02  0.46373850442E+02  0.00000000000E+00 0. -1.
         -5    1    5    5    0  501  0.35809333649E+02  0.39680939663E+02 -0.43253868116E+02  0.68919318452E+02  0.47000000000E+01 0.  1.
         13    1    6    6    0    0  0.13534569622E+02 -0.69911735585E+02 -0.10297923277E+03  0.12520206759E+03  0.00000000000E+00 0. -1.
        -14    1    6    6    0    0 -0.41091696643E+02 -0.96445245382E+01 -0.10542575309E+03  0.11356114565E+03  0.00000000000E+00 0.  1.
</event>
<event>
12    1  0.2685360E-002  0.1730258E+03  0.7818608E-02  0.1174729E+00
          2   -1    0    0  502    0  0.00000000000E+00  0.00000000000E+00  0.13185303754E+04  0.13185303754E+04  0.00000000000E+00 0.  1.
         -2   -1    0    0    0  501 -0.00000000000E+00 -0.00000000000E+00 -0.24218860139E+02  0.24218860139E+02  0.00000000000E+00 0. -1.
          6    2    1    2  502    0  0.18298909414E+01  0.54678325968E+01  0.47288864149E+03  0.50290879307E+03  0.17105654389E+03 0.  0.
         24    2    3    3    0    0 -0.50114211362E+02  0.45596042419E+02  0.31158225851E+03  0.32869541191E+03  0.79791833704E+02 0.  0.
         -6    2    1    2    0  501 -0.18298909414E+01 -0.54678325968E+01  0.82142287382E+03  0.83984044251E+03  0.17482329809E+03 0.  0.
        -24    2    5    5    0    0 -0.24216995981E+02 -0.26975622794E+02  0.20027994806E+03  0.21790443959E+03  0.77821205843E+02 0.  0.
          5    1    3    3  502    0  0.51944102303E+02 -0.40128209823E+02  0.16130638298E+03  0.17421338116E+03  0.47000000000E+01 0. -1.
        -13    1    4    4    0    0  0.27937958194E+01  0.47744707686E+02  0.19282857725E+03  0.19867114187E+03  0.00000000000E+00 0.  1.
         14    1    4    4    0    0 -0.52908007181E+02 -0.21486652664E+01  0.11875368126E+03  0.13002427004E+03  0.00000000000E+00 0. -1.
         -5    1    5    5    0  501  0.22387105039E+02  0.21507790197E+02  0.62114292576E+03  0.62193600292E+03  0.47000000000E+01 0.  1.
         13    1    6    6    0    0 -0.38130959419E+02  0.15494656471E+02  0.95886136080E+02  0.10434656457E+03  0.00000000000E+00 0. -1.
        -14    1    6    6    0    0  0.13913963438E+02 -0.42470279264E+02  0.10439381198E+03  0.11355787502E+03  0.00000000000E+00 0.  1.
</event>
<event>
12    1  0.2685360E-002  0.2550278E+03  0.7818608E-02  0.1110168E+00
         -2   -1    0    0    0  501 -0.00000000000E+00  0.00000000000E+00  0.14294552080E+03  0.14294552080E+03  0.00000000000E+00 0. -1.
          2   -1    0    0  502    0  0.00000000000E+00 -0.00000000000E+00 -0.45577326456E+03  0.45577326456E+03  0.00000000000E+00 0.  1.
          6    2    1    2  502    0  0.17407931734E+03  0.66734673813E+02 -0.16900677933E+03  0.30623158050E+03  0.17452038284E+03 0.  0.
         24    2    3    3    0    0  0.16554766657E+03  0.12777168467E+02 -0.80292252603E+02  0.20194083931E+03  0.82243363315E+02 0.  0.
         -6    2    1    2    0  501 -0.17407931734E+03 -0.66734673813E+02 -0.14382096443E+03  0.29248720486E+03  0.17351417747E+03 0.  0.
        -24    2    5    5    0    0 -0.18377536774E+03 -0.16530349680E+02 -0.10060052092E+03  0.22537100493E+03  0.81394021931E+02 0.  0.
          5    1    3    3  502    0  0.85316507670E+01  0.53957505345E+02 -0.88714526725E+02  0.10429074120E+03  0.47000000000E+01 0. -1.
        -11    1    4    4    0    0  0.94196152822E+02  0.23995261988E+02 -0.85594135654E+02  0.12951850780E+03  0.00000000000E+00 0.  1.
         12    1    4    4    0    0  0.71351513751E+02 -0.11218093521E+02  0.53018830505E+01  0.72422331505E+02  0.00000000000E+00 0. -1.
         -5    1    5    5    0  501  0.96960504046E+01 -0.50204324132E+02 -0.43220443516E+02  0.67116199928E+02  0.47000000000E+01 0.  1.
         11    1    6    6    0    0 -0.65936591379E+02 -0.45366051778E+02 -0.33802140477E+02  0.86880938286E+02  0.00000000000E+00 0. -1.
        -12    1    6    6    0    0 -0.11783877637E+03  0.28835702098E+02 -0.66798380438E+02  0.13849006665E+03  0.00000000000E+00 0.  1.
</event>
<event>
12    1  0.2685360E-002  0.2258755E+03  0.7818608E-02  0.1129577E+00
         -2   -1    0    0    0  501 -0.00000000000E+00  0.00000000000E+00  0.10437642097E+03  0.10437642097E+03  0.00000000000E+00 0. -1.
          2   -1    0    0  502    0  0.00000000000E+00 -0.00000000000E+00 -0.56973412457E+03  0.56973412457E+03  0.00000000000E+00 0.  1.
          6    2    1    2  502    0 -0.91509671906E+02  0.11350310301E+03 -0.10541850362E+03  0.24903114409E+03  0.17218151868E+03 0.  0.
         24    2    3    3    0    0 -0.12834530509E+03  0.82584761698E+02 -0.58825292369E+02  0.18190570155E+03  0.79602192386E+02 0.  0.
         -6    2    1    2    0  501  0.91509671906E+02 -0.11350310301E+03 -0.35993919999E+03  0.42507940144E+03  0.17285628540E+03 0.  0.
        -24    2    5    5    0    0  0.12082475251E+03 -0.12620884381E+03 -0.32366185522E+03  0.37651042428E+03  0.80472417548E+02 0.  0.
          5    1    3    3  502    0  0.36835633180E+02  0.30918341311E+02 -0.46593211247E+02  0.67125442535E+02  0.47000000000E+01 0. -1.
        -11    1    4    4    0    0 -0.85145135298E+02  0.36036225579E+02 -0.71831501117E+02  0.11708145956E+03  0.00000000000E+00 0.  1.
         12    1    4    4    0    0 -0.43200169788E+02  0.46548536119E+02  0.13006208748E+02  0.64824241998E+02  0.00000000000E+00 0. -1.
         -5    1    5    5    0  501 -0.29315080607E+02  0.12705740799E+02 -0.36277344762E+02  0.48568977169E+02  0.47000000000E+01 0.  1.
         13    1    6    6    0    0  0.43735176959E+02 -0.97771324177E+02 -0.14916834072E+03  0.18363875247E+03  0.00000000000E+00 0. -1.
        -14    1    6    6    0    0  0.77089575554E+02 -0.28437519631E+02 -0.17449351450E+03  0.19287167181E+03  0.00000000000E+00 0.  1.
</event>
<event>
12    1  0.2685360E-002  0.1729481E+03  0.7818608E-02  0.1174808E+00
          1   -1    0    0  502    0  0.00000000000E+00  0.00000000000E+00  0.30250900993E+04  0.30250900993E+04  0.00000000000E+00 0.  1.
         -1   -1    0    0    0  501 -0.00000000000E+00 -0.00000000000E+00 -0.10391734251E+02  0.10391734251E+02  0.00000000000E+00 0. -1.
          6    2    1    2  502    0  0.17927545024E+02 -0.30090094501E+01  0.18417027689E+04  0.18498062974E+04  0.17199941333E+03 0.  0.
         24    2    3    3    0    0  0.18395334551E+02  0.62408484321E+02  0.99710150977E+03  0.10026622458E+04  0.82987656724E+02 0.  0.
         -6    2    1    2    0  501 -0.17927545024E+02  0.30090094501E+01  0.11729955962E+04  0.11856755361E+04  0.17198068862E+03 0.  0.
        -24    2    5    5    0    0  0.48317760918E+02  0.27777819792E+02  0.48486698448E+03  0.49390605805E+03  0.75769309440E+02 0.  0.
          5    1    3    3  502    0 -0.46778952662E+00 -0.65417493771E+02  0.84460125909E+03  0.84714405161E+03  0.47000000000E+01 0. -1.
        -13    1    4    4    0    0 -0.16948772040E+00 -0.77905976921E+01  0.52074092985E+03  0.52079923019E+03  0.00000000000E+00 0.  1.
         14    1    4    4    0    0  0.18564822271E+02  0.70199082013E+02  0.47636057992E+03  0.48186301564E+03  0.00000000000E+00 0. -1.
         -5    1    5    5    0  501 -0.66245305942E+02 -0.24768810342E+02  0.68812861170E+03  0.69176947805E+03  0.47000000000E+01 0.  1.
         13    1    6    6    0    0 -0.10994108785E+02 -0.16380310212E+02  0.84980768631E+02  0.87240564119E+02  0.00000000000E+00 0. -1.
        -14    1    6    6    0    0  0.59311869703E+02  0.44158130004E+02  0.39988621585E+03  0.40666549393E+03  0.00000000000E+00 0.  1.
</event>
<event>
12    1  0.2685360E-002  0.1847507E+03  0.7818608E-02  0.1163283E+00
          2   -1    0    0  502    0  0.00000000000E+00  0.00000000000E+00  0.80637643301E+02  0.80637643301E+02  0.00000000000E+00 0. -1.
         -2   -1    0    0    0  501 -0.00000000000E+00 -0.00000000000E+00 -0.66287634720E+03  0.66287634720E+03  0.00000000000E+00 0.  1.
          6    2    1    2  502    0 -0.64404953285E+02  0.21522416059E+02 -0.51324547931E+03  0.54503045823E+03  0.17037037877E+03 0.  0.
         24    2    3    3    0    0 -0.69493685503E+02  0.64302015733E+02 -0.46157183833E+03  0.47758978418E+03  0.77969984360E+02 0.  0.
         -6    2    1    2    0  501  0.64404953285E+02 -0.21522416059E+02 -0.68993224592E+02  0.19848353228E+03  0.17327560459E+03 0.  0.
        -24    2    5    5    0    0  0.10133589327E+03 -0.91442695422E+01 -0.85100441228E+02  0.15607309409E+03  0.82244420314E+02 0.  0.
          5    1    3    3  502    0  0.50887322184E+01 -0.42779599674E+02 -0.51673640982E+02  0.67440674049E+02  0.47000000000E+01 0. -1.
        -13    1    4    4    0    0 -0.84671684777E+02  0.39750060667E+02 -0.33930846288E+03  0.35196533140E+03  0.00000000000E+00 0.  1.
         14    1    4    4    0    0  0.15177999274E+02  0.24551955066E+02 -0.12226337545E+03  0.12562445278E+03  0.00000000000E+00 0. -1.
         -5    1    5    5    0  501 -0.36930939983E+02 -0.12378146516E+02  0.16107216636E+02  0.42410438184E+02  0.47000000000E+01 0.  1.
         11    1    6    6    0    0  0.76282759973E+02 -0.15472453710E+02 -0.12273495637E+02  0.78797810808E+02  0.00000000000E+00 0. -1.
        -12    1    6    6    0    0  0.25053133295E+02  0.63281841674E+01 -0.72826945591E+02  0.77275283286E+02  0.00000000000E+00 0.  1.
</event>
<event>
12    1  0.2685360E-002  0.3606623E+03  0.7818608E-02  0.1058322E+00
         -1   -1    0    0    0  501 -0.00000000000E+00  0.00000000000E+00  0.32200923947E+03  0.32200923947E+03  0.00000000000E+00 0. -1.
          1   -1    0    0  502    0  0.00000000000E+00 -0.00000000000E+00 -0.47239380388E+03  0.47239380388E+03  0.00000000000E+00 0.  1.
          6    2    1    2  502    0  0.31474688501E+03  0.34882169180E+02 -0.22629805859E+03  0.42540612862E+03  0.17168924134E+03 0.  0.
         24    2    3    3    0    0  0.20242330712E+03  0.82980152308E+02 -0.12104261735E+03  0.26406549504E+03  0.84960988194E+02 0.  0.
         -6    2    1    2    0  501 -0.31474688501E+03 -0.34882169180E+02  0.75913494181E+02  0.36899691473E+03  0.17353240945E+03 0.  0.
        -24    2    5    5    0    0 -0.31135323916E+03 -0.50757230973E+02  0.99430740215E+02  0.34003685119E+03  0.78876181678E+02 0.  0.
          5    1    3    3  502    0  0.11232357789E+03 -0.48097983128E+02 -0.10525544124E+03  0.16134063357E+03  0.47000000000E+01 0. -1.
        -13    1    4    4    0    0  0.79873702935E+02 -0.10411712608E+02 -0.44421749487E+02  0.91986433823E+02  0.00000000000E+00 0.  1.
         14    1    4    4    0    0  0.12254960419E+03  0.93391864916E+02 -0.76620867862E+02  0.17207906122E+03  0.00000000000E+00 0. -1.
         -5    1    5    5    0  501 -0.33936458518E+01  0.15875061793E+02 -0.23517246033E+02  0.28960063537E+02  0.47000000000E+01 0.  1.
         13    1    6    6    0    0 -0.11442914814E+03 -0.15906725230E+02 -0.25369637278E+01  0.11555730196E+03  0.00000000000E+00 0. -1.
        -14    1    6    6    0    0 -0.19692409102E+03 -0.34850505743E+02  0.10196770394E+03  0.22447954923E+03  0.00000000000E+00 0.  1.
</event>
<event>
12    1  0.2685360E-002  0.1891209E+03  0.7818608E-02  0.1159257E+00
          2   -1    0    0  502    0  0.00000000000E+00  0.00000000000E+00  0.12498087630E+04  0.12498087630E+04  0.00000000000E+00 0. -1.
         -2   -1    0    0    0  501 -0.00000000000E+00 -0.00000000000E+00 -0.44221627352E+02  0.44221627352E+02  0.00000000000E+00 0.  1.
          6    2    1    2  502    0 -0.73538094882E+02 -0.27336814631E+02  0.21964955132E+03  0.29022653255E+03  0.17271468371E+03 0.  0.
         24    2    3    3    0    0 -0.37414367880E+02 -0.66498635097E+02  0.72902325807E+02  0.13403623186E+03  0.82638120441E+02 0.  0.
         -6    2    1    2    0  501  0.73538094882E+02  0.27336814631E+02  0.98593758435E+03  0.10038038578E+04  0.17144711110E+03 0.  0.
        -24    2    5    5    0    0  0.22429150476E+02  0.48471847926E+02  0.86999438990E+03  0.87525920344E+03  0.79598039631E+02 0.  0.
          5    1    3    3  502    0 -0.36123727002E+02  0.39161820466E+02  0.14674722551E+03  0.15619030069E+03  0.47000000000E+01 0. -1.
        -13    1    4    4    0    0  0.19780571908E+02 -0.39734383372E+02  0.11263321924E+02  0.45792517596E+02  0.00000000000E+00 0.  1.
         14    1    4    4    0    0 -0.57194939788E+02 -0.26764251724E+02  0.61639003883E+02  0.88243714266E+02  0.00000000000E+00 0. -1.
         -5    1    5    5    0  501  0.51108944406E+02 -0.21135033295E+02  0.11594319445E+03  0.12854465438E+03  0.47000000000E+01 0.  1.
         13    1    6    6    0    0  0.27659124396E+02  0.69162018076E+02  0.68486609152E+03  0.68890491015E+03  0.00000000000E+00 0. -1.
        -14    1    6    6    0    0 -0.52299739197E+01 -0.20690170150E+02  0.18512829838E+03  0.18635429329E+03  0.00000000000E+00 0.  1.
</event>
<event>
12    1  0.2685360E-002  0.1811664E+03  0.7818608E-02  0.1166679E+00
          1   -1    0    0  502    0  0.00000000000E+00  0.00000000000E+00  0.25695476250E+02  0.25695476250E+02  0.00000000000E+00 0.  1.
         -1   -1    0    0    0  501 -0.00000000000E+00 -0.00000000000E+00 -0.12773943301E+04  0.12773943301E+04  0.00000000000E+00 0. -1.
          6    2    1    2  502    0 -0.29907434257E+02 -0.48245382154E+02 -0.62598519286E+03  0.65139775160E+03  0.17099560690E+03 0.  0.
         24    2    3    3    0    0  0.14512959399E+01  0.37196219898E+02 -0.37746302526E+03  0.38669226410E+03  0.75278859204E+02 0.  0.
         -6    2    1    2    0  501  0.29907434257E+02  0.48245382154E+02 -0.62571366096E+03  0.65169205472E+03  0.17309788317E+03 0.  0.
        -24    2    5    5    0    0 -0.14505080320E+02  0.67982699164E+02 -0.23441513096E+03  0.25735886729E+03  0.80318666625E+02 0.  0.
          5    1    3    3  502    0 -0.31358730197E+02 -0.85441602052E+02 -0.24852216760E+03  0.26470548750E+03  0.47000000000E+01 0. -1.
        -13    1    4    4    0    0 -0.34404511722E+02  0.16332138013E+02 -0.11970450043E+03  0.12561678463E+03  0.00000000000E+00 0.  1.
         14    1    4    4    0    0  0.35855807662E+02  0.20864081885E+02 -0.25775852483E+03  0.26107547947E+03  0.00000000000E+00 0. -1.
         -5    1    5    5    0  501  0.44412514577E+02 -0.19737317009E+02 -0.39129853000E+03  0.39433318743E+03  0.47000000000E+01 0.  1.
         13    1    6    6    0    0 -0.85008555643E+01  0.74904083047E+02 -0.23627469402E+03  0.24800930877E+03  0.00000000000E+00 0. -1.
        -14    1    6    6    0    0 -0.60042247554E+01 -0.69213838832E+01  0.18595630574E+01  0.93495585209E+01  0.00000000000E+00 0.  1.
</event>
<event>
12    1  0.2685360E-002  0.1800878E+03  0.7818608E-02  0.1167718E+00
         -1   -1    0    0    0  501 -0.00000000000E+00  0.00000000000E+00  0.40813189056E+02  0.40813189056E+02  0.00000000000E+00 0. -1.
          1   -1    0    0  502    0  0.00000000000E+00 -0.00000000000E+00 -0.10232991691E+04  0.10232991691E+04  0.00000000000E+00 0.  1.
          6    2    1    2  502    0  0.53474235852E+02 -0.21531065243E+02 -0.74644773344E+03  0.76828327650E+03  0.17248737205E+03 0.  0.
         24    2    3    3    0    0  0.95762608628E+02 -0.10419229161E+02 -0.65202355464E+03  0.66412092766E+03  0.81503700543E+02 0.  0.
         -6    2    1    2    0  501 -0.53474235852E+02  0.21531065243E+02 -0.23603824659E+03  0.29582908164E+03  0.16875340300E+03 0.  0.
        -24    2    5    5    0    0  0.34057473462E+02  0.18518104080E+02 -0.90086563993E+02  0.12555030515E+03  0.78386596015E+02 0.  0.
          5    1    3    3  502    0 -0.42288372776E+02 -0.11111836082E+02 -0.94424178806E+02  0.10416234884E+03  0.47000000000E+01 0. -1.
        -13    1    4    4    0    0  0.10485125237E+03  0.74352157252E+01 -0.51271889515E+03  0.52338296973E+03  0.00000000000E+00 0.  1.
         14    1    4    4    0    0 -0.90886437434E+01 -0.17854444886E+02 -0.13930465948E+03  0.14073795793E+03  0.00000000000E+00 0. -1.
         -5    1    5    5    0  501 -0.87531709314E+02  0.30129611630E+01 -0.14595168259E+03  0.17027877649E+03  0.47000000000E+01 0.  1.
         13    1    6    6    0    0  0.13882167188E+02  0.38602847774E+02 -0.12468272710E+02  0.42876010151E+02  0.00000000000E+00 0. -1.
        -14    1    6    6    0    0  0.20175306274E+02 -0.20084743694E+02 -0.77618291283E+02  0.82674295003E+02  0.00000000000E+00 0.  1.
</event>
<event>
12    1  0.2685360E-002  0.3746056E+03  0.7818608E-02  0.1052946E+00
          1   -1    0    0  502    0  0.00000000000E+00  0.00000000000E+00  0.16584229584E+04  0.16584229584E+04  0.00000000000E+00 0. -1.
         -1   -1    0    0    0  501 -0.00000000000E+00 -0.00000000000E+00 -0.84634162699E+02  0.84634162699E+02  0.00000000000E+00 0.  1.
          6    2    1    2  502    0  0.73678744720E+02 -0.32196954108E+03  0.79520043658E+03  0.87826624818E+03  0.17295931762E+03 0.  0.
         24    2    3    3    0    0  0.27452994650E+02 -0.83580968304E+02  0.36063852571E+03  0.38043889259E+03  0.83271601334E+02 0.  0.
         -6    2    1    2    0  501 -0.73678744720E+02  0.32196954108E+03  0.77858835910E+03  0.86479087290E+03  0.18047292904E+03 0.  0.
        -24    2    5    5    0    0 -0.60555263487E+02  0.33654547784E+03  0.68488537432E+03  0.76894191333E+03  0.72621563873E+02 0.  0.
          5    1    3    3  502    0  0.46225750070E+02 -0.23838857277E+03  0.43456191087E+03  0.49782735559E+03  0.47000000000E+01 0. -1.
        -11    1    4    4    0    0  0.15485166454E+02 -0.69732712693E+02  0.12407144853E+03  0.14316482089E+03  0.00000000000E+00 0.  1.
         12    1    4    4    0    0  0.11967828197E+02 -0.13848255611E+02  0.23656707718E+03  0.23727407170E+03  0.00000000000E+00 0. -1.
         -5    1    5    5    0  501 -0.13123481233E+02 -0.14575936761E+02  0.93702984784E+02  0.95848959564E+02  0.47000000000E+01 0.  1.
         13    1    6    6    0    0 -0.31523107690E+02  0.23205028190E+03  0.53429563990E+03  0.58336341200E+03  0.00000000000E+00 0. -1.
        -14    1    6    6    0    0 -0.29032155797E+02  0.10449519594E+03  0.15058973442E+03  0.18557850133E+03  0.00000000000E+00 0.  1.
</event>
<event>
12    1  0.2685360E-002  0.1785962E+03  0.7818608E-02  0.1169169E+00
         -1   -1    0    0    0  501 -0.00000000000E+00  0.00000000000E+00  0.44872285504E+03  0.44872285504E+03  0.00000000000E+00 0.  1.
          1   -1    0    0  502    0  0.00000000000E+00 -0.00000000000E+00 -0.83961949115E+02  0.83961949115E+02  0.00000000000E+00 0. -1.
          6    2    1    2  502    0 -0.35416360130E+02  0.20448410833E+02  0.79870318698E+02  0.19751242842E+03  0.17595293547E+03 0.  0.
         24    2    3    3    0    0 -0.63942401865E+02 -0.33703648168E+02  0.23168581843E+02  0.11394594283E+03  0.84984281171E+02 0.  0.
         -6    2    1    2    0  501  0.35416360130E+02 -0.20448410833E+02  0.28489058722E+03  0.33517237574E+03  0.17177141409E+03 0.  0.
        -24    2    5    5    0    0  0.27343830415E+02 -0.75293112765E+02  0.14452170156E+03  0.18418025301E+03  0.81357885188E+02 0.  0.
          5    1    3    3  502    0  0.28526041735E+02  0.54152059001E+02  0.56701736855E+02  0.83566485588E+02  0.47000000000E+01 0. -1.
        -13    1    4    4    0    0 -0.50243301054E+02  0.10071719680E+02  0.40083383171E+02  0.65057716257E+02  0.00000000000E+00 0.  1.
         14    1    4    4    0    0 -0.13699100811E+02 -0.43775367848E+02 -0.16914801328E+02  0.48888226571E+02  0.00000000000E+00 0. -1.
         -5    1    5    5    0  501  0.80725297146E+01  0.54844701933E+02  0.14036888566E+03  0.15099212273E+03  0.47000000000E+01 0.  1.
         11    1    6    6    0    0  0.28892006292E+01 -0.86487444031E+02  0.10081176272E+03  0.13285871051E+03  0.00000000000E+00 0. -1.
        -12    1    6    6    0    0  0.24454629786E+02  0.11194331265E+02  0.43709938844E+02  0.51321542496E+02  0.00000000000E+00 0.  1.
</event>
<event>
12    1  0.2685360E-002  0.2391745E+03  0.7818608E-02  0.1120344E+00
         -1   -1    0    0    0  501 -0.00000000000E+00  0.00000000000E+00  0.14433501389E+03  0.14433501389E+03  0.00000000000E+00 0. -1.
          1   -1    0    0  502    0  0.00000000000E+00 -0.00000000000E+00 -0.47545327969E+03  0.47545327969E+03  0.00000000000E+00 0.  1.
          6    2    1    2  502    0  0.10556527804E+03  0.12554228272E+03 -0.29246777473E+03  0.37835709045E+03  0.17524781299E+03 0.  0.
         24    2    3    3    0    0  0.11144043028E+01  0.42076102643E+02 -0.65015083400E+02  0.11447566815E+03  0.84297551674E+02 0.  0.
         -6    2    1    2    0  501 -0.10556527804E+03 -0.12554228272E+03 -0.38650491066E+02  0.24143120313E+03  0.17288803517E+03 0.  0.
        -24    2    5    5    0    0 -0.75670256067E+02 -0.12663635053E+03  0.26017594103E+02  0.17002419673E+03  0.80427354447E+02 0.  0.
          5    1    3    3  502    0  0.10445087374E+03  0.83466180081E+02 -0.22745269133E+03  0.26388142230E+03  0.47000000000E+01 0. -1.
        -13    1    4    4    0    0  0.34782398316E+02  0.32713701049E+02 -0.63562954728E+02  0.79500004293E+02  0.00000000000E+00 0.  1.
         14    1    4    4    0    0 -0.33667994013E+02  0.93624015944E+01 -0.14521286719E+01  0.34975663856E+02  0.00000000000E+00 0. -1.
         -5    1    5    5    0  501 -0.29895021971E+02  0.10940678030E+01 -0.64668085169E+02  0.71407006396E+02  0.47000000000E+01 0.  1.
         13    1    6    6    0    0 -0.46300678317E+02 -0.30126580762E+02  0.39971273523E+02  0.68184062567E+02  0.00000000000E+00 0. -1.
        -14    1    6    6    0    0 -0.29369577750E+02 -0.96509769765E+02 -0.13953679420E+02  0.10184013417E+03  0.00000000000E+00 0.  1.
</event>
<event>
12    1  0.2685360E-002  0.2354909E+03  0.7818608E-02  0.1122834E+00
         -2   -1    0    0    0  501 -0.00000000000E+00  0.00000000000E+00  0.48131769042E+02  0.48131769042E+02  0.00000000000E+00 0.  1.
          2   -1    0    0  502    0  0.00000000000E+00 -0.00000000000E+00 -0.17342851137E+04  0.17342851137E+04  0.00000000000E+00 0. -1.
          6    2    1    2  502    0  0.97908795874E+02 -0.12688806166E+03 -0.32544709677E+03  0.40138933807E+03  0.17178729703E+03 0.  0.
         24    2    3    3    0    0  0.28937212844E+02 -0.90089785640E+02 -0.28988027567E+03  0.31537607661E+03  0.80485798216E+02 0.  0.
         -6    2    1    2    0  501 -0.97908795874E+02  0.12688806166E+03 -0.13607062479E+04  0.13810275447E+04  0.17328841158E+03 0.  0.
        -24    2    5    5    0    0 -0.43824137394E+02 -0.59200996556E+01 -0.58670193604E+03  0.59383765477E+03  0.80426338178E+02 0.  0.
          5    1    3    3  502    0  0.68971583031E+02 -0.36798276024E+02 -0.35566821103E+02  0.86013261463E+02  0.47000000000E+01 0. -1.
        -11    1    4    4    0    0  0.75495741839E+01 -0.75689966862E+02 -0.11048623486E+03  0.13413864189E+03  0.00000000000E+00 0.  1.
         12    1    4    4    0    0  0.21387638660E+02 -0.14399818778E+02 -0.17939404081E+03  0.18123743472E+03  0.00000000000E+00 0. -1.
         -5    1    5    5    0  501 -0.54084658480E+02  0.13280816132E+03 -0.77400431190E+03  0.78718988995E+03  0.47000000000E+01 0.  1.
         11    1    6    6    0    0 -0.31615702138E+02  0.49323247602E+01 -0.56842555806E+03  0.56932547414E+03  0.00000000000E+00 0. -1.
        -12    1    6    6    0    0 -0.12208435256E+02 -0.10852424416E+02 -0.18276377972E+02  0.24512180623E+02  0.00000000000E+00 0.  1.
</event>
<event>
12    1  0.2685360E-002  0.2337247E+03  0.7818608E-02  0.1124045E+00
          1   -1    0    0  502    0  0.00000000000E+00  0.00000000000E+00  0.11249337418E+04  0.11249337418E+04  0.00000000000E+00 0. -1.
         -1   -1    0    0    0  501 -0.00000000000E+00 -0.00000000000E+00 -0.74581345396E+02  0.74581345396E+02  0.00000000000E+00 0.  1.
          6    2    1    2  502    0 -0.69421421342E+02 -0.14208055278E+03  0.17075194995E+03  0.28936305573E+03  0.17195503013E+03 0.  0.
         24    2    3    3    0    0  0.12166057660E+02 -0.74152018707E+02  0.92692803357E+02  0.15750660788E+03  0.10280973152E+03 0.  0.
         -6    2    1    2    0  501  0.69421421342E+02  0.14208055278E+03  0.87960044641E+03  0.91015203142E+03  0.17226014561E+03 0.  0.
        -24    2    5    5    0    0  0.30051193143E+02  0.11084088356E+03  0.82056564621E+03  0.83247880930E+03  0.80648698087E+02 0.  0.
          5    1    3    3  502    0 -0.81587479002E+02 -0.67928534078E+02  0.78059146597E+02  0.13185644785E+03  0.47000000000E+01 0. -1.
        -13    1    4    4    0    0 -0.54042345152E+01 -0.49151884862E+02 -0.99263846361E+01  0.50434577902E+02  0.00000000000E+00 0.  1.
         14    1    4    4    0    0  0.17570292175E+02 -0.25000133845E+02  0.10261918799E+03  0.10707202998E+03  0.00000000000E+00 0. -1.
         -5    1    5    5    0  501  0.39370228199E+02  0.31239669226E+02  0.59034800193E+02  0.77673222127E+02  0.47000000000E+01 0.  1.
         11    1    6    6    0    0  0.13339931289E+02  0.46298993494E+02  0.12895986675E+03  0.13766698151E+03  0.00000000000E+00 0. -1.
        -12    1    6    6    0    0  0.16711261854E+02  0.64541890064E+02  0.69160577947E+03  0.69481182779E+03  0.00000000000E+00 0.  1.
</event>
<event>
12    1  0.2685360E-002  0.2338193E+03  0.7818608E-02  0.1123980E+00
         -2   -1    0    0    0  501 -0.00000000000E+00  0.00000000000E+00  0.40703401445E+02  0.40703401445E+02  0.00000000000E+00 0.  1.
          2   -1    0    0  502    0  0.00000000000E+00 -0.00000000000E+00 -0.14559558589E+04  0.14559558589E+04  0.00000000000E+00 0. -1.
          6    2    1    2  502    0 -0.35218207635E+02 -0.15613213042E+03 -0.91802230575E+03  0.94751994696E+03  0.17149790593E+03 0.  0.
         24    2    3    3    0    0  0.25508673948E+01 -0.39863970339E+02 -0.61345065392E+03  0.61929628971E+03  0.74903582069E+02 0.  0.
         -6    2    1    2    0  501  0.35218207635E+02  0.15613213042E+03 -0.49723015170E+03  0.54913931338E+03  0.16940660388E+03 0.  0.
        -24    2    5    5    0    0  0.11853264913E+02  0.13031061055E+03 -0.48954247953E+03  0.51316902369E+03  0.81050925374E+02 0.  0.
          5    1    3    3  502    0 -0.37769075030E+02 -0.11626816008E+03 -0.30457165183E+03  0.32822365725E+03  0.47000000000E+01 0. -1.
        -11    1    4    4    0    0 -0.17861022168E-01 -0.30236452877E+01  0.14038757719E+01  0.33337091992E+01  0.00000000000E+00 0.  1.
         12    1    4    4    0    0  0.25687284170E+01 -0.36840325052E+02 -0.61485452969E+03  0.61596258051E+03  0.00000000000E+00 0. -1.
         -5    1    5    5    0  501  0.23364942723E+02  0.25821519868E+02 -0.76876721745E+01  0.35970289688E+02  0.47000000000E+01 0.  1.
         13    1    6    6    0    0 -0.42323971934E+01  0.18771073150E+01 -0.14565448842E+03  0.14572805741E+03  0.00000000000E+00 0. -1.
        -14    1    6    6    0    0  0.16085662106E+02  0.12843350324E+03 -0.34388799111E+03  0.36744096629E+03  0.00000000000E+00 0.  1.
</event>
<event>
12    1  0.2685360E-002  0.1740283E+03  0.7818608E-02  0.1173711E+00
          1   -1    0    0  502    0  0.00000000000E+00  0.00000000000E+00  0.91934222895E+03  0.91934222895E+03  0.00000000000E+00 0. -1.
         -1   -1    0    0    0  501 -0.00000000000E+00 -0.00000000000E+00 -0.34840648977E+02  0.34840648977E+02  0.00000000000E+00 0.  1.
          6    2    1    2  502    0 -0.19481626424E+02 -0.18956141829E+01  0.55262105880E+03  0.57925444674E+03  0.17251826663E+03 0.  0.
         24    2    3    3    0    0 -0.38502486087E+02 -0.14830764104E+02  0.14378353678E+03  0.16974337166E+03  0.80229132952E+02 0.  0.
         -6    2    1    2    0  501  0.19481626424E+02  0.18956141829E+01  0.33188052118E+03  0.37492843119E+03  0.17333066969E+03 0.  0.
        -24    2    5    5    0    0  0.74313016325E+02  0.68140696498E+01  0.27402217876E+03  0.29492624178E+03  0.79526584842E+02 0.  0.
          5    1    3    3  502    0  0.19020859663E+02  0.12935149921E+02  0.40883752202E+03  0.40951107509E+03  0.47000000000E+01 0. -1.
        -13    1    4    4    0    0 -0.51824353677E+02  0.16147635825E+02  0.69679152762E+02  0.88327199131E+02  0.00000000000E+00 0.  1.
         14    1    4    4    0    0  0.13321867590E+02 -0.30978399929E+02  0.74104384016E+02  0.81416172525E+02  0.00000000000E+00 0. -1.
         -5    1    5    5    0  501 -0.54831389901E+02 -0.49184554670E+01  0.57858342412E+02  0.80002189404E+02  0.47000000000E+01 0.  1.
         13    1    6    6    0    0  0.68384118620E+02  0.31350232289E+02  0.14389103607E+03  0.16236950146E+03  0.00000000000E+00 0. -1.
        -14    1    6    6    0    0  0.59288977046E+01 -0.24536162639E+02  0.13013114270E+03  0.13255674032E+03  0.00000000000E+00 0.  1.
</event>
<event>
12    1  0.2685360E-002  0.1896314E+03  0.7818608E-02  0.1158794E+00
         -2   -1    0    0    0  501 -0.00000000000E+00  0.00000000000E+00  0.45227325729E+02  0.45227325729E+02  0.00000000000E+00 0.  1.
          2   -1    0    0  502    0  0.00000000000E+00 -0.00000000000E+00 -0.19090056565E+04  0.19090056565E+04  0.00000000000E+00 0. -1.
          6    2    1    2  502    0  0.61560690344E+02 -0.52147758199E+02 -0.18357714790E+03  0.26325830576E+03  0.17057332453E+03 0.  0.
         24    2    3    3    0    0  0.40043217251E+02 -0.64443982673E+02 -0.20626778372E+03  0.22932964917E+03  0.65492008953E+02 0.  0.
         -6    2    1    2    0  501 -0.61560690344E+02  0.52147758199E+02 -0.16802011829E+04  0.16909746765E+04  0.17265640520E+03 0.  0.
        -24    2    5    5    0    0 -0.93007028713E+02 -0.75647585635E+01 -0.11223760857E+04  0.11290624183E+04  0.79663879443E+02 0.  0.
          5    1    3    3  502    0  0.21517473094E+02  0.12296224473E+02  0.22690635815E+02  0.33928656595E+02  0.47000000000E+01 0. -1.
        -11    1    4    4    0    0  0.14979646300E+02 -0.34671990766E+01 -0.30364607685E+01  0.15672631135E+02  0.00000000000E+00 0.  1.
         12    1    4    4    0    0  0.25063570951E+02 -0.60976783596E+02 -0.20323132295E+03  0.21365701803E+03  0.00000000000E+00 0. -1.
         -5    1    5    5    0  501  0.31446338368E+02  0.59712516763E+02 -0.55782509719E+03  0.56191225820E+03  0.47000000000E+01 0.  1.
         13    1    6    6    0    0 -0.74530666512E+02  0.28633374547E+02 -0.83836770414E+03  0.84216096902E+03  0.00000000000E+00 0. -1.
        -14    1    6    6    0    0 -0.18476362201E+02 -0.36198133111E+02 -0.28400838154E+03  0.28690144925E+03  0.00000000000E+00 0.  1.
</event>
<event>
12    1  0.2685360E-002  0.1963017E+03  0.7818608E-02  0.1152897E+00
          1   -1    0    0  502    0  0.00000000000E+00  0.00000000000E+00  0.15272899783E+03  0.15272899783E+03  0.00000000000E+00 0. -1.
         -1   -1    0    0    0  501 -0.00000000000E+00 -0.00000000000E+00 -0.25940695890E+03  0.25940695890E+03  0.00000000000E+00 0.  1.
          6    2    1    2  502    0  0.98413866493E+02  0.15507311086E+02 -0.86752213386E+02  0.21255771053E+03  0.16652047311E+03 0.  0.
         24    2    3    3    0    0  0.11898409021E+03 -0.14894623089E+02 -0.97579752980E+02  0.17399947770E+03  0.79843262270E+02 0.  0.
         -6    2    1    2    0  501 -0.98413866493E+02 -0.15507311086E+02 -0.19925747685E+02  0.19957824620E+03  0.17178089277E+03 0.  0.
        -24    2    5    5    0    0 -0.31292483465E+02 -0.52534822385E+02 -0.55488500537E+02  0.11494305232E+03  0.79961268753E+02 0.  0.
          5    1    3    3  502    0 -0.20570223713E+02  0.30401934175E+02  0.10827539594E+02  0.38558232828E+02  0.47000000000E+01 0. -1.
        -13    1    4    4    0    0  0.47124526010E+02  0.24311308020E+02 -0.97097790730E+01  0.53907703151E+02  0.00000000000E+00 0.  1.
         14    1    4    4    0    0  0.71859564195E+02 -0.39205931109E+02 -0.87869973907E+02  0.12009177455E+03  0.00000000000E+00 0. -1.
         -5    1    5    5    0  501 -0.67121383027E+02  0.37027511299E+02  0.35562752852E+02  0.84635193879E+02  0.47000000000E+01 0.  1.
         13    1    6    6    0    0 -0.49028516591E+02 -0.12065417167E+02 -0.98943889463E+01  0.51451614777E+02  0.00000000000E+00 0. -1.
        -14    1    6    6    0    0  0.17736033125E+02 -0.40469405218E+02 -0.45594111591E+02  0.63491437544E+02  0.00000000000E+00 0.  1.
</event>
<event>
12    1  0.2685360E-002  0.2521618E+03  0.7818608E-02  0.1111946E+00
          1   -1    0    0  502    0  0.00000000000E+00  0.00000000000E+00  0.31231073461E+03  0.31231073461E+03  0.00000000000E+00 0. -1.
         -1   -1    0    0    0  501 -0.00000000000E+00 -0.00000000000E+00 -0.22773687999E+03  0.22773687999E+03  0.00000000000E+00 0.  1.
          6    2    1    2  502    0 -0.15240061916E+02  0.18397057434E+03  0.13024847930E+03  0.28410857107E+03  0.17226602128E+03 0.  0.
         24    2    3    3    0    0  0.60113193183E+01  0.15094075265E+02  0.36312158101E+02  0.89642595684E+02  0.80332154627E+02 0.  0.
         -6    2    1    2    0  501  0.15240061916E+02 -0.18397057434E+03 -0.45674624687E+02  0.25593904352E+03  0.17129270548E+03 0.  0.
        -24    2    5    5    0    0  0.22106715116E+02 -0.27644854220E+02 -0.33290985434E+02  0.98902976909E+02  0.86142697382E+02 0.  0.
          5    1    3    3  502    0 -0.21251381234E+02  0.16887649907E+03  0.93936321203E+02  0.19446597539E+03  0.47000000000E+01 0. -1.
        -13    1    4    4    0    0 -0.23363085820E+02  0.37108134049E+02  0.11492396708E+02  0.45331253829E+02  0.00000000000E+00 0.  1.
         14    1    4    4    0    0  0.29374405138E+02 -0.22014058784E+02  0.24819761393E+02  0.44311341855E+02  0.00000000000E+00 0. -1.
         -5    1    5    5    0  501 -0.68666532000E+01 -0.15632572012E+03 -0.12383639253E+02  0.15703606661E+03  0.47000000000E+01 0.  1.
         13    1    6    6    0    0  0.37770998374E+02 -0.48288412730E+02 -0.65321099336E+01  0.61652960856E+02  0.00000000000E+00 0. -1.
        -14    1    6    6    0    0 -0.15664283257E+02  0.20643558510E+02 -0.26758875500E+02  0.37250016053E+02  0.00000000000E+00 0.  1.
</event>
<event>
12    1  0.2685360E-002  0.1770099E+03  0.7818608E-02  0.1170729E+00
          1   -1    0    0  502    0  0.00000000000E+00  0.00000000000E+00  0.69796566979E+03  0.69796566979E+03  0.00000000000E+00 0. -1.
         -1   -1    0    0    0  501 -0.00000000000E+00 -0.00000000000E+00 -0.46271154597E+02  0.46271154597E+02  0.00000000000E+00 0.  1.
          6    2    1    2  502    0  0.53312344864E+01  0.40447714781E+02  0.26416018420E+03  0.31876982086E+03  0.17369270589E+03 0.  0.
         24    2    3    3    0    0 -0.42308594475E+02 -0.12586539278E+02  0.88246329858E+02  0.12890155190E+03  0.82944301861E+02 0.  0.
         -6    2    1    2    0  501 -0.53312344864E+01 -0.40447714781E+02  0.38753433099E+03  0.42546700353E+03  0.17080653882E+03 0.  0.
        -24    2    5    5    0    0 -0.53708808045E+02 -0.31182105735E+02  0.15659675204E+03  0.18928805335E+03  0.86316073897E+02 0.  0.
          5    1    3    3  502    0  0.47639828962E+02  0.53034254059E+02  0.17591385435E+03  0.18986826896E+03  0.47000000000E+01 0. -1.
        -11    1    4    4    0    0  0.17067182114E+02 -0.27464020397E+02  0.36359877022E+02  0.48658008372E+02  0.00000000000E+00 0.  1.
         12    1    4    4    0    0 -0.59375776589E+02  0.14877481118E+02  0.51886452836E+02  0.80243543527E+02  0.00000000000E+00 0. -1.
         -5    1    5    5    0  501  0.48377573558E+02 -0.92656090465E+01  0.23093757895E+03  0.23617895017E+03  0.47000000000E+01 0.  1.
         11    1    6    6    0    0  0.16387517556E+02  0.15136056907E+02  0.33984731176E+02  0.40652341919E+02  0.00000000000E+00 0. -1.
        -12    1    6    6    0    0 -0.70096325601E+02 -0.46318162642E+02  0.12261202086E+03  0.14863571143E+03  0.00000000000E+00 0.  1.
</event>
<event>
12    1  0.2685360E-002  0.1917564E+03  0.7818608E-02  0.1156887E+00
          2   -1    0    0  502    0  0.00000000000E+00  0.00000000000E+00  0.41487892195E+04  0.41487892195E+04  0.00000000000E+00 0. -1.
         -2   -1    0    0    0  501 -0.00000000000E+00 -0.00000000000E+00 -0.11228047124E+02  0.11228047124E+02  0.00000000000E+00 0.  1.
          6    2    1    2  502    0 -0.52167504461E+02 -0.52063612531E+02  0.29730265052E+04  0.29788485230E+04  0.17093815868E+03 0.  0.
         24    2    3    3    0    0 -0.92612326290E+02 -0.16438655998E+02  0.24386909071E+04  0.24417809830E+04  0.78954139270E+02 0.  0.
         -6    2    1    2    0  501  0.52167504461E+02  0.52063612531E+02  0.11645346673E+04  0.11811687437E+04  0.18326631329E+03 0.  0.
        -24    2    5    5    0    0  0.10061153037E+03  0.21041489481E+01  0.70853989360E+03  0.71987047225E+03  0.77830639878E+02 0.  0.
          5    1    3    3  502    0  0.40444821829E+02 -0.35624956533E+02  0.53433559804E+03  0.53706753995E+03  0.47000000000E+01 0. -1.
        -11    1    4    4    0    0  0.21985726476E+01  0.20579601646E+02  0.48322550950E+03  0.48366852984E+03  0.00000000000E+00 0.  1.
         12    1    4    4    0    0 -0.94810898938E+02 -0.37018257644E+02  0.19554653976E+04  0.19581124532E+04  0.00000000000E+00 0. -1.
         -5    1    5    5    0  501 -0.48444025906E+02  0.49959463583E+02  0.45599477366E+03  0.46129827146E+03  0.47000000000E+01 0.  1.
         13    1    6    6    0    0  0.35639255178E+02 -0.31735649846E+02  0.17756018220E+03  0.18386116035E+03  0.00000000000E+00 0. -1.
        -14    1    6    6    0    0  0.64972275189E+02  0.33839798795E+02  0.53097971140E+03  0.53600931190E+03  0.00000000000E+00 0.  1.
</event>
<event>
12    1  0.2685360E-002  0.3514899E+03  0.7818608E-02  0.1062005E+00
         -2   -1    0    0    0  501 -0.00000000000E+00  0.00000000000E+00  0.23395097795E+03  0.23395097795E+03  0.00000000000E+00 0. -1.
          2   -1    0    0  502    0  0.00000000000E+00 -0.00000000000E+00 -0.77764316626E+03  0.77764316626E+03  0.00000000000E+00 0.  1.
          6    2    1    2  502    0  0.26319110287E+03 -0.15683194422E+03 -0.55830059201E+03  0.65965078744E+03  0.17197033166E+03 0.  0.
         24    2    3    3    0    0  0.70282452147E+02 -0.74365412937E+01 -0.11772065596E+03  0.15599862176E+03  0.74043851375E+02 0.  0.
         -6    2    1    2    0  501 -0.26319110287E+03  0.15683194422E+03  0.14608403701E+02  0.35194335677E+03  0.17258303961E+03 0.  0.
        -24    2    5    5    0    0 -0.11828997400E+03  0.50614381043E+02  0.65347132827E+02  0.16519481860E+03  0.80403649218E+02 0.  0.
          5    1    3    3  502    0  0.19290865072E+03 -0.14939540292E+03 -0.44057993605E+03  0.50365216568E+03  0.47000000000E+01 0. -1.
        -13    1    4    4    0    0  0.16929670754E+02  0.51821232400E+00 -0.96591957264E+02  0.98065735626E+02  0.00000000000E+00 0.  1.
         14    1    4    4    0    0  0.53352781393E+02 -0.79547536177E+01 -0.21128698693E+02  0.57932886135E+02  0.00000000000E+00 0. -1.
         -5    1    5    5    0  501 -0.14490112887E+03  0.10621756317E+03 -0.50738729126E+02  0.18674853817E+03  0.47000000000E+01 0.  1.
         11    1    6    6    0    0  0.61156777126E+01  0.22564115844E+00  0.23970030550E+02  0.24738932725E+02  0.00000000000E+00 0. -1.
        -12    1    6    6    0    0 -0.12440565171E+03  0.50388739884E+02  0.41377102277E+02  0.14045588588E+03  0.00000000000E+00 0.  1.
</event>
<event>
12    1  0.2685360E-002  0.2303095E+03  0.7818608E-02  0.1126422E+00
         -2   -1    0    0    0  501 -0.00000000000E+00  0.00000000000E+00  0.26062383169E+03  0.26062383169E+03  0.00000000000E+00 0. -1.
          2   -1    0    0  502    0  0.00000000000E+00 -0.00000000000E+00 -0.22355017015E+03  0.22355017015E+03  0.00000000000E+00 0.  1.
          6    2    1    2  502    0 -0.10342864949E+03 -0.11337162728E+03 -0.53916734951E+02  0.23665542426E+03  0.17189579436E+03 0.  0.
         24    2    3    3    0    0 -0.18551522429E+02 -0.10925263193E+03 -0.60631980905E+00  0.13623041152E+03  0.79234215035E+02 0.  0.
         -6    2    1    2    0  501  0.10342864949E+03  0.11337162728E+03  0.90990396495E+02  0.24751857758E+03  0.17156801154E+03 0.  0.
        -24    2    5    5    0    0  0.13478914547E+03  0.90372518730E+02  0.10074988615E+03  0.20714807670E+03  0.80152855485E+02 0.  0.
          5    1    3    3  502    0 -0.84877127061E+02 -0.41189953507E+01 -0.53310415142E+02  0.10042501274E+03  0.47000000000E+01 0. -1.
        -11    1    4    4    0    0  0.61783904797E+01 -0.29287551734E+02 -0.34722396622E+02  0.45842971355E+02  0.00000000000E+00 0.  1.
         12    1    4    4    0    0 -0.24729912908E+02 -0.79965080195E+02  0.34116076813E+02  0.90387440168E+02  0.00000000000E+00 0. -1.
         -5    1    5    5    0  501 -0.31360495983E+02  0.22999108549E+02 -0.97594896591E+01  0.40370500873E+02  0.47000000000E+01 0.  1.
         11    1    6    6    0    0  0.98445408254E+02  0.97411181121E+02  0.98713802124E+02  0.17007307648E+03  0.00000000000E+00 0. -1.
        -12    1    6    6    0    0  0.36343737219E+02 -0.70386623904E+01  0.20360840298E+01  0.37075000222E+02  0.00000000000E+00 0.  1.
</event>
<event>
12    1  0.2685360E-002  0.1828209E+03  0.7818608E-02  0.1165101E+00
          1   -1    0    0  502    0  0.00000000000E+00  0.00000000000E+00  0.38318324679E+03  0.38318324679E+03  0.00000000000E+00 0. -1.
         -1   -1    0    0    0  501 -0.00000000000E+00 -0.00000000000E+00 -0.10054655571E+03  0.10054655571E+03  0.00000000000E+00 0.  1.
          6    2    1    2  502    0  0.53045807908E+02 -0.28638455772E+02  0.53469138856E+02  0.19074376175E+03  0.17288786814E+03 0.  0.
         24    2    3    3    0    0  0.24136742826E+02 -0.84802137185E+02  0.29541225257E+02  0.12303314070E+03  0.80563545696E+02 0.  0.
         -6    2    1    2    0  501 -0.53045807908E+02  0.28638455772E+02  0.22916755223E+03  0.29298604075E+03  0.17230506142E+03 0.  0.
        -24    2    5    5    0    0  0.15174552737E+02 -0.10102907391E+02  0.17442798489E+03  0.19720806281E+03  0.90186264658E+02 0.  0.
          5    1    3    3  502    0  0.28909065083E+02  0.56163681414E+02  0.23927913599E+02  0.67710621051E+02  0.47000000000E+01 0. -1.
        -11    1    4    4    0    0 -0.74528918990E+00  0.15718335822E+02  0.59678004542E+01  0.16829622077E+02  0.00000000000E+00 0.  1.
         12    1    4    4    0    0  0.24882032015E+02 -0.10052047301E+03  0.23573424803E+02  0.10620351862E+03  0.00000000000E+00 0. -1.
         -5    1    5    5    0  501 -0.68220360645E+02  0.38741363162E+02  0.54739567335E+02  0.95777977940E+02  0.47000000000E+01 0.  1.
         11    1    6    6    0    0  0.88306279929E+01  0.30989910547E+02  0.13867820584E+03  0.14237274782E+03  0.00000000000E+00 0. -1.
        -12    1    6    6    0    0  0.63439247440E+01 -0.41092817938E+02  0.35749779051E+02  0.54835314985E+02  0.00000000000E+00 0.  1.
</event>
<event>
12    1  0.2685360E-002  0.1837194E+03  0.7818608E-02  0.1164251E+00
         -2   -1    0    0    0  501 -0.00000000000E+00  0.00000000000E+00  0.32398461995E+02  0.32398461995E+02  0.00000000000E+00 0. -1.
          2   -1    0    0  502    0  0.00000000000E+00 -0.00000000000E+00 -0.10418651874E+04  0.10418651874E+04  0.00000000000E+00 0.  1.
          6    2    1    2  502    0 -0.44029847673E+02 -0.45963643284E+02 -0.50739680844E+03  0.53947688417E+03  0.17185023521E+03 0.  0.
         24    2    3    3    0    0 -0.33624651025E+02  0.32055041648E+02 -0.27442467640E+03  0.29352305186E+03  0.93213390167E+02 0.  0.
         -6    2    1    2    0  501  0.44029847673E+02  0.45963643284E+02 -0.50206991692E+03  0.53478676519E+03  0.17283344223E+03 0.  0.
        -24    2    5    5    0    0  0.65220787909E+02  0.44950173803E+02 -0.50039726993E+03  0.51299294000E+03  0.80560905125E+02 0.  0.
          5    1    3    3  502    0 -0.10405196648E+02 -0.78018684932E+02 -0.23297213205E+03  0.24595383231E+03  0.47000000000E+01 0. -1.
        -13    1    4    4    0    0 -0.31664299702E+02 -0.26085068461E+02 -0.15979191744E+03  0.16497428754E+03  0.00000000000E+00 0.  1.
         14    1    4    4    0    0 -0.19603513228E+01  0.58140110109E+02 -0.11463275896E+03  0.12854876432E+03  0.00000000000E+00 0. -1.
         -5    1    5    5    0  501 -0.21190940236E+02  0.10134694804E+01 -0.16726469930E+01  0.21793825191E+02  0.47000000000E+01 0.  1.
         13    1    6    6    0    0  0.40786936715E+02  0.53145966230E+02 -0.18883283963E+03  0.20036444110E+03  0.00000000000E+00 0. -1.
        -14    1    6    6    0    0  0.24433851194E+02 -0.81957924271E+01 -0.31156443030E+03  0.31262849890E+03  0.00000000000E+00 0.  1.
</event>
<event>
12    1  0.2685360E-002  0.2732785E+03  0.7818608E-02  0.1099418E+00
          3   -1    0    0  502    0  0.00000000000E+00  0.00000000000E+00  0.18704357384E+03  0.18704357384E+03  0.00000000000E+00 0. -1.
         -3   -1    0    0    0  501 -0.00000000000E+00 -0.00000000000E+00 -0.50614478171E+03  0.50614478171E+03  0.00000000000E+00 0.  1.
          6    2    1    2  502    0 -0.17636765498E+03  0.11821107315E+03 -0.31884468938E+03  0.41997430338E+03  0.17215420997E+03 0.  0.
         24    2    3    3    0    0 -0.17620290686E+03  0.46046067116E+02 -0.23124456157E+03  0.30637990373E+03  0.85011137344E+02 0.  0.
         -6    2    1    2    0  501  0.17636765498E+03 -0.11821107315E+03 -0.25651848798E+00  0.27321405217E+03  0.17194896034E+03 0.  0.
        -24    2    5    5    0    0  0.40101111469E+02 -0.58033350503E+02  0.47976711787E+02  0.11656647419E+03  0.79435565839E+02 0.  0.
          5    1    3    3  502    0 -0.16474812068E+00  0.72165006035E+02 -0.87600127809E+02  0.11359439964E+03  0.47000000000E+01 0. -1.
        -13    1    4    4    0    0 -0.52367951654E+02 -0.21648739000E+01 -0.12729966547E+03  0.13766733043E+03  0.00000000000E+00 0.  1.
         14    1    4    4    0    0 -0.12383495521E+03  0.48210941016E+02 -0.10394489610E+03  0.16871257330E+03  0.00000000000E+00 0. -1.
         -5    1    5    5    0  501  0.13626654351E+03 -0.60177722649E+02 -0.48233230275E+02  0.15664757798E+03  0.47000000000E+01 0.  1.
         13    1    6    6    0    0  0.59579227716E+01  0.19221676518E+02  0.17823086835E+02  0.26881817577E+02  0.00000000000E+00 0. -1.
        -14    1    6    6    0    0  0.34143188697E+02 -0.77255027021E+02  0.30153624952E+02  0.89684656616E+02  0.00000000000E+00 0.  1.
</event>
<event>
12    1  0.2685360E-002  0.1809619E+03  0.7818608E-02  0.1166875E+00
         -1   -1    0    0    0  501 -0.00000000000E+00  0.00000000000E+00  0.61264656773E+03  0.61264656773E+03  0.00000000000E+00 0. -1.
          1   -1    0    0  502    0  0.00000000000E+00 -0.00000000000E+00 -0.54394927101E+02  0.54394927101E+02  0.00000000000E+00 0.  1.
          6    2    1    2  502    0  0.27442131557E+02 -0.53226029380E+02  0.23429306786E+03  0.29566457371E+03  0.17011236790E+03 0.  0.
         24    2    3    3    0    0  0.75601932484E+02 -0.32479062718E+02  0.20257954958E+03  0.23420206243E+03  0.83914184914E+02 0.  0.
         -6    2    1    2    0  501 -0.27442131557E+02  0.53226029380E+02  0.32395857277E+03  0.37137692112E+03  0.17142222692E+03 0.  0.
        -24    2    5    5    0    0 -0.33488248620E+02  0.10104935144E+03  0.24206220003E+03  0.27623107764E+03  0.79856529766E+02 0.  0.
          5    1    3    3  502    0 -0.48159800927E+02 -0.20746966662E+02  0.31713518281E+02  0.61462511279E+02  0.47000000000E+01 0. -1.
        -11    1    4    4    0    0  0.22801667629E+02  0.20928496726E+02  0.20184306840E+02  0.36950294511E+02  0.00000000000E+00 0.  1.
         12    1    4    4    0    0  0.52800264856E+02 -0.53407559443E+02  0.18239524274E+03  0.19725176792E+03  0.00000000000E+00 0. -1.
         -5    1    5    5    0  501  0.60461170630E+01 -0.47823322060E+02  0.81896372737E+02  0.95145843482E+02  0.47000000000E+01 0.  1.
         13    1    6    6    0    0 -0.41348756430E+02  0.93725463469E+02  0.24460541162E+03  0.26519047787E+03  0.00000000000E+00 0. -1.
        -14    1    6    6    0    0  0.78605078098E+01  0.73238879707E+01 -0.25432115852E+01  0.11040599766E+02  0.00000000000E+00 0.  1.
</event>
<event>
12    1  0.2685360E-002  0.3580172E+03  0.7818608E-02  0.1059372E+00
         -2   -1    0    0    0  501 -0.00000000000E+00  0.00000000000E+00  0.75570694188E+02  0.75570694188E+02  0.00000000000E+00 0. -1.
          2   -1    0    0  502    0  0.00000000000E+00 -0.00000000000E+00 -0.18824770494E+04  0.18824770494E+04  0.00000000000E+00 0.  1.
          6    2    1    2  502    0  0.27307839708E+03 -0.15293439254E+03 -0.12099645980E+04  0.12616302146E+04  0.17244051314E+03 0.  0.
         24    2    3    3    0    0  0.53702654703E+02 -0.19424609104E+02 -0.40070131161E+03  0.41258384641E+03  0.80016239796E+02 0.  0.
         -6    2    1    2    0  501 -0.27307839708E+03  0.15293439254E+03 -0.59694175719E+03  0.69641752898E+03  0.17520608956E+03 0.  0.
        -24    2    5    5    0    0 -0.18931444537E+03  0.10115901312E+03 -0.26421614222E+03  0.34939373386E+03  0.78693750016E+02 0.  0.
          5    1    3    3  502    0  0.21937574237E+03 -0.13350978344E+03 -0.80926328637E+03  0.84904636816E+03  0.47000000000E+01 0. -1.
        -11    1    4    4    0    0  0.23182122226E+02 -0.32793025370E+02 -0.34747807598E+03  0.34979108992E+03  0.00000000000E+00 0.  1.
         12    1    4    4    0    0  0.30520532477E+02  0.13368416266E+02 -0.53223235636E+02  0.62792756491E+02  0.00000000000E+00 0. -1.
         -5    1    5    5    0  501 -0.83763951708E+02  0.51775379425E+02 -0.33272561497E+03  0.34702379512E+03  0.47000000000E+01 0.  1.
         11    1    6    6    0    0 -0.10819083336E+02  0.37058438052E+02 -0.52268370456E+02  0.64979711796E+02  0.00000000000E+00 0. -1.
        -12    1    6    6    0    0 -0.17849536203E+03  0.64100575064E+02 -0.21194777176E+03  0.28441402206E+03  0.00000000000E+00 0.  1.
</event>
<event>
12    1  0.2685360E-002  0.2786621E+03  0.7818608E-02  0.1096422E+00
          2   -1    0    0  502    0  0.00000000000E+00  0.00000000000E+00  0.73067501673E+03  0.73067501673E+03  0.00000000000E+00 0.  1.
         -2   -1    0    0    0  501 -0.00000000000E+00 -0.00000000000E+00 -0.10635301796E+03  0.10635301796E+03  0.00000000000E+00 0. -1.
          6    2    1    2  502    0 -0.60691172357E+02  0.21270359301E+03  0.30791094012E+03  0.41828242218E+03  0.17670540675E+03 0.  0.
         24    2    3    3    0    0  0.19633842268E+02  0.68397038665E+02  0.63407251291E+02  0.12318814325E+03  0.78046117530E+02 0.  0.
         -6    2    1    2    0  501  0.60691172357E+02 -0.21270359301E+03  0.31641105864E+03  0.41874561252E+03  0.16219029900E+03 0.  0.
        -24    2    5    5    0    0  0.72841833636E+02 -0.16825148500E+03  0.31437993794E+03  0.37237920305E+03  0.78848148699E+02 0.  0.
          5    1    3    3  502    0 -0.80325014625E+02  0.14430655434E+03  0.24450368883E+03  0.29509427892E+03  0.47000000000E+01 0. -1.
        -11    1    4    4    0    0 -0.26495434523E+01  0.63359412614E+02  0.74463907599E+02  0.97807508823E+02  0.00000000000E+00 0.  1.
         12    1    4    4    0    0  0.22283385720E+02  0.50376260510E+01 -0.11056656307E+02  0.25380634430E+02  0.00000000000E+00 0. -1.
         -5    1    5    5    0  501 -0.12150661279E+02 -0.44452108005E+02  0.20311207063E+01  0.46366409468E+02  0.47000000000E+01 0.  1.
         11    1    6    6    0    0  0.87371876362E+02 -0.14917770521E+03  0.25247280126E+03  0.30599076439E+03  0.00000000000E+00 0. -1.
        -12    1    6    6    0    0 -0.14530042726E+02 -0.19073779791E+02  0.61907136671E+02  0.66388438662E+02  0.00000000000E+00 0.  1.
</event>
<event>
12    1  0.2685360E-002  0.2308667E+03  0.7818608E-02  0.1126031E+00
         -2   -1    0    0    0  501 -0.00000000000E+00  0.00000000000E+00  0.14338065218E+03  0.14338065218E+03  0.00000000000E+00 0.  1.
          2   -1    0    0  502    0  0.00000000000E+00 -0.00000000000E+00 -0.49863574044E+03  0.49863574044E+03  0.00000000000E+00 0. -1.
          6    2    1    2  502    0  0.12525540663E+03 -0.87290866745E+02 -0.34050560690E+03  0.41232908729E+03  0.17539268965E+03 0.  0.
         24    2    3    3    0    0  0.34455579167E+02  0.16080235751E+02 -0.19837404297E+03  0.21445623679E+03  0.72065634358E+02 0.  0.
         -6    2    1    2    0  501 -0.12525540663E+03  0.87290866745E+02 -0.14749481348E+02  0.22968730533E+03  0.17096812195E+03 0.  0.
        -24    2    5    5    0    0 -0.36578312575E+02 -0.13778033410E+02 -0.32328579875E+02  0.94005087290E+02  0.79145512849E+02 0.  0.
          5    1    3    3  502    0  0.90799827459E+02 -0.10337110250E+03 -0.14213156393E+03  0.19787285050E+03  0.47000000000E+01 0. -1.
        -11    1    4    4    0    0  0.47949416187E+02  0.26446029204E+02 -0.94675060212E+02  0.10937049876E+03  0.00000000000E+00 0.  1.
         12    1    4    4    0    0 -0.13493837020E+02 -0.10365793453E+02 -0.10369898276E+03  0.10508573803E+03  0.00000000000E+00 0. -1.
         -5    1    5    5    0  501 -0.88677094051E+02  0.10106890015E+03  0.17579098527E+02  0.13568221804E+03  0.47000000000E+01 0.  1.
         11    1    6    6    0    0  0.11975469708E+02  0.14031353244E+02 -0.33271643650E+02  0.38043304533E+02  0.00000000000E+00 0. -1.
        -12    1    6    6    0    0 -0.48553782283E+02 -0.27809386653E+02  0.94306377533E+00  0.55961782757E+02  0.00000000000E+00 0.  1.
</event>
<event>
12    1  0.2685360E-002  0.1706466E+03  0.7818608E-02  0.1177175E+00
         -2   -1    0    0    0  501 -0.00000000000E+00  0.00000000000E+00  0.22987481703E+03  0.22987481703E+03  0.00000000000E+00 0.  1.
          2   -1    0    0  502    0  0.00000000000E+00 -0.00000000000E+00 -0.12749124642E+03  0.12749124642E+03  0.00000000000E+00 0. -1.
          6    2    1    2  502    0  0.24682983628E+02 -0.26577705423E+02  0.36401264245E+02  0.16996073069E+03  0.16200609196E+03 0.  0.
         24    2    3    3    0    0 -0.29118936416E+02 -0.19154012202E+02  0.64710022877E+02  0.10853407820E+03  0.79859066033E+02 0.  0.
         -6    2    1    2    0  501 -0.24682983628E+02  0.26577705423E+02  0.65982306359E+02  0.18740533276E+03  0.17161430561E+03 0.  0.
        -24    2    5    5    0    0 -0.16634863788E+02 -0.29258152545E+01 -0.31870630004E+02  0.84777280457E+02  0.76721386436E+02 0.  0.
          5    1    3    3  502    0  0.53801920044E+02 -0.74236932212E+01 -0.28308758632E+02  0.61426652495E+02  0.47000000000E+01 0. -1.
        -13    1    4    4    0    0 -0.30955305667E+02 -0.43522519555E+02  0.18973649181E+02  0.56678391126E+02  0.00000000000E+00 0.  1.
         14    1    4    4    0    0  0.18363692511E+01  0.24368507353E+02  0.45736373695E+02  0.51855687070E+02  0.00000000000E+00 0. -1.
         -5    1    5    5    0  501 -0.80481198398E+01  0.29503520678E+02  0.97852936362E+02  0.10262805231E+03  0.47000000000E+01 0.  1.
         11    1    6    6    0    0 -0.42344601600E+02 -0.12180882594E+02 -0.36308772238E+02  0.57094361603E+02  0.00000000000E+00 0. -1.
        -12    1    6    6    0    0  0.25709737811E+02  0.92550673392E+01  0.44381422347E+01  0.27682918854E+02  0.00000000000E+00 0.  1.
</event>
<event>
12    1  0.2685360E-002  0.2074643E+03  0.7818608E-02  0.1143590E+00
          2   -1    0    0  502    0  0.00000000000E+00  0.00000000000E+00  0.11843534810E+03  0.11843534810E+03  0.00000000000E+00 0. -1.
         -2   -1    0    0    0  501 -0.00000000000E+00 -0.00000000000E+00 -0.38531246876E+03  0.38531246876E+03  0.00000000000E+00 0.  1.
          6    2    1    2  502    0 -0.10396781125E+03 -0.50609874209E+02 -0.72897344034E+02  0.21911000807E+03  0.17124400055E+03 0.  0.
         24    2    3    3    0    0 -0.80128339980E+02 -0.95303895578E+02 -0.79223316703E+02  0.16784614295E+03  0.79953801751E+02 0.  0.
         -6    2    1    2    0  501  0.10396781125E+03  0.50609874209E+02 -0.19397977662E+03  0.28463780879E+03  0.17326241171E+03 0.  0.
        -24    2    5    5    0    0  0.11371996745E+03  0.69183343280E+02 -0.92224426215E+02  0.18063627207E+03  0.80034692547E+02 0.  0.
          5    1    3    3  502    0 -0.23839471267E+02  0.44694021369E+02  0.63259726683E+01  0.51263865116E+02  0.47000000000E+01 0. -1.
        -13    1    4    4    0    0 -0.23658769517E+02 -0.69094912346E+02 -0.76155308847E+02  0.10551528493E+03  0.00000000000E+00 0.  1.
         14    1    4    4    0    0 -0.56469570463E+02 -0.26208983232E+02 -0.30680078555E+01  0.62330858028E+02  0.00000000000E+00 0. -1.
         -5    1    5    5    0  501 -0.97521562042E+01 -0.18573469071E+02 -0.10175535041E+03  0.10400153672E+03  0.47000000000E+01 0.  1.
         13    1    6    6    0    0  0.86698745279E+02  0.12932624095E+02 -0.30366493218E+02  0.92768793834E+02  0.00000000000E+00 0. -1.
        -14    1    6    6    0    0  0.27021222172E+02  0.56250719184E+02 -0.61857932997E+02  0.87867478233E+02  0.00000000000E+00 0.  1.
</event>
<event>
12    1  0.2685360E-002  0.2081043E+03  0.7818608E-02  0.1143076E+00
          1   -1    0    0  502    0  0.00000000000E+00  0.00000000000E+00  0.19783983580E+04  0.19783983580E+04  0.00000000000E+00 0. -1.
         -1   -1    0    0    0  501 -0.00000000000E+00 -0.00000000000E+00 -0.28690553724E+02  0.28690553724E+02  0.00000000000E+00 0.  1.
          6    2    1    2  502    0  0.11515002761E+03  0.26073340891E+02  0.14634559637E+04  0.14781790970E+04  0.17137892880E+03 0.  0.
         24    2    3    3    0    0  0.72790232001E+02 -0.50036373875E+02  0.93730299671E+03  0.94484423445E+03  0.79947877721E+02 0.  0.
         -6    2    1    2    0  501 -0.11515002761E+03 -0.26073340891E+02  0.48625184060E+03  0.52890981472E+03  0.17136333229E+03 0.  0.
        -24    2    5    5    0    0 -0.13653692745E+03 -0.73643449665E+01  0.28681104561E+03  0.32740014567E+03  0.78953868601E+02 0.  0.
          5    1    3    3  502    0  0.42359795612E+02  0.76109714766E+02  0.52615296698E+03  0.53333486256E+03  0.47000000000E+01 0. -1.
        -11    1    4    4    0    0  0.11542828665E+02  0.86282766793E+01  0.27055479284E+02  0.30654249483E+02  0.00000000000E+00 0.  1.
         12    1    4    4    0    0  0.61247403336E+02 -0.58664650554E+02  0.91024751742E+03  0.91418998497E+03  0.00000000000E+00 0. -1.
         -5    1    5    5    0  501  0.21386899838E+02 -0.18708995925E+02  0.19944079500E+03  0.20150966905E+03  0.47000000000E+01 0.  1.
         13    1    6    6    0    0 -0.13578879416E+02  0.97967720314E+01  0.11051753807E+03  0.11177874990E+03  0.00000000000E+00 0. -1.
        -14    1    6    6    0    0 -0.12295804803E+03 -0.17161116998E+02  0.17629350754E+03  0.21562139577E+03  0.00000000000E+00 0.  1.
</event>
<event>
12    1  0.2685360E-002  0.2740962E+03  0.7818608E-02  0.1098958E+00
         -2   -1    0    0    0  501 -0.00000000000E+00  0.00000000000E+00  0.48834576834E+03  0.48834576834E+03  0.00000000000E+00 0.  1.
          2   -1    0    0  502    0  0.00000000000E+00 -0.00000000000E+00 -0.32377668908E+03  0.32377668908E+03  0.00000000000E+00 0. -1.
          6    2    1    2  502    0  0.71073407201E+02 -0.19909794500E+03 -0.21169522584E+03  0.34739709549E+03  0.17657421215E+03 0.  0.
         24    2    3    3    0    0 -0.24228270691E+02 -0.70701715002E+02 -0.12061384950E+03  0.16331583951E+03  0.80861740885E+02 0.  0.
         -6    2    1    2    0  501 -0.71073407201E+02  0.19909794500E+03  0.37626430511E+03  0.46472536193E+03  0.17234678357E+03 0.  0.
        -24    2    5    5    0    0 -0.21867886368E+02  0.17442340443E+02  0.14308278736E+03  0.16503276582E+03  0.77334921338E+02 0.  0.
          5    1    3    3  502    0  0.95301677893E+02 -0.12839623000E+03 -0.91081376341E+02  0.18408125598E+03  0.47000000000E+01 0. -1.
        -11    1    4    4    0    0 -0.42667751087E+02 -0.12725655713E+02 -0.28299556528E+02  0.52757408919E+02  0.00000000000E+00 0.  1.
         12    1    4    4    0    0  0.18439480396E+02 -0.57976059289E+02 -0.92314292975E+02  0.11055843059E+03  0.00000000000E+00 0. -1.
         -5    1    5    5    0  501 -0.49205520833E+02  0.18165560456E+03  0.23318151774E+03  0.29969259611E+03  0.47000000000E+01 0.  1.
         13    1    6    6    0    0  0.18867494808E+02  0.81297795690E+01  0.10953755404E+03  0.11144752766E+03  0.00000000000E+00 0. -1.
        -14    1    6    6    0    0 -0.40735381176E+02  0.93125608737E+01  0.33545233327E+02  0.53585238159E+02  0.00000000000E+00 0.  1.
</event>
<event>
12    1  0.2685360E-002  0.2145733E+03  0.7818608E-02  0.1137995E+00
          1   -1    0    0  502    0  0.00000000000E+00  0.00000000000E+00  0.75413178168E+03  0.75413178168E+03  0.00000000000E+00 0. -1.
         -1   -1    0    0    0  501 -0.00000000000E+00 -0.00000000000E+00 -0.67802713381E+02  0.67802713381E+02  0.00000000000E+00 0.  1.
          6    2    1    2  502    0 -0.34307717203E+02 -0.12605882524E+03  0.47409253764E+03  0.52075428342E+03  0.17132846400E+03 0.  0.
         24    2    3    3    0    0  0.38441532907E+02 -0.92325100322E+02  0.31939736891E+03  0.34644678841E+03  0.89493141259E+02 0.  0.
         -6    2    1    2    0  501  0.34307717203E+02  0.12605882524E+03  0.21223653066E+03  0.30118021164E+03  0.16910744530E+03 0.  0.
        -24    2    5    5    0    0  0.62631218052E+02  0.99902154490E+02  0.21957992579E+03  0.26165290997E+03  0.79647922406E+02 0.  0.
          5    1    3    3  502    0 -0.72749250110E+02 -0.33733724922E+02  0.15469516873E+03  0.17430749501E+03  0.47000000000E+01 0. -1.
        -11    1    4    4    0    0  0.47464041539E+02 -0.29589102432E+02  0.72633907427E+02  0.91673522514E+02  0.00000000000E+00 0.  1.
         12    1    4    4    0    0 -0.90225086324E+01 -0.62735997890E+02  0.24676346148E+03  0.25477326590E+03  0.00000000000E+00 0. -1.
         -5    1    5    5    0  501 -0.28323500850E+02  0.26156670754E+02 -0.73433951215E+01  0.39527301669E+02  0.47000000000E+01 0.  1.
         11    1    6    6    0    0  0.11193022250E+02 -0.76557501194E+01  0.65196147730E+02  0.66591530511E+02  0.00000000000E+00 0. -1.
        -12    1    6    6    0    0  0.51438195803E+02  0.10755790461E+03  0.15438377806E+03  0.19506137946E+03  0.00000000000E+00 0.  1.
</event>
<event>
12    1  0.2685360E-002  0.2471643E+03  0.7818608E-02  0.1115110E+00
         -2   -1    0    0    0  501 -0.00000000000E+00  0.00000000000E+00  0.11036379426E+03  0.11036379426E+03  0.00000000000E+00 0.  1.
          2   -1    0    0  502    0  0.00000000000E+00 -0.00000000000E+00 -0.61954617870E+03  0.61954617870E+03  0.00000000000E+00 0. -1.
          6    2    1    2  502    0  0.16837724435E+03  0.52241170440E+02 -0.13224492486E+03  0.27715047217E+03  0.16805840582E+03 0.  0.
         24    2    3    3    0    0  0.12882376133E+03  0.90926178717E+02 -0.57176903895E+02  0.18377860459E+03  0.75114883378E+02 0.  0.
         -6    2    1    2    0  501 -0.16837724435E+03 -0.52241170440E+02 -0.37693745958E+03  0.45275950079E+03  0.17840762544E+03 0.  0.
        -24    2    5    5    0    0 -0.45049688369E+02 -0.80004146537E+02 -0.21341852911E+03  0.24602053608E+03  0.80922788631E+02 0.  0.
          5    1    3    3  502    0  0.39553483023E+02 -0.38685008277E+02 -0.75068020963E+02  0.93371867583E+02  0.47000000000E+01 0. -1.
        -11    1    4    4    0    0  0.10612914551E+02 -0.70619966531E+01  0.99814865114E+01  0.16190609160E+02  0.00000000000E+00 0.  1.
         12    1    4    4    0    0  0.11821084678E+03  0.97988175371E+02 -0.67158390407E+02  0.16758799543E+03  0.00000000000E+00 0. -1.
         -5    1    5    5    0  501 -0.12332755598E+03  0.27762976097E+02 -0.16351893047E+03  0.20673896471E+03  0.47000000000E+01 0.  1.
         11    1    6    6    0    0 -0.48379841173E+02 -0.81549019828E+02 -0.12193592315E+03  0.15446430339E+03  0.00000000000E+00 0. -1.
        -12    1    6    6    0    0  0.33301528040E+01  0.15448732916E+01 -0.91482605961E+02  0.91556232691E+02  0.00000000000E+00 0.  1.
</event>
<event>
12    1  0.2685360E-002  0.1926459E+03  0.7818608E-02  0.1156096E+00
          2   -1    0    0  502    0  0.00000000000E+00  0.00000000000E+00  0.15242669868E+04  0.15242669868E+04  0.00000000000E+00 0. -1.
         -2   -1    0    0    0  501 -0.00000000000E+00 -0.00000000000E+00 -0.37842906548E+02  0.37842906548E+02  0.00000000000E+00 0.  1.
          6    2    1    2  502    0 -0.57984110546E+02  0.60181118790E+02  0.27912114110E+03  0.33967996733E+03  0.17461370125E+03 0.  0.
         24    2    3    3    0    0 -0.69568526950E+02 -0.11971199790E+02  0.11120134592E+03  0.15648798227E+03  0.84496506986E+02 0.  0.
         -6    2    1    2    0  501  0.57984110546E+02 -0.60181118790E+02  0.12073029391E+04  0.12224299260E+04  0.17254162685E+03 0.  0.
        -24    2    5    5    0    0 -0.15146458027E+02 -0.13147878500E+02  0.87552588504E+03  0.87941635575E+03  0.80157778654E+02 0.  0.
          5    1    3    3  502    0  0.11584416403E+02  0.72152318579E+02  0.16791979518E+03  0.18319198507E+03  0.47000000000E+01 0. -1.
        -11    1    4    4    0    0  0.10129624853E+02 -0.26722998830E+02  0.22846975030E+02  0.36588416666E+02  0.00000000000E+00 0.  1.
         12    1    4    4    0    0 -0.79698151802E+02  0.14751799040E+02  0.88354370891E+02  0.11989956560E+03  0.00000000000E+00 0. -1.
         -5    1    5    5    0  501  0.73130568573E+02 -0.47033240290E+02  0.33177705407E+03  0.34301357023E+03  0.47000000000E+01 0.  1.
         11    1    6    6    0    0  0.13153704065E+02  0.27699369316E+02  0.43937170927E+03  0.44044043173E+03  0.00000000000E+00 0. -1.
        -12    1    6    6    0    0 -0.28300162092E+02 -0.40847247816E+02  0.43615417577E+03  0.43897592402E+03  0.00000000000E+00 0.  1.
</event>
<event>
12    1  0.2685360E-002  0.2370176E+03  0.7818608E-02  0.1121796E+00
          3   -1    0    0  502    0  0.00000000000E+00  0.00000000000E+00  0.24051900705E+03  0.24051900705E+03  0.00000000000E+00 0. -1.
         -3   -1    0    0    0  501 -0.00000000000E+00 -0.00000000000E+00 -0.23949714044E+03  0.23949714044E+03  0.00000000000E+00 0.  1.
          6    2    1    2  502    0  0.76499157642E+02  0.14523879776E+03  0.38267991298E+02  0.23934200602E+03  0.16992270948E+03 0.  0.
         24    2    3    3    0    0  0.91775683601E+00  0.23840473887E+02  0.44854038641E+02  0.96109442666E+02  0.81583881463E+02 0.  0.
         -6    2    1    2    0  501 -0.76499157642E+02 -0.14523879776E+03 -0.37246124687E+02  0.24067414147E+03  0.17201842656E+03 0.  0.
        -24    2    5    5    0    0 -0.66850224905E+02 -0.41768560758E+02  0.31744700359E+02  0.11585020231E+03  0.78739939907E+02 0.  0.
          5    1    3    3  502    0  0.75581400806E+02  0.12139832387E+03 -0.65860473431E+01  0.14323256336E+03  0.47000000000E+01 0. -1.
        -11    1    4    4    0    0 -0.76441493093E+01  0.30062739249E+02 -0.15610241548E+02  0.34725796621E+02  0.00000000000E+00 0.  1.
         12    1    4    4    0    0  0.85619061453E+01 -0.62222653618E+01  0.60464280188E+02  0.61383646045E+02  0.00000000000E+00 0. -1.
         -5    1    5    5    0  501 -0.96489327372E+01 -0.10347023700E+03 -0.68990825047E+02  0.12482393916E+03  0.47000000000E+01 0.  1.
         11    1    6    6    0    0 -0.35162087174E+02 -0.35564244880E+02 -0.20809896558E+02  0.54168622680E+02  0.00000000000E+00 0. -1.
        -12    1    6    6    0    0 -0.31688137731E+02 -0.62043158780E+01  0.52554596918E+02  0.61681579629E+02  0.00000000000E+00 0.  1.
</event>
<event>
12    1  0.2685360E-002  0.1822563E+03  0.7818608E-02  0.1165637E+00
          2   -1    0    0  502    0  0.00000000000E+00  0.00000000000E+00  0.19615852183E+04  0.19615852183E+04  0.00000000000E+00 0.  1.
         -2   -1    0    0    0  501 -0.00000000000E+00 -0.00000000000E+00 -0.43367631266E+02  0.43367631266E+02  0.00000000000E+00 0. -1.
          6    2    1    2  502    0  0.55595838287E+02  0.16497056269E+02  0.17444508625E+03  0.25157888984E+03  0.17174923463E+03 0.  0.
         24    2    3    3    0    0  0.33523153781E+01  0.68290527152E+02  0.88292142814E+02  0.13819296049E+03  0.81406128326E+02 0.  0.
         -6    2    1    2    0  501 -0.55595838287E+02 -0.16497056269E+02  0.17437725008E+04  0.17533739597E+04  0.17382364067E+03 0.  0.
        -24    2    5    5    0    0 -0.52122050708E+02 -0.51549114873E+02  0.16404427807E+04  0.16441044074E+04  0.81564491454E+02 0.  0.
          5    1    3    3  502    0  0.52243522909E+02 -0.51793470882E+02  0.86152943440E+02  0.11338592935E+03  0.47000000000E+01 0. -1.
        -13    1    4    4    0    0 -0.36888468198E+02  0.43125348208E+02  0.34318737977E+02  0.66319910437E+02  0.00000000000E+00 0.  1.
         14    1    4    4    0    0  0.40240783576E+02  0.25165178944E+02  0.53973404837E+02  0.71873050052E+02  0.00000000000E+00 0. -1.
         -5    1    5    5    0  501 -0.34737875784E+01  0.35052058604E+02  0.10332972003E+03  0.10926955228E+03  0.47000000000E+01 0.  1.
         11    1    6    6    0    0 -0.13564227573E+02 -0.56680281274E+01  0.41289625036E+02  0.43828620194E+02  0.00000000000E+00 0. -1.
        -12    1    6    6    0    0 -0.38557823135E+02 -0.45881086746E+02  0.15991531557E+04  0.16002757872E+04  0.00000000000E+00 0.  1.
</event>
<event>
12    1  0.2685360E-002  0.2030304E+03  0.7818608E-02  0.1147207E+00
          4   -1    0    0  502    0  0.00000000000E+00  0.00000000000E+00  0.13858709893E+03  0.13858709893E+03  0.00000000000E+00 0. -1.
         -4   -1    0    0    0  501 -0.00000000000E+00 -0.00000000000E+00 -0.30766261477E+03  0.30766261477E+03  0.00000000000E+00 0.  1.
          6    2    1    2  502    0  0.38615368433E+02 -0.10146033816E+03 -0.43755349567E+02  0.20741977297E+03  0.17123984555E+03 0.  0.
         24    2    3    3    0    0  0.27770199847E+02  0.77718363078E+01 -0.47432153041E+02  0.97488455755E+02  0.80141153126E+02 0.  0.
         -6    2    1    2    0  501 -0.38615368433E+02  0.10146033816E+03 -0.12532016627E+03  0.23882994074E+03  0.17189895176E+03 0.  0.
        -24    2    5    5    0    0  0.19601263735E+02  0.86255250759E+02 -0.46963011320E+02  0.13992440663E+03  0.97719687450E+02 0.  0.
          5    1    3    3  502    0  0.10845168586E+02 -0.10923217447E+03  0.36768034738E+01  0.10993131722E+03  0.47000000000E+01 0. -1.
        -13    1    4    4    0    0 -0.18207340376E+02 -0.95525701390E+01 -0.43601320540E+02  0.48206161355E+02  0.00000000000E+00 0.  1.
         14    1    4    4    0    0  0.45977540223E+02  0.17324406447E+02 -0.38308325010E+01  0.49282294400E+02  0.00000000000E+00 0. -1.
         -5    1    5    5    0  501 -0.58216632168E+02  0.15205087403E+02 -0.78357154955E+02  0.98905534105E+02  0.47000000000E+01 0.  1.
         11    1    6    6    0    0  0.13542111944E+01 -0.10355034502E+02  0.18893543845E+02  0.21587649861E+02  0.00000000000E+00 0. -1.
        -12    1    6    6    0    0  0.18247052540E+02  0.96610285262E+02 -0.65856555165E+02  0.11833675677E+03  0.00000000000E+00 0.  1.
</event>
<event>
12    1  0.2685360E-002  0.1713792E+03  0.7818608E-02  0.1176417E+00
          1   -1    0    0  502    0  0.00000000000E+00  0.00000000000E+00  0.38626006397E+03  0.38626006397E+03  0.00000000000E+00 0. -1.
         -1   -1    0    0    0  501 -0.00000000000E+00 -0.00000000000E+00 -0.77549277739E+02  0.77549277739E+02  0.00000000000E+00 0.  1.
          6    2    1    2  502    0  0.49061981625E+00 -0.21925089246E+02  0.18991506464E+03  0.25866552816E+03  0.17423884021E+03 0.  0.
         24    2    3    3    0    0  0.55837606954E+02  0.28840720539E+02  0.11619623506E+03  0.15332317077E+03  0.77825472306E+02 0.  0.
         -6    2    1    2    0  501 -0.49061981625E+00  0.21925089246E+02  0.11879572159E+03  0.20514381354E+03  0.16580292675E+03 0.  0.
        -24    2    5    5    0    0  0.26602829632E+02  0.25649540965E+02  0.14336820940E+03  0.16807868572E+03  0.79563758276E+02 0.  0.
          5    1    3    3  502    0 -0.55346987137E+02 -0.50765809785E+02  0.73718829572E+02  0.10534235740E+03  0.47000000000E+01 0. -1.
        -13    1    4    4    0    0  0.26058910501E+02 -0.36606407996E+01 -0.27630023722E+01  0.26459427236E+02  0.00000000000E+00 0.  1.
         14    1    4    4    0    0  0.29778696452E+02  0.32501361338E+02  0.11895923744E+03  0.12686374353E+03  0.00000000000E+00 0. -1.
         -5    1    5    5    0  501 -0.27093449448E+02 -0.37244517194E+01 -0.24572487806E+02  0.37065127824E+02  0.47000000000E+01 0.  1.
         13    1    6    6    0    0  0.14164306675E+02  0.46989960702E+02  0.44760410751E+02  0.66424230225E+02  0.00000000000E+00 0. -1.
        -14    1    6    6    0    0  0.12438522957E+02 -0.21340419737E+02  0.98607798645E+02  0.10165445549E+03  0.00000000000E+00 0.  1.
</event>
<event>
12    1  0.2685360E-002  0.1771613E+03  0.7818608E-02  0.1170579E+00
          1   -1    0    0  502    0  0.00000000000E+00  0.00000000000E+00  0.14607661476E+04  0.14607661476E+04  0.00000000000E+00 0. -1.
         -1   -1    0    0    0  501 -0.00000000000E+00 -0.00000000000E+00 -0.25015581903E+02  0.25015581903E+02  0.00000000000E+00 0.  1.
          6    2    1    2  502    0  0.20308177178E+02 -0.40510816209E+02  0.43637311986E+03  0.47069850667E+03  0.17053455999E+03 0.  0.
         24    2    3    3    0    0  0.43784429970E+02 -0.85631611350E+02  0.31762835211E+03  0.34143354441E+03  0.80244912693E+02 0.  0.
         -6    2    1    2    0  501 -0.20308177178E+02  0.40510816209E+02  0.99937744585E+03  0.10150832229E+04  0.17200326087E+03 0.  0.
        -24    2    5    5    0    0 -0.17138429057E+02 -0.12705004853E+02  0.23676581568E+03  0.25059610106E+03  0.79279325758E+02 0.  0.
          5    1    3    3  502    0 -0.23476252792E+02  0.45120795141E+02  0.11874476776E+03  0.12926496226E+03  0.47000000000E+01 0. -1.
        -11    1    4    4    0    0 -0.18172054763E+02 -0.39156902256E+01  0.23640734428E+02  0.30073917745E+02  0.00000000000E+00 0.  1.
         12    1    4    4    0    0  0.61956484733E+02 -0.81715921125E+02  0.29398761768E+03  0.31135962666E+03  0.00000000000E+00 0. -1.
         -5    1    5    5    0  501 -0.31697481218E+01  0.53215821062E+02  0.76261163017E+03  0.76448712179E+03  0.47000000000E+01 0.  1.
         13    1    6    6    0    0 -0.33780547473E+02 -0.29779536287E+02  0.20989716733E+03  0.21467362908E+03  0.00000000000E+00 0. -1.
        -14    1    6    6    0    0  0.16642118416E+02  0.17074531433E+02  0.26868648355E+02  0.35922471984E+02  0.00000000000E+00 0.  1.
</event>
<event>
12    1  0.2685360E-002  0.1802737E+03  0.7818608E-02  0.1167538E+00
          2   -1    0    0  502    0  0.00000000000E+00  0.00000000000E+00  0.17699579948E+04  0.17699579948E+04  0.00000000000E+00 0. -1.
         -2   -1    0    0    0  501 -0.00000000000E+00 -0.00000000000E+00 -0.18669898356E+02  0.18669898356E+02  0.00000000000E+00 0.  1.
          6    2    1    2  502    0  0.57980414073E+02  0.11994695409E+02  0.99353176164E+03  0.10098644972E+04  0.17092495485E+03 0.  0.
         24    2    3    3    0    0  0.44056380218E+02  0.29405941815E+02  0.27787085604E+03  0.29384099757E+03  0.79527637748E+02 0.  0.
         -6    2    1    2    0  501 -0.57980414073E+02 -0.11994695409E+02  0.75775633484E+03  0.77876339599E+03  0.16962359154E+03 0.  0.
        -24    2    5    5    0    0 -0.90408181985E+02 -0.23512838778E+02  0.70459431239E+03  0.71526128272E+03  0.80119064840E+02 0.  0.
          5    1    3    3  502    0  0.13924033855E+02 -0.17411246407E+02  0.71566090561E+03  0.71602349964E+03  0.47000000000E+01 0. -1.
        -11    1    4    4    0    0 -0.17296616669E+02 -0.25701854798E+01  0.18732479149E+02  0.25625857579E+02  0.00000000000E+00 0.  1.
         12    1    4    4    0    0  0.61352996887E+02  0.31976127295E+02  0.25913837689E+03  0.26821513999E+03  0.00000000000E+00 0. -1.
         -5    1    5    5    0  501  0.32427767912E+02  0.11518143369E+02  0.53162022453E+02  0.63502113270E+02  0.47000000000E+01 0.  1.
         11    1    6    6    0    0 -0.67512435927E+02 -0.16779780454E+02  0.66774437090E+03  0.67135835059E+03  0.00000000000E+00 0. -1.
        -12    1    6    6    0    0 -0.22895746059E+02 -0.67330583234E+01  0.36849941486E+02  0.43902932128E+02  0.00000000000E+00 0.  1.
</event>
<event>
12    1  0.2685360E-002  0.1724213E+03  0.7818608E-02  0.1175346E+00
          1   -1    0    0  502    0  0.00000000000E+00  0.00000000000E+00  0.32609721611E+03  0.32609721611E+03  0.00000000000E+00 0.  1.
         -1   -1    0    0    0  501 -0.00000000000E+00 -0.00000000000E+00 -0.93936631167E+02  0.93936631167E+02  0.00000000000E+00 0. -1.
          6    2    1    2  502    0  0.11347417774E+02 -0.94321209696E+00  0.79534566323E+02  0.18919983788E+03  0.17129266731E+03 0.  0.
         24    2    3    3    0    0 -0.18737888170E+02  0.28504213735E+02  0.10814036317E+03  0.13808567022E+03  0.78801748209E+02 0.  0.
         -6    2    1    2    0  501 -0.11347417774E+02  0.94321209696E+00  0.15262601861E+03  0.23083400940E+03  0.17280041897E+03 0.  0.
        -24    2    5    5    0    0  0.35178736046E+02 -0.54144073634E+02  0.93454027408E+02  0.13743857813E+03  0.77373014287E+02 0.  0.
          5    1    3    3  502    0  0.30085305944E+02 -0.29447425832E+02 -0.28605796845E+02  0.51114167654E+02  0.47000000000E+01 0. -1.
        -11    1    4    4    0    0  0.21349476300E+02 -0.13429261959E+02  0.49739073597E+02  0.55768455756E+02  0.00000000000E+00 0.  1.
         12    1    4    4    0    0 -0.40087364470E+02  0.41933475694E+02  0.58401289571E+02  0.82317214466E+02  0.00000000000E+00 0. -1.
         -5    1    5    5    0  501 -0.46526153820E+02  0.55087285731E+02  0.59171991207E+02  0.93395431268E+02  0.47000000000E+01 0.  1.
         11    1    6    6    0    0  0.46168699341E+01  0.70742559574E+01 -0.10196116263E+02  0.13240897711E+02  0.00000000000E+00 0. -1.
        -12    1    6    6    0    0  0.30561866112E+02 -0.61218329591E+02  0.10365014367E+03  0.12419768042E+03  0.00000000000E+00 0.  1.
</event>
<event>
12    1  0.2685360E-002  0.1975927E+03  0.7818608E-02  0.1151786E+00
          1   -1    0    0  502    0  0.00000000000E+00  0.00000000000E+00  0.56690007707E+02  0.56690007707E+02  0.00000000000E+00 0. -1.
         -1   -1    0    0    0  501 -0.00000000000E+00 -0.00000000000E+00 -0.12185271457E+04  0.12185271457E+04  0.00000000000E+00 0.  1.
          6    2    1    2  502    0  0.88972672417E+02 -0.28059244344E+02 -0.16042367420E+03  0.25448912390E+03  0.17414218706E+03 0.  0.
         24    2    3    3    0    0  0.15349905484E+02  0.42149942363E+02 -0.53318279381E+02  0.10669434285E+03  0.80799793564E+02 0.  0.
         -6    2    1    2    0  501 -0.88972672417E+02  0.28059244344E+02 -0.10014134638E+04  0.10207280295E+04  0.17422206264E+03 0.  0.
        -24    2    5    5    0    0 -0.43219044550E+02 -0.39961773120E+02 -0.34309197708E+03  0.35730544686E+03  0.80562078556E+02 0.  0.
          5    1    3    3  502    0  0.73622766932E+02 -0.70209186707E+02 -0.10710539482E+03  0.14779478106E+03  0.47000000000E+01 0. -1.
        -13    1    4    4    0    0  0.14425021178E+02  0.64135447376E+02 -0.53393208752E+02  0.84689264886E+02  0.00000000000E+00 0.  1.
         14    1    4    4    0    0  0.92488430614E+00 -0.21985505013E+02  0.74929370456E-01  0.22005077961E+02  0.00000000000E+00 0. -1.
         -5    1    5    5    0  501 -0.45753627867E+02  0.68021017464E+02 -0.65832148675E+03  0.66342258267E+03  0.47000000000E+01 0.  1.
         13    1    6    6    0    0 -0.44254801520E+02 -0.32366412559E+02 -0.99606114027E+02  0.11369894490E+03  0.00000000000E+00 0. -1.
        -14    1    6    6    0    0  0.10357569702E+01 -0.75953605612E+01 -0.24348586305E+03  0.24360650197E+03  0.00000000000E+00 0.  1.
</event>
<event>
12    1  0.2685360E-002  0.1851502E+03  0.7818608E-02  0.1162910E+00
         -1   -1    0    0    0  501 -0.00000000000E+00  0.00000000000E+00  0.69726102074E+02  0.69726102074E+02  0.00000000000E+00 0.  1.
          1   -1    0    0  502    0  0.00000000000E+00 -0.00000000000E+00 -0.49468719144E+03  0.49468719144E+03  0.00000000000E+00 0. -1.
          6    2    1    2  502    0 -0.13789892045E+02  0.62044982450E+02 -0.23460836322E+03  0.29886852881E+03  0.17390104213E+03 0.  0.
         24    2    3    3    0    0 -0.13977930539E+02  0.48289247326E+02 -0.39829154215E+02  0.10354754718E+03  0.81292675263E+02 0.  0.
         -6    2    1    2    0  501  0.13789892045E+02 -0.62044982450E+02 -0.19035272615E+03  0.26554476470E+03  0.17389686811E+03 0.  0.
        -24    2    5    5    0    0 -0.30811177458E+02 -0.88487986364E+02 -0.89167642727E+02  0.15175109632E+03  0.79360407873E+02 0.  0.
          5    1    3    3  502    0  0.18803849416E+00  0.13755735123E+02 -0.19477920900E+03  0.19532098164E+03  0.47000000000E+01 0. -1.
        -11    1    4    4    0    0 -0.46872328040E+02  0.40089249980E+02 -0.25375155200E+02  0.66693789825E+02  0.00000000000E+00 0.  1.
         12    1    4    4    0    0  0.32894397501E+02  0.81999973467E+01 -0.14453999015E+02  0.36853757352E+02  0.00000000000E+00 0. -1.
         -5    1    5    5    0  501  0.44601069503E+02  0.26443003914E+02 -0.10118508342E+03  0.11379366838E+03  0.47000000000E+01 0.  1.
         13    1    6    6    0    0 -0.34183643274E+02 -0.58719331908E+02 -0.99129134733E+02  0.12017931087E+03  0.00000000000E+00 0. -1.
        -14    1    6    6    0    0  0.33724658162E+01 -0.29768654456E+02  0.99614920062E+01  0.31571785455E+02  0.00000000000E+00 0.  1.
</event>
<event>
12    1  0.2685360E-002  0.1848186E+03  0.7818608E-02  0.1163219E+00
          1   -1    0    0  502    0  0.00000000000E+00  0.00000000000E+00  0.11655035620E+04  0.11655035620E+04  0.00000000000E+00 0. -1.
         -1   -1    0    0    0  501 -0.00000000000E+00 -0.00000000000E+00 -0.29464774433E+02  0.29464774433E+02  0.00000000000E+00 0.  1.
          6    2    1    2  502    0  0.65310926882E+02  0.21078153613E+02  0.52467082540E+03  0.55630494972E+03  0.17171463633E+03 0.  0.
         24    2    3    3    0    0  0.39072522671E+02 -0.44221295020E+02  0.20348421603E+03  0.22746547538E+03  0.82780017852E+02 0.  0.
         -6    2    1    2    0  501 -0.65310926882E+02 -0.21078153613E+02  0.61136796213E+03  0.63866338667E+03  0.17149440407E+03 0.  0.
        -24    2    5    5    0    0 -0.88914519358E+02 -0.60186238522E+02  0.39251492726E+03  0.41504470956E+03  0.81645378005E+02 0.  0.
          5    1    3    3  502    0  0.26238404211E+02  0.65299448632E+02  0.32118660937E+03  0.32883947434E+03  0.47000000000E+01 0. -1.
        -11    1    4    4    0    0  0.31887474931E+02 -0.80045044957E+01  0.16339560821E+02  0.36713272771E+02  0.00000000000E+00 0.  1.
         12    1    4    4    0    0  0.71850477393E+01 -0.36216790524E+02  0.18714465521E+03  0.19075220261E+03  0.00000000000E+00 0. -1.
         -5    1    5    5    0  501  0.23603592476E+02  0.39108084909E+02  0.21885303486E+03  0.22361867711E+03  0.47000000000E+01 0.  1.
         11    1    6    6    0    0 -0.66866002640E+02 -0.36298378509E+02  0.36379980916E+03  0.37167046659E+03  0.00000000000E+00 0. -1.
        -12    1    6    6    0    0 -0.22048516718E+02 -0.23887860013E+02  0.28715118103E+02  0.43374242969E+02  0.00000000000E+00 0.  1.
</event>
