<event>
12    1  0.8449700E-002  0.1734984E+03  0.7818608E-02  0.1175296E+00
         21   -1    0    0  503  502  0.00000000000E+00  0.00000000000E+00  0.54809721013E+02  0.54809721013E+02  0.00000000000E+00 0.  1.
         21   -1    0    0  501  503 -0.00000000000E+00 -0.00000000000E+00 -0.60253359962E+03  0.60253359962E+03  0.00000000000E+00 0.  1.
          6    2    1    2  501    0 -0.22874377239E+02 -0.14295043438E+01 -0.38566101231E+03  0.42289019842E+03  0.17197797211E+03 0.  0.
         24    2    3    3    0    0 -0.15206751087E+02  0.42880246143E+02 -0.10628532017E+03  0.13987957347E+03  0.78738586488E+02 0.  0.
         -6    2    1    2    0  502  0.22874377239E+02  0.14295043438E+01 -0.16206286630E+03  0.23445312222E+03  0.16786486608E+03 0.  0.
        -24    2    5    5    0    0  0.54602888649E+02  0.87511359595E+01 -0.25309363481E+02  0.93797815667E+02  0.71410142940E+02 0.  0.
          5    1    3    3  501    0 -0.76676261517E+01 -0.44309750487E+02 -0.27937569214E+03  0.28301062496E+03  0.47000000000E+01 0. -1.
        -13    1    4    4    0    0  0.23987194794E+01  0.36192130612E+02 -0.11392218014E+03  0.11955704622E+03  0.00000000000E+00 0.  1.
         14    1    4    4    0    0 -0.17605470566E+02  0.66881155309E+01  0.76368599759E+01  0.20322527242E+02  0.00000000000E+00 0. -1.
         -5    1    5    5    0  502 -0.31728511410E+02 -0.73216316157E+01 -0.13675350282E+03  0.14065530655E+03  0.47000000000E+01 0.  1.
         13    1    6    6    0    0  0.50618831340E+02  0.35857018684E+02 -0.11396122948E+02  0.63070305956E+02  0.00000000000E+00 0. -1.
        -14    1    6    6    0    0  0.39840573086E+01 -0.27105882725E+02 -0.13913240533E+02  0.30727509711E+02  0.00000000000E+00 0.  1.
</event>
<event>
12    1  0.8449700E-002  0.2617010E+03  0.7818608E-02  0.1106257E+00
         21   -1    0    0  503  502  0.00000000000E+00  0.00000000000E+00  0.56023757618E+02  0.56023757618E+02  0.00000000000E+00 0.  1.
         21   -1    0    0  501  503 -0.00000000000E+00 -0.00000000000E+00 -0.14951352495E+04  0.14951352495E+04  0.00000000000E+00 0.  1.
          6    2    1    2  501    0 -0.18655660672E+03  0.61032117948E+02 -0.10542473832E+04  0.10862435079E+04  0.17308704908E+03 0.  0.
         24    2    3    3    0    0 -0.14893260358E+03  0.10647545177E+03 -0.73358020934E+03  0.76016040716E+03  0.78650993930E+02 0.  0.
         -6    2    1    2    0  502  0.18655660672E+03 -0.61032117948E+02 -0.38486410871E+03  0.46491549923E+03  0.17174909700E+03 0.  0.
        -24    2    5    5    0    0  0.14567094015E+03  0.77146107132E+01 -0.17393958939E+03  0.23928528565E+03  0.75650043934E+02 0.  0.
          5    1    3    3  501    0 -0.37624003139E+02 -0.45443333821E+02 -0.32066717382E+03  0.32608310070E+03  0.47000000000E+01 0. -1.
        -11    1    4    4    0    0 -0.84722511293E+02  0.10220032426E+03 -0.54369830783E+03  0.55967013511E+03  0.00000000000E+00 0.  1.
         12    1    4    4    0    0 -0.64210092291E+02  0.42751275139E+01 -0.18988190151E+03  0.20049027205E+03  0.00000000000E+00 0. -1.
         -5    1    5    5    0  502  0.40885666573E+02 -0.68746728662E+02 -0.21092451932E+03  0.22563021359E+03  0.47000000000E+01 0.  1.
         11    1    6    6    0    0  0.17763468247E+02  0.14626906128E+02  0.31795917026E+00  0.23012785252E+02  0.00000000000E+00 0. -1.
        -12    1    6    6    0    0  0.12790747190E+03 -0.69122954150E+01 -0.17425754856E+03  0.21627250039E+03  0.00000000000E+00 0.  1.
</event>
<event>
12    1  0.8449700E-002  0.2081496E+03  0.7818608E-02  0.1143302E+00
         21   -1    0    0  501  502  0.00000000000E+00  0.00000000000E+00  0.26251297278E+03  0.26251297278E+03  0.00000000000E+00 0. -1.
         21   -1    0    0  502  503 -0.00000000000E+00 -0.00000000000E+00 -0.23966437279E+03  0.23966437279E+03  0.00000000000E+00 0. -1.
         -6    2    1    2    0  503 -0.30050473566E+01 -0.11581873423E+03 -0.12962344613E+03  0.24521113426E+03  0.17292557090E+03 0.  0.
        -24    2    3    3    0    0 -0.49715359976E+02 -0.50445622808E+02 -0.12576524248E+03  0.16463525240E+03  0.79192753711E+02 0.  0.
          6    2    1    2  501    0  0.30050473566E+01  0.11581873423E+03  0.15247204612E+03  0.25696621130E+03  0.17135022438E+03 0.  0.
         24    2    5    5    0    0 -0.53389482648E+02  0.56546861000E+02  0.45562343048E+02  0.12226182169E+03  0.82607757456E+02 0.  0.
          5    1    5    5  501    0  0.56394530004E+02  0.59271873234E+02  0.10690970307E+03  0.13470438962E+03  0.47000000000E+01 0. -1.
        -13    1    6    6    0    0 -0.29060009414E+01 -0.12862264744E+02 -0.12875033887E+02  0.18429573880E+02  0.00000000000E+00 0.  1.
         14    1    6    6    0    0 -0.50483481706E+02  0.69409125743E+02  0.58437376935E+02  0.10383224781E+03  0.00000000000E+00 0. -1.
         -5    1    3    3    0  503  0.46710312619E+02 -0.65373111425E+02 -0.38582036573E+01  0.80575881862E+02  0.47000000000E+01 0.  1.
         13    1    4    4    0    0 -0.41178833795E+02 -0.47055084475E+02 -0.31668307839E+02  0.70091076814E+02  0.00000000000E+00 0. -1.
        -14    1    4    4    0    0 -0.85365261811E+01 -0.33905383331E+01 -0.94096934637E+02  0.94544175587E+02  0.00000000000E+00 0.  1.
</event>
<event>
12    1  0.8449700E-002  0.1821229E+03  0.7818608E-02  0.1166093E+00
         21   -1    0    0  501  502  0.00000000000E+00  0.00000000000E+00  0.87135362517E+02  0.87135362517E+02  0.00000000000E+00 0.  1.
         21   -1    0    0  502  503 -0.00000000000E+00 -0.00000000000E+00 -0.40705602053E+03  0.40705602053E+03  0.00000000000E+00 0.  1.
         -6    2    1    2    0  503  0.38499243561E+02  0.42716303040E+02 -0.22565371703E+03  0.28911819472E+03  0.17135593426E+03 0.  0.
        -24    2    3    3    0    0 -0.17568761055E+02  0.50301077815E+02 -0.64603249192E+02  0.11835375714E+03  0.83637146226E+02 0.  0.
          6    2    1    2  501    0 -0.38499243561E+02 -0.42716303040E+02 -0.94266940979E+02  0.20507318833E+03  0.17280590878E+03 0.  0.
         24    2    5    5    0    0  0.33009224078E+02 -0.48802743047E+02 -0.88500772873E+02  0.13292165064E+03  0.79777577090E+02 0.  0.
          5    1    5    5  501    0 -0.71508467639E+02  0.60864400065E+01 -0.57661681060E+01  0.72151537687E+02  0.47000000000E+01 0. -1.
        -13    1    6    6    0    0 -0.48662777506E+01  0.10341414542E+02  0.77224901735E+01  0.13793562570E+02  0.00000000000E+00 0.  1.
         14    1    6    6    0    0  0.37875501828E+02 -0.59144157589E+02 -0.96223263046E+02  0.11912808807E+03  0.00000000000E+00 0. -1.
         -5    1    3    3    0  503  0.56068004616E+02 -0.75847747749E+01 -0.16105046784E+03  0.17076443758E+03  0.47000000000E+01 0.  1.
         13    1    4    4    0    0  0.22908487617E+02  0.32582713863E+02 -0.62507179159E+02  0.74118685188E+02  0.00000000000E+00 0. -1.
        -14    1    4    4    0    0 -0.40477248672E+02  0.17718363952E+02 -0.20960700337E+01  0.44235071954E+02  0.00000000000E+00 0.  1.
</event>
<event>
12    1  0.8449700E-002  0.3328915E+03  0.7818608E-02  0.1069971E+00
         21   -1    0    0  503  502  0.00000000000E+00  0.00000000000E+00  0.65412685485E+03  0.65412685485E+03  0.00000000000E+00 0.  1.
         21   -1    0    0  501  503 -0.00000000000E+00 -0.00000000000E+00 -0.24569657147E+03  0.24569657147E+03  0.00000000000E+00 0.  1.
          6    2    1    2  501    0 -0.27469873720E+03  0.75087942213E+02  0.45551641949E+03  0.56361833854E+03  0.17050755945E+03 0.  0.
         24    2    3    3    0    0 -0.28515353239E+03  0.79743192259E+02  0.45800321059E+03  0.55099897939E+03  0.78494717195E+02 0.  0.
         -6    2    1    2    0  502  0.27469873720E+03 -0.75087942213E+02 -0.47086136111E+02  0.33620508777E+03  0.17239246371E+03 0.  0.
        -24    2    5    5    0    0  0.13893652853E+03  0.27294858715E+02 -0.34183233477E+02  0.16561144743E+03  0.78805391927E+02 0.  0.
          5    1    3    3  501    0  0.10454795190E+02 -0.46552500460E+01 -0.24867911019E+01  0.12619359153E+02  0.47000000000E+01 0. -1.
        -11    1    4    4    0    0 -0.16608631612E+03  0.16135095365E+02  0.29907554091E+03  0.34247800641E+03  0.00000000000E+00 0.  1.
         12    1    4    4    0    0 -0.11906721627E+03  0.63608096894E+02  0.15892766969E+03  0.20852097298E+03  0.00000000000E+00 0. -1.
         -5    1    5    5    0  502  0.13576220868E+03 -0.10238280093E+03 -0.12902902634E+02  0.17059364035E+03  0.47000000000E+01 0.  1.
         11    1    6    6    0    0  0.97857445510E+02  0.23029884453E+02  0.14719112206E+02  0.10160269427E+03  0.00000000000E+00 0. -1.
        -12    1    6    6    0    0  0.41079083018E+02  0.42649742615E+01 -0.48902345683E+02  0.64008753154E+02  0.00000000000E+00 0.  1.
</event>
<event>
12    1  0.8449700E-002  0.2014194E+03  0.7818608E-02  0.1148618E+00
         21   -1    0    0  501  502  0.00000000000E+00  0.00000000000E+00  0.11724666026E+04  0.11724666026E+04  0.00000000000E+00 0. -1.
         21   -1    0    0  502  503 -0.00000000000E+00 -0.00000000000E+00 -0.34769951792E+02  0.34769951792E+02  0.00000000000E+00 0. -1.
         -6    2    1    2    0  503  0.71771345224E+02  0.73868103345E+02  0.52067334454E+03  0.55827458962E+03  0.17309582032E+03 0.  0.
        -24    2    3    3    0    0  0.10423718662E+03  0.93190625744E+02  0.38075563191E+03  0.41326959992E+03  0.79164557645E+02 0.  0.
          6    2    1    2  501    0 -0.71771345224E+02 -0.73868103345E+02  0.61702330628E+03  0.64896196479E+03  0.17270277520E+03 0.  0.
         24    2    5    5    0    0 -0.92118078034E+01  0.12002288302E+02  0.39435518578E+03  0.40220175371E+03  0.77597202322E+02 0.  0.
          5    1    5    5  501    0 -0.62559537420E+02 -0.85870391647E+02  0.22266812050E+03  0.24676021108E+03  0.47000000000E+01 0. -1.
        -11    1    6    6    0    0 -0.31117756721E+02  0.30542287842E+02  0.15127666107E+03  0.15743498441E+03  0.00000000000E+00 0.  1.
         12    1    6    6    0    0  0.21905948918E+02 -0.18539999540E+02  0.24307852471E+03  0.24476676931E+03  0.00000000000E+00 0. -1.
         -5    1    3    3    0  503 -0.32465841394E+02 -0.19322522399E+02  0.13991771263E+03  0.14500498970E+03  0.47000000000E+01 0.  1.
         13    1    4    4    0    0  0.26738730242E+02  0.39201612323E+02  0.23388761722E+03  0.23865276783E+03  0.00000000000E+00 0. -1.
        -14    1    4    4    0    0  0.77498456377E+02  0.53989013422E+02  0.14686801469E+03  0.17461683209E+03  0.00000000000E+00 0.  1.
</event>
<event>
12    1  0.8449700E-002  0.2174731E+03  0.7818608E-02  0.1135810E+00
         21   -1    0    0  503  502  0.00000000000E+00  0.00000000000E+00  0.18500062086E+03  0.18500062086E+03  0.00000000000E+00 0.  1.
         21   -1    0    0  501  503 -0.00000000000E+00 -0.00000000000E+00 -0.36140673217E+03  0.36140673217E+03  0.00000000000E+00 0.  1.
          6    2    1    2  501    0  0.89927645748E+02 -0.98015264670E+02 -0.23614198796E+03  0.32102582863E+03  0.17204816357E+03 0.  0.
         24    2    3    3    0    0  0.13707048799E+02 -0.95371833664E+02 -0.82010180887E+02  0.14899306698E+03  0.78673975347E+02 0.  0.
         -6    2    1    2    0  502 -0.89927645748E+02  0.98015264670E+02  0.59735876653E+02  0.22538152441E+03  0.17185599497E+03 0.  0.
        -24    2    5    5    0    0 -0.67886261210E+02  0.72883642966E+02  0.10759679146E+03  0.16681380115E+03  0.79556299870E+02 0.  0.
          5    1    3    3  501    0  0.76220596949E+02 -0.26434310065E+01 -0.15413180708E+03  0.17203276165E+03  0.47000000000E+01 0. -1.
        -13    1    4    4    0    0  0.31252816051E+02 -0.97437736530E+02 -0.82310520103E+02  0.13132354218E+03  0.00000000000E+00 0.  1.
         14    1    4    4    0    0 -0.17545767252E+02  0.20659028663E+01  0.30033921595E+00  0.17669524803E+02  0.00000000000E+00 0. -1.
         -5    1    5    5    0  502 -0.22041384537E+02  0.25131621705E+02 -0.47860914803E+02  0.58567723258E+02  0.47000000000E+01 0.  1.
         13    1    6    6    0    0 -0.69581832758E+02  0.17303592240E+02  0.64823681109E+02  0.96659998898E+02  0.00000000000E+00 0. -1.
        -14    1    6    6    0    0  0.16955715477E+01  0.55580050725E+02  0.42773110347E+02  0.70153802251E+02  0.00000000000E+00 0.  1.
</event>
<event>
12    1  0.8449700E-002  0.2005878E+03  0.7818608E-02  0.1149394E+00
         21   -1    0    0  503  502  0.00000000000E+00  0.00000000000E+00  0.76226229235E+02  0.76226229235E+02  0.00000000000E+00 0.  1.
         21   -1    0    0  501  503 -0.00000000000E+00 -0.00000000000E+00 -0.52603574636E+03  0.52603574636E+03  0.00000000000E+00 0.  1.
          6    2    1    2  501    0 -0.49470618369E+02  0.86948467388E+02 -0.22114232828E+03  0.29808415715E+03  0.17304004544E+03 0.  0.
         24    2    3    3    0    0 -0.55682310909E+02  0.15138326473E+02 -0.19970050740E+03  0.22273747079E+03  0.80012496291E+02 0.  0.
         -6    2    1    2    0  502  0.49470618369E+02 -0.86948467388E+02 -0.22866718884E+03  0.30417781844E+03  0.17386225558E+03 0.  0.
        -24    2    5    5    0    0  0.11889380680E+02 -0.33415722606E+02 -0.30839827045E+02  0.95765104660E+02  0.83437955681E+02 0.  0.
          5    1    3    3  501    0  0.62116925404E+01  0.71810140914E+02 -0.21441820878E+02  0.75346686357E+02  0.47000000000E+01 0. -1.
        -11    1    4    4    0    0 -0.72347325032E+02  0.10827740947E+00 -0.12177598918E+03  0.14164582134E+03  0.00000000000E+00 0.  1.
         12    1    4    4    0    0  0.16665014123E+02  0.15030049064E+02 -0.77924518224E+02  0.81091649453E+02  0.00000000000E+00 0. -1.
         -5    1    5    5    0  502  0.37581237688E+02 -0.53532744781E+02 -0.19782736180E+03  0.20841271378E+03  0.47000000000E+01 0.  1.
         11    1    6    6    0    0 -0.23647938154E+02 -0.37773182648E+01  0.16875546674E+02  0.29296368167E+02  0.00000000000E+00 0. -1.
        -12    1    6    6    0    0  0.35537318835E+02 -0.29638404342E+02 -0.47715373719E+02  0.66468736493E+02  0.00000000000E+00 0.  1.
</event>
<event>
12    1  0.8449700E-002  0.2105096E+03  0.7818608E-02  0.1141509E+00
         21   -1    0    0  501  502  0.00000000000E+00  0.00000000000E+00  0.64493237329E+03  0.64493237329E+03  0.00000000000E+00 0.  1.
         21   -1    0    0  502  503 -0.00000000000E+00 -0.00000000000E+00 -0.68160116873E+02  0.68160116873E+02  0.00000000000E+00 0.  1.
         -6    2    1    2    0  503  0.12035421963E+03 -0.16696242067E+01  0.28163284245E+03  0.35057139363E+03  0.17057349810E+03 0.  0.
        -24    2    3    3    0    0  0.13275169879E+02  0.40779437121E+02  0.98537688369E+02  0.13420649085E+03  0.80389760113E+02 0.  0.
          6    2    1    2  501    0 -0.12035421963E+03  0.16696242067E+01  0.29513941396E+03  0.36252109653E+03  0.17270305709E+03 0.  0.
         24    2    5    5    0    0 -0.87694490761E+02  0.31540038441E+02  0.29390409848E+03  0.31799564829E+03  0.77823617844E+02 0.  0.
          5    1    5    5  501    0 -0.32659728873E+02 -0.29870414234E+02  0.12353154807E+01  0.44525448239E+02  0.47000000000E+01 0. -1.
        -13    1    6    6    0    0 -0.90155444510E+02  0.27089450616E+02  0.17274582584E+03  0.19673068610E+03  0.00000000000E+00 0.  1.
         14    1    6    6    0    0  0.24609537492E+01  0.44505878245E+01  0.12115827264E+03  0.12126496219E+03  0.00000000000E+00 0. -1.
         -5    1    3    3    0  503  0.10707904975E+03 -0.42449061327E+02  0.18309515408E+03  0.21636490277E+03  0.47000000000E+01 0.  1.
         11    1    4    4    0    0 -0.88709623733E+00  0.56873017242E+02  0.97333786481E+02  0.11273505675E+03  0.00000000000E+00 0. -1.
        -12    1    4    4    0    0  0.14162266117E+02 -0.16093580121E+02  0.12039018884E+01  0.21471434103E+02  0.00000000000E+00 0.  1.
</event>
<event>
12    1  0.8449700E-002  0.1966016E+03  0.7818608E-02  0.1153382E+00
         21   -1    0    0  501  502  0.00000000000E+00  0.00000000000E+00  0.14470273630E+04  0.14470273630E+04  0.00000000000E+00 0.  1.
         21   -1    0    0  502  503 -0.00000000000E+00 -0.00000000000E+00 -0.99893540231E+02  0.99893540231E+02  0.00000000000E+00 0.  1.
         -6    2    1    2    0  503 -0.21631200904E+02 -0.85852807551E+02  0.79165504869E+01  0.19334966261E+03  0.17170558187E+03 0.  0.
        -24    2    3    3    0    0 -0.25546556857E+02 -0.68738569604E+02 -0.59454434533E+02  0.12357024749E+03  0.79731792654E+02 0.  0.
          6    2    1    2  501    0  0.21631200904E+02  0.85852807551E+02  0.13392172723E+04  0.13535712406E+04  0.17553799483E+03 0.  0.
         24    2    5    5    0    0 -0.42383525603E+02  0.16809112495E+02  0.87260152548E+03  0.87752789994E+03  0.80888091847E+02 0.  0.
          5    1    5    5  501    0  0.64014726507E+02  0.69043695057E+02  0.46661574682E+03  0.47604334069E+03  0.47000000000E+01 0. -1.
        -11    1    6    6    0    0 -0.19699314387E+02 -0.32247643971E+02  0.42451658173E+03  0.42619514508E+03  0.00000000000E+00 0.  1.
         12    1    6    6    0    0 -0.22684211216E+02  0.49056756466E+02  0.44808494375E+03  0.45133275486E+03  0.00000000000E+00 0. -1.
         -5    1    3    3    0  503  0.39153559533E+01 -0.17114237947E+02  0.67370985020E+02  0.69779415126E+02  0.47000000000E+01 0.  1.
         13    1    4    4    0    0 -0.12870131186E+02  0.51126294262E+01  0.13248574502E+02  0.19165176303E+02  0.00000000000E+00 0. -1.
        -14    1    4    4    0    0 -0.12676425671E+02 -0.73851199031E+02 -0.72703009036E+02  0.10440507118E+03  0.00000000000E+00 0.  1.
</event>
<event>
12    1  0.8449700E-002  0.2463933E+03  0.7818608E-02  0.1115675E+00
         21   -1    0    0  501  502  0.00000000000E+00  0.00000000000E+00  0.72522546641E+03  0.72522546641E+03  0.00000000000E+00 0.  1.
         21   -1    0    0  502  503 -0.00000000000E+00 -0.00000000000E+00 -0.44774324133E+03  0.44774324133E+03  0.00000000000E+00 0.  1.
         -6    2    1    2    0  503 -0.74921877054E+02 -0.15657950986E+03 -0.39021275889E+03  0.46126213031E+03  0.17425936156E+03 0.  0.
        -24    2    3    3    0    0  0.23050256504E+02 -0.10582774469E+03 -0.20115426943E+03  0.24231126126E+03  0.80751974301E+02 0.  0.
          6    2    1    2  501    0  0.74921877054E+02  0.15657950986E+03  0.66769498396E+03  0.71170657743E+03  0.17486918020E+03 0.  0.
         24    2    5    5    0    0  0.75213522953E+02  0.25871608686E+02  0.21898758103E+03  0.24432550814E+03  0.73572950951E+02 0.  0.
          5    1    5    5  501    0 -0.29164589816E+00  0.13070790117E+03  0.44870740293E+03  0.46738106928E+03  0.47000000000E+01 0. -1.
        -11    1    6    6    0    0  0.55454523519E+02  0.17898477452E+02  0.21486099826E+03  0.22262256904E+03  0.00000000000E+00 0.  1.
         12    1    6    6    0    0  0.19758999433E+02  0.79731312343E+01  0.41265827755E+01  0.21702939103E+02  0.00000000000E+00 0. -1.
         -5    1    3    3    0  503 -0.97972133558E+02 -0.50751765167E+02 -0.18905848946E+03  0.21895086905E+03  0.47000000000E+01 0.  1.
         11    1    4    4    0    0  0.14723199540E+01  0.85577581947E+01  0.12986226540E+01  0.87800553623E+01  0.00000000000E+00 0. -1.
        -12    1    4    4    0    0  0.21577936550E+02 -0.11438550288E+03 -0.20245289208E+03  0.23353120590E+03  0.00000000000E+00 0.  1.
</event>
<event>
12    1  0.8449700E-002  0.2020279E+03  0.7818608E-02  0.1148127E+00
         21   -1    0    0  503  502  0.00000000000E+00  0.00000000000E+00  0.64152173773E+03  0.64152173773E+03  0.00000000000E+00 0. -1.
         21   -1    0    0  501  503 -0.00000000000E+00 -0.00000000000E+00 -0.80622736950E+02  0.80622736950E+02  0.00000000000E+00 0.  1.
          6    2    1    2  501    0  0.10180885490E+03 -0.26918654810E+02  0.11377067690E+03  0.23149284142E+03  0.17191716550E+03 0.  0.
         24    2    3    3    0    0  0.11010022018E+03  0.30965773223E+02  0.10341814811E+03  0.17192255857E+03  0.76033645125E+02 0.  0.
         -6    2    1    2    0  502 -0.10180885490E+03  0.26918654810E+02  0.44712832388E+03  0.49065163326E+03  0.17241122437E+03 0.  0.
        -24    2    5    5    0    0  0.10354757711E+02  0.13296040473E+02  0.25406301937E+03  0.26690500552E+03  0.80039105836E+02 0.  0.
          5    1    3    3  501    0 -0.82913652788E+01 -0.57884428033E+02  0.10352528790E+02  0.59570282854E+02  0.47000000000E+01 0. -1.
        -13    1    4    4    0    0  0.79577356466E+02 -0.32995600847E+01  0.29529165124E+02  0.84943595119E+02  0.00000000000E+00 0.  1.
         14    1    4    4    0    0  0.30522863717E+02  0.34265333308E+02  0.73888982986E+02  0.86978963451E+02  0.00000000000E+00 0. -1.
         -5    1    5    5    0  502 -0.11216361262E+03  0.13622614338E+02  0.19306530452E+03  0.22374662774E+03  0.47000000000E+01 0.  1.
         13    1    6    6    0    0 -0.34866269565E+02  0.79880447480E+00  0.10730063602E+03  0.11282606673E+03  0.00000000000E+00 0. -1.
        -14    1    6    6    0    0  0.45221027276E+02  0.12497235998E+02  0.14676238334E+03  0.15407893880E+03  0.00000000000E+00 0.  1.
</event>
<event>
12    1  0.8449700E-002  0.2516336E+03  0.7818608E-02  0.1112301E+00
         21   -1    0    0  503  502  0.00000000000E+00  0.00000000000E+00  0.11896992523E+03  0.11896992523E+03  0.00000000000E+00 0.  1.
         21   -1    0    0  501  503 -0.00000000000E+00 -0.00000000000E+00 -0.53880515375E+03  0.53880515375E+03  0.00000000000E+00 0. -1.
          6    2    1    2  501    0 -0.15118142211E+03 -0.10577504634E+03 -0.17261877379E+03  0.30502102388E+03  0.17086954416E+03 0.  0.
         24    2    3    3    0    0 -0.28003178602E+02 -0.89000103396E+02 -0.11355627958E+03  0.16730847322E+03  0.79949359995E+02 0.  0.
         -6    2    1    2    0  502  0.15118142211E+03  0.10577504634E+03 -0.24721645473E+03  0.35275405511E+03  0.17110016097E+03 0.  0.
        -24    2    5    5    0    0  0.14746292996E+03  0.23760584964E+02 -0.17417286180E+03  0.24276471232E+03  0.79300937267E+02 0.  0.
          5    1    3    3  501    0 -0.12317824351E+03 -0.16774942945E+02 -0.59062494209E+02  0.13771255065E+03  0.47000000000E+01 0. -1.
        -13    1    4    4    0    0 -0.16558077498E+02 -0.25910073610E+02  0.62917369594E+01  0.31386108374E+02  0.00000000000E+00 0.  1.
         14    1    4    4    0    0 -0.11445101104E+02 -0.63090029786E+02 -0.11984801654E+03  0.13592236485E+03  0.00000000000E+00 0. -1.
         -5    1    5    5    0  502  0.37184921583E+01  0.82014461377E+02 -0.73043592934E+02  0.10998934279E+03  0.47000000000E+01 0.  1.
         11    1    6    6    0    0  0.48813546077E+02  0.35617813304E+02 -0.10682488203E+03  0.12273119541E+03  0.00000000000E+00 0. -1.
        -12    1    6    6    0    0  0.98649383879E+02 -0.11857228341E+02 -0.67347979769E+02  0.12003351691E+03  0.00000000000E+00 0.  1.
</event>
<event>
12    1  0.8449700E-002  0.1908059E+03  0.7818608E-02  0.1158016E+00
         21   -1    0    0  503  502  0.00000000000E+00  0.00000000000E+00  0.59735759181E+03  0.59735759181E+03  0.00000000000E+00 0. -1.
         21   -1    0    0  501  503 -0.00000000000E+00 -0.00000000000E+00 -0.15979517666E+03  0.15979517666E+03  0.00000000000E+00 0.  1.
          6    2    1    2  501    0  0.57208131947E+02  0.57151132730E+02 -0.79840005033E+02  0.20568910895E+03  0.17144842025E+03 0.  0.
         24    2    3    3    0    0 -0.16869133566E+02 -0.71442923870E+01 -0.61146395626E+02  0.10572469534E+03  0.84280608239E+02 0.  0.
         -6    2    1    2    0  502 -0.57208131947E+02 -0.57151132730E+02  0.51740242018E+03  0.55146365951E+03  0.17282326528E+03 0.  0.
        -24    2    5    5    0    0 -0.15012793796E+02 -0.79027171461E+02  0.47274465421E+03  0.48607701184E+03  0.79452347671E+02 0.  0.
          5    1    3    3  501    0  0.74077265513E+02  0.64295425117E+02 -0.18693609407E+02  0.99964413616E+02  0.47000000000E+01 0. -1.
        -11    1    4    4    0    0 -0.98896095316E+01 -0.62351027909E+01 -0.82457078444E+02  0.83281754719E+02  0.00000000000E+00 0.  1.
         12    1    4    4    0    0 -0.69795240344E+01 -0.90918959616E+00  0.21310682818E+02  0.22442940619E+02  0.00000000000E+00 0. -1.
         -5    1    5    5    0  502 -0.42195338150E+02  0.21876038731E+02  0.44657765972E+02  0.65386647672E+02  0.47000000000E+01 0.  1.
         13    1    6    6    0    0  0.28313750076E+02 -0.25339445415E+02  0.25065723339E+03  0.25352081687E+03  0.00000000000E+00 0. -1.
        -14    1    6    6    0    0 -0.43326543873E+02 -0.53687726046E+02  0.22208742082E+03  0.23255619497E+03  0.00000000000E+00 0.  1.
</event>
<event>
12    1  0.8449700E-002  0.2498323E+03  0.7818608E-02  0.1113561E+00
         21   -1    0    0  501  502  0.00000000000E+00  0.00000000000E+00  0.27565299203E+02  0.27565299203E+02  0.00000000000E+00 0. -1.
         21   -1    0    0  502  503 -0.00000000000E+00 -0.00000000000E+00 -0.33747649773E+04  0.33747649773E+04  0.00000000000E+00 0.  1.
         -6    2    1    2    0  503 -0.96582330075E+02 -0.15201196784E+03 -0.26510723457E+04  0.26627294189E+04  0.17177773779E+03 0.  0.
        -24    2    3    3    0    0 -0.11492789799E+03 -0.51381068706E+02 -0.14483061452E+04  0.14556122908E+04  0.73266739347E+02 0.  0.
          6    2    1    2  501    0  0.96582330075E+02  0.15201196784E+03 -0.69612733238E+03  0.73960085760E+03  0.17314843583E+03 0.  0.
         24    2    5    5    0    0  0.84104072171E+02  0.48120259269E+02 -0.22867065165E+03  0.26055280950E+03  0.78793688230E+02 0.  0.
          5    1    5    5  501    0  0.12478257903E+02  0.10389170857E+03 -0.46745668073E+03  0.47904804810E+03  0.47000000000E+01 0. -1.
        -11    1    6    6    0    0  0.38692535248E+00 -0.41525430384E+01 -0.91341014557E+02  0.91436175911E+02  0.00000000000E+00 0.  1.
         12    1    6    6    0    0  0.83717146819E+02  0.52272802308E+02 -0.13732963709E+03  0.16911663359E+03  0.00000000000E+00 0. -1.
         -5    1    3    3    0  503  0.18345567920E+02 -0.10063089913E+03 -0.12027662005E+04  0.12071171280E+04  0.47000000000E+01 0.  1.
         11    1    4    4    0    0 -0.33962552392E+02 -0.29678792939E+02 -0.22726725479E+03  0.23169957017E+03  0.00000000000E+00 0. -1.
        -12    1    4    4    0    0 -0.80965345602E+02 -0.21702275767E+02 -0.12210388904E+04  0.12239127207E+04  0.00000000000E+00 0.  1.
</event>
<event>
12    1  0.8449700E-002  0.2415106E+03  0.7818608E-02  0.1118834E+00
         21   -1    0    0  501  502  0.00000000000E+00  0.00000000000E+00  0.38216371954E+03  0.38216371954E+03  0.00000000000E+00 0.  1.
         21   -1    0    0  502  503 -0.00000000000E+00 -0.00000000000E+00 -0.42419882786E+03  0.42419882786E+03  0.00000000000E+00 0. -1.
         -6    2    1    2    0  503 -0.16717528649E+03 -0.27021467014E+02 -0.34371003260E+03  0.41992352411E+03  0.17181805347E+03 0.  0.
        -24    2    3    3    0    0 -0.10209886140E+03 -0.49789814170E+02 -0.31584215209E+03  0.34541146134E+03  0.81545137745E+02 0.  0.
          6    2    1    2  501    0  0.16717528649E+03  0.27021467014E+02  0.30167492428E+03  0.38643902328E+03  0.17219065795E+03 0.  0.
         24    2    5    5    0    0  0.16471411129E+03 -0.61039318374E+01  0.30184954628E+03  0.35289099912E+03  0.79062710744E+02 0.  0.
          5    1    5    5  501    0  0.24611752056E+01  0.33125398851E+02 -0.17462200158E+00  0.33548024164E+02  0.47000000000E+01 0. -1.
        -11    1    6    6    0    0  0.15508386714E+03  0.18498066027E+02  0.25204401467E+03  0.29651200587E+03  0.00000000000E+00 0.  1.
         12    1    6    6    0    0  0.96302441510E+01 -0.24601997864E+02  0.49805531610E+02  0.56378993254E+02  0.00000000000E+00 0. -1.
         -5    1    3    3    0  503 -0.65076425093E+02  0.22768347156E+02 -0.27867880510E+02  0.74512062776E+02  0.47000000000E+01 0.  1.
         13    1    4    4    0    0 -0.86056901251E+02 -0.20933942366E+02 -0.13418302418E+03  0.16077656600E+03  0.00000000000E+00 0. -1.
        -14    1    4    4    0    0 -0.16041960151E+02 -0.28855871804E+02 -0.18165912791E+03  0.18463489534E+03  0.00000000000E+00 0.  1.
</event>
<event>
12    1  0.8449700E-002  0.2319065E+03  0.7818608E-02  0.1125399E+00
         21   -1    0    0  501  502  0.00000000000E+00  0.00000000000E+00  0.11821214797E+03  0.11821214797E+03  0.00000000000E+00 0.  1.
         21   -1    0    0  502  503 -0.00000000000E+00 -0.00000000000E+00 -0.55412570821E+03  0.55412570821E+03  0.00000000000E+00 0.  1.
         -6    2    1    2    0  503 -0.13972583745E+03  0.68231811762E+02 -0.36072389233E+03  0.42854670385E+03  0.17132326489E+03 0.  0.
        -24    2    3    3    0    0 -0.56138367534E+02  0.11252334115E+02 -0.28553078478E+03  0.30241336399E+03  0.81534546871E+02 0.  0.
          6    2    1    2  501    0  0.13972583745E+03 -0.68231811762E+02 -0.75189667906E+02  0.24379115233E+03  0.17205159113E+03 0.  0.
         24    2    5    5    0    0  0.65318985414E+02 -0.79394292081E+02 -0.10152419928E+03  0.16393767314E+03  0.77449171492E+02 0.  0.
          5    1    5    5  501    0  0.74406852033E+02  0.11162480319E+02  0.26334531374E+02  0.79853479192E+02  0.47000000000E+01 0. -1.
        -13    1    6    6    0    0  0.80725268942E+02 -0.78257748479E+02 -0.82617749702E+02  0.13952253154E+03  0.00000000000E+00 0.  1.
         14    1    6    6    0    0 -0.15406283528E+02 -0.11365436018E+01 -0.18906449578E+02  0.24415141596E+02  0.00000000000E+00 0. -1.
         -5    1    3    3    0  503 -0.83587469913E+02  0.56979477647E+02 -0.75193107553E+02  0.12613333985E+03  0.47000000000E+01 0.  1.
         11    1    4    4    0    0 -0.37484434754E+02 -0.33705712794E+02 -0.12944549642E+03  0.13891470212E+03  0.00000000000E+00 0. -1.
        -12    1    4    4    0    0 -0.18653932780E+02  0.44958046909E+02 -0.15608528836E+03  0.16349866187E+03  0.00000000000E+00 0.  1.
</event>
<event>
12    1  0.8449700E-002  0.2824468E+03  0.7818608E-02  0.1094785E+00
         21   -1    0    0  501  502  0.00000000000E+00  0.00000000000E+00  0.14969935138E+03  0.14969935138E+03  0.00000000000E+00 0.  1.
         21   -1    0    0  502  503 -0.00000000000E+00 -0.00000000000E+00 -0.67506793116E+03  0.67506793116E+03  0.00000000000E+00 0. -1.
         -6    2    1    2    0  503 -0.20659262962E+03 -0.85429845487E+02 -0.45466109017E+03  0.53360453369E+03  0.16744646415E+03 0.  0.
        -24    2    3    3    0    0 -0.35878075402E+02  0.80793928886E+01 -0.14758519629E+03  0.17000429816E+03  0.75944442484E+02 0.  0.
          6    2    1    2  501    0  0.20659262962E+03  0.85429845487E+02 -0.70707489610E+02  0.29116274884E+03  0.17261930400E+03 0.  0.
         24    2    5    5    0    0  0.11035125319E+03  0.61853825885E+01 -0.93032893273E+02  0.16442443149E+03  0.78515071173E+02 0.  0.
          5    1    5    5  501    0  0.96241376432E+02  0.79244462898E+02  0.22325403663E+02  0.12673831736E+03  0.47000000000E+01 0. -1.
        -13    1    6    6    0    0  0.11653473148E+02  0.28432756497E+02 -0.67641341503E+01  0.31463925204E+02  0.00000000000E+00 0.  1.
         14    1    6    6    0    0  0.98697780038E+02 -0.22247373909E+02 -0.86268759123E+02  0.13296050628E+03  0.00000000000E+00 0. -1.
         -5    1    3    3    0  503 -0.17071455422E+03 -0.93509238375E+02 -0.30707589387E+03  0.36360023553E+03  0.47000000000E+01 0.  1.
         13    1    4    4    0    0  0.63623025032E+01  0.27827700927E+02 -0.21992841280E+02  0.36035328493E+02  0.00000000000E+00 0. -1.
        -14    1    4    4    0    0 -0.42240377906E+02 -0.19748308039E+02 -0.12559235501E+03  0.13396896967E+03  0.00000000000E+00 0.  1.
</event>
<event>
12    1  0.8449700E-002  0.2085696E+03  0.7818608E-02  0.1142752E+00
         21   -1    0    0  503  502  0.00000000000E+00  0.00000000000E+00  0.26474531064E+02  0.26474531064E+02  0.00000000000E+00 0.  1.
         21   -1    0    0  501  503 -0.00000000000E+00 -0.00000000000E+00 -0.19370583953E+04  0.19370583953E+04  0.00000000000E+00 0.  1.
          6    2    1    2  501    0  0.11600655376E+03 -0.19758836370E+02 -0.13394396191E+04  0.13555809713E+04  0.17220146487E+03 0.  0.
         24    2    3    3    0    0  0.14184358956E+03 -0.46374286873E+01 -0.10104912555E+04  0.10252397458E+04  0.99412520506E+02 0.  0.
         -6    2    1    2    0  502 -0.11600655376E+03  0.19758836370E+02 -0.57114424518E+03  0.60795195507E+03  0.17190665707E+03 0.  0.
        -24    2    5    5    0    0 -0.66333402789E+01  0.45118902218E+02 -0.31221561163E+03  0.32569009077E+03  0.80720075198E+02 0.  0.
          5    1    3    3  501    0 -0.25837035799E+02 -0.15121407683E+02 -0.32894836354E+03  0.33034122550E+03  0.47000000000E+01 0. -1.
        -13    1    4    4    0    0  0.32368377773E+02  0.42375204716E+02 -0.35996476300E+03  0.36389284200E+03  0.00000000000E+00 0.  1.
         14    1    4    4    0    0  0.10947521179E+03 -0.47012633403E+02 -0.65052649254E+03  0.66134690382E+03  0.00000000000E+00 0. -1.
         -5    1    5    5    0  502 -0.10937321348E+03 -0.25360065848E+02 -0.25892863354E+03  0.28226186429E+03  0.47000000000E+01 0.  1.
         13    1    6    6    0    0 -0.16859093815E+02  0.60679510937E+02 -0.28973088233E+03  0.29649657042E+03  0.00000000000E+00 0. -1.
        -14    1    6    6    0    0  0.10225753536E+02 -0.15560608719E+02 -0.22484729302E+02  0.29193520357E+02  0.00000000000E+00 0.  1.
</event>
<event>
12    1  0.8449700E-002  0.1868155E+03  0.7818608E-02  0.1161413E+00
         21   -1    0    0  501  502  0.00000000000E+00  0.00000000000E+00  0.89872840853E+02  0.89872840853E+02  0.00000000000E+00 0. -1.
         21   -1    0    0  502  503 -0.00000000000E+00 -0.00000000000E+00 -0.44908012087E+03  0.44908012087E+03  0.00000000000E+00 0. -1.
         -6    2    1    2    0  503  0.70803166648E+02 -0.19506497679E+02 -0.80224354444E+02  0.20331253787E+03  0.17177441355E+03 0.  0.
        -24    2    3    3    0    0 -0.69965320905E+01 -0.56691891108E+02 -0.27663331299E+02  0.10221704953E+03  0.80125796958E+02 0.  0.
          6    2    1    2  501    0 -0.70803166648E+02  0.19506497679E+02 -0.27898292558E+03  0.33564042385E+03  0.17155007870E+03 0.  0.
         24    2    5    5    0    0 -0.11865117490E+02 -0.49922818379E+02 -0.12639499238E+03  0.15787852995E+03  0.79478722392E+02 0.  0.
          5    1    5    5  501    0 -0.58938049159E+02  0.69429316058E+02 -0.15258793320E+03  0.17776189391E+03  0.47000000000E+01 0. -1.
        -13    1    6    6    0    0 -0.10834298035E+02 -0.13202402753E+02 -0.11923554159E+03  0.12045247956E+03  0.00000000000E+00 0.  1.
         14    1    6    6    0    0 -0.10308194545E+01 -0.36720415626E+02 -0.71594507840E+01  0.37426050393E+02  0.00000000000E+00 0. -1.
         -5    1    3    3    0  503  0.77799698739E+02  0.37185393429E+02 -0.52561023145E+02  0.10109548834E+03  0.47000000000E+01 0.  1.
         13    1    4    4    0    0 -0.17845870423E+02  0.97091383312E+01  0.12505773336E+02  0.23856588713E+02  0.00000000000E+00 0. -1.
        -14    1    4    4    0    0  0.10849338333E+02 -0.66401029439E+02 -0.40169104635E+02  0.78360460820E+02  0.00000000000E+00 0.  1.
</event>
<event>
12    1  0.8449700E-002  0.1754800E+03  0.7818608E-02  0.1172509E+00
         21   -1    0    0  503  502  0.00000000000E+00  0.00000000000E+00  0.10698365548E+04  0.10698365548E+04  0.00000000000E+00 0.  1.
         21   -1    0    0  501  503 -0.00000000000E+00 -0.00000000000E+00 -0.65198047626E+02  0.65198047626E+02  0.00000000000E+00 0.  1.
          6    2    1    2  501    0 -0.12305427017E+02 -0.22314687323E+02  0.76560867681E+02  0.19051285874E+03  0.17258103628E+03 0.  0.
         24    2    3    3    0    0  0.93560028415E+01  0.19290445039E+02 -0.18147157542E+02  0.84721060271E+02  0.79929235375E+02 0.  0.
         -6    2    1    2    0  502  0.12305427017E+02  0.22314687323E+02  0.92807763948E+03  0.94452174367E+03  0.17361984494E+03 0.  0.
        -24    2    5    5    0    0  0.44143893037E+02 -0.41697433053E+02  0.47474293480E+03  0.48556021593E+03  0.81856642614E+02 0.  0.
          5    1    3    3  501    0 -0.21661429858E+02 -0.41605132362E+02  0.94708025223E+02  0.10579179847E+03  0.47000000000E+01 0. -1.
        -11    1    4    4    0    0  0.32795162922E+02 -0.17085936589E+00 -0.36567713602E+02  0.49119747374E+02  0.00000000000E+00 0.  1.
         12    1    4    4    0    0 -0.23439160081E+02  0.19461304405E+02  0.18420556060E+02  0.35601312897E+02  0.00000000000E+00 0. -1.
         -5    1    5    5    0  502 -0.31838466020E+02  0.64012120376E+02  0.45333470469E+03  0.45896152774E+03  0.47000000000E+01 0.  1.
         11    1    6    6    0    0  0.39799708085E+02 -0.41856815365E+02  0.47712161123E+03  0.48060487062E+03  0.00000000000E+00 0. -1.
        -12    1    6    6    0    0  0.43441849524E+01  0.15938231233E+00 -0.23786764337E+01  0.49553453157E+01  0.00000000000E+00 0.  1.
</event>
<event>
12    1  0.8449700E-002  0.2096952E+03  0.7818608E-02  0.1141993E+00
         21   -1    0    0  501  502  0.00000000000E+00  0.00000000000E+00  0.96393479477E+02  0.96393479477E+02  0.00000000000E+00 0.  1.
         21   -1    0    0  502  503 -0.00000000000E+00 -0.00000000000E+00 -0.69032314787E+03  0.69032314787E+03  0.00000000000E+00 0.  1.
         -6    2    1    2    0  503 -0.58355444682E+02  0.10245822530E+03 -0.52660875061E+03  0.56647997919E+03  0.17227810294E+03 0.  0.
        -24    2    3    3    0    0 -0.81514273475E+02  0.12880751750E+03 -0.42634467014E+03  0.46015221996E+03  0.82062990631E+02 0.  0.
          6    2    1    2  501    0  0.58355444682E+02 -0.10245822530E+03 -0.67320917791E+02  0.22023664816E+03  0.17340423688E+03 0.  0.
         24    2    5    5    0    0  0.28007602411E+02  0.14808708895E+02 -0.78006163588E+01  0.85191168165E+02  0.78695373853E+02 0.  0.
          5    1    5    5  501    0  0.30347842271E+02 -0.11726693419E+03 -0.59520301432E+02  0.13504548000E+03  0.47000000000E+01 0. -1.
        -13    1    6    6    0    0  0.34787979299E+02 -0.76722991864E+01  0.25951658892E+02  0.44074440187E+02  0.00000000000E+00 0.  1.
         14    1    6    6    0    0 -0.67803768886E+01  0.22481008081E+02 -0.33752275250E+02  0.41116727979E+02  0.00000000000E+00 0. -1.
         -5    1    3    3    0  503  0.23158828793E+02 -0.26349292207E+02 -0.10026408047E+03  0.10632775923E+03  0.47000000000E+01 0.  1.
         13    1    4    4    0    0 -0.57256475645E+02  0.21367606210E+02 -0.12117729899E+03  0.13571594007E+03  0.00000000000E+00 0. -1.
        -14    1    4    4    0    0 -0.24257797830E+02  0.10743991129E+03 -0.30516737115E+03  0.32443627989E+03  0.00000000000E+00 0.  1.
</event>
<event>
12    1  0.8449700E-002  0.1934214E+03  0.7818608E-02  0.1155652E+00
         21   -1    0    0  501  502  0.00000000000E+00  0.00000000000E+00  0.19582520274E+04  0.19582520274E+04  0.00000000000E+00 0.  1.
         21   -1    0    0  502  503 -0.00000000000E+00 -0.00000000000E+00 -0.59276471725E+02  0.59276471725E+02  0.00000000000E+00 0.  1.
         -6    2    1    2    0  503 -0.75738082299E+02 -0.45310119883E+02  0.11707876413E+03  0.22516469752E+03  0.17088721404E+03 0.  0.
        -24    2    3    3    0    0 -0.81070329503E+02 -0.70249956314E+02  0.33665948448E+02  0.13781358922E+03  0.79697770359E+02 0.  0.
          6    2    1    2  501    0  0.75738082299E+02  0.45310119883E+02  0.17818967916E+04  0.17923638016E+04  0.17211204932E+03 0.  0.
         24    2    5    5    0    0 -0.42965965679E+01  0.31831839628E+02  0.13640695619E+04  0.13667009096E+04  0.78446667538E+02 0.  0.
          5    1    5    5  501    0  0.80034678867E+02  0.13478280255E+02  0.41782722962E+03  0.42566289205E+03  0.47000000000E+01 0. -1.
        -11    1    6    6    0    0  0.23771513327E+02  0.27552568493E+01  0.14498669659E+03  0.14694835308E+03  0.00000000000E+00 0.  1.
         12    1    6    6    0    0 -0.28068109895E+02  0.29076582779E+02  0.12190828653E+04  0.12197525565E+04  0.00000000000E+00 0. -1.
         -5    1    3    3    0  503  0.53322472039E+01  0.24939836430E+02  0.83412815682E+02  0.87351108301E+02  0.47000000000E+01 0.  1.
         13    1    4    4    0    0  0.13442629492E+02  0.19748601442E+01 -0.17595456674E+01  0.13700378141E+02  0.00000000000E+00 0. -1.
        -14    1    4    4    0    0 -0.94512958995E+02 -0.72224816458E+02  0.35425494116E+02  0.12411321108E+03  0.00000000000E+00 0.  1.
</event>
<event>
12    1  0.8449700E-002  0.2074963E+03  0.7818608E-02  0.1143817E+00
         21   -1    0    0  503  502  0.00000000000E+00  0.00000000000E+00  0.11618431698E+04  0.11618431698E+04  0.00000000000E+00 0. -1.
         21   -1    0    0  501  503 -0.00000000000E+00 -0.00000000000E+00 -0.43888799857E+02  0.43888799857E+02  0.00000000000E+00 0. -1.
          6    2    1    2  501    0  0.76797745282E+02  0.89619581532E+02  0.31584473065E+03  0.37721847891E+03  0.16913404116E+03 0.  0.
         24    2    3    3    0    0  0.80300007165E+02  0.17764003490E+02  0.27036161557E+03  0.29197592093E+03  0.73422641319E+02 0.  0.
         -6    2    1    2    0  502 -0.76797745282E+02 -0.89619581532E+02  0.80210963926E+03  0.82851349071E+03  0.17066097334E+03 0.  0.
        -24    2    5    5    0    0 -0.81352946669E+02 -0.24593010598E+02  0.68052168230E+03  0.69047390919E+03  0.80133270862E+02 0.  0.
          5    1    3    3  501    0 -0.35022618833E+01  0.71855578042E+02  0.45483115078E+02  0.85242557982E+02  0.47000000000E+01 0. -1.
        -11    1    4    4    0    0  0.74274504786E+02  0.41948934973E+02  0.21160914398E+03  0.22815530899E+03  0.00000000000E+00 0.  1.
         12    1    4    4    0    0  0.60255023789E+01 -0.24184931483E+02  0.58752471591E+02  0.63820611935E+02  0.00000000000E+00 0. -1.
         -5    1    5    5    0  502  0.45552013868E+01 -0.65026570934E+02  0.12158795696E+03  0.13803958151E+03  0.47000000000E+01 0.  1.
         13    1    6    6    0    0 -0.15807215431E+02 -0.40207162754E+02  0.38239438717E+03  0.38482717074E+03  0.00000000000E+00 0. -1.
        -14    1    6    6    0    0 -0.65545731238E+02  0.15614152155E+02  0.29812729513E+03  0.30564673846E+03  0.00000000000E+00 0.  1.
</event>
<event>
12    1  0.8449700E-002  0.2608961E+03  0.7818608E-02  0.1107587E+00
         21   -1    0    0  503  502  0.00000000000E+00  0.00000000000E+00  0.15675287854E+04  0.15675287854E+04  0.00000000000E+00 0. -1.
         21   -1    0    0  501  503 -0.00000000000E+00 -0.00000000000E+00 -0.59334944255E+02  0.59334944255E+02  0.00000000000E+00 0.  1.
          6    2    1    2  501    0 -0.10743551280E+03  0.15232193308E+03  0.32570614210E+03  0.41731435447E+03  0.18254429255E+03 0.  0.
         24    2    3    3    0    0 -0.11447825519E+03  0.18149992344E+03  0.26687604921E+03  0.35110238296E+03  0.77476219329E+02 0.  0.
         -6    2    1    2    0  502  0.10743551280E+03 -0.15232193308E+03  0.11824876990E+04  0.12095493752E+04  0.17317093259E+03 0.  0.
        -24    2    5    5    0    0  0.90726246735E+02 -0.18723775691E+03  0.10370966595E+04  0.10590204454E+04  0.51629382426E+02 0.  0.
          5    1    3    3  501    0  0.70427423833E+01 -0.29177990362E+02  0.58830092891E+02  0.66211971512E+02  0.47000000000E+01 0. -1.
        -11    1    4    4    0    0 -0.61788630468E+01  0.57979211172E+02  0.38849551484E+02  0.70064648199E+02  0.00000000000E+00 0.  1.
         12    1    4    4    0    0 -0.10829939214E+03  0.12352071227E+03  0.22802649772E+03  0.28103773476E+03  0.00000000000E+00 0. -1.
         -5    1    5    5    0  502  0.16709266067E+02  0.34915823830E+02  0.14539103956E+03  0.15052892981E+03  0.47000000000E+01 0.  1.
         13    1    6    6    0    0  0.11674589567E+02 -0.59731098829E+02  0.39286144698E+03  0.39754775403E+03  0.00000000000E+00 0. -1.
        -14    1    6    6    0    0  0.79051657168E+02 -0.12750665808E+03  0.64423521250E+03  0.66147269134E+03  0.00000000000E+00 0.  1.
</event>
<event>
12    1  0.8449700E-002  0.1882170E+03  0.7818608E-02  0.1160145E+00
         21   -1    0    0  503  502  0.00000000000E+00  0.00000000000E+00  0.19900597196E+03  0.19900597196E+03  0.00000000000E+00 0. -1.
         21   -1    0    0  501  503 -0.00000000000E+00 -0.00000000000E+00 -0.40023187976E+03  0.40023187976E+03  0.00000000000E+00 0.  1.
          6    2    1    2  501    0  0.26779115205E+02 -0.71338273235E+02 -0.32404108376E+03  0.37473759238E+03  0.17210278598E+03 0.  0.
         24    2    3    3    0    0 -0.44944559298E+01 -0.89872746163E+02 -0.14173197768E+03  0.18877990070E+03  0.86328365985E+02 0.  0.
         -6    2    1    2    0  502 -0.26779115205E+02  0.71338273235E+02  0.12281517596E+03  0.22450025934E+03  0.17178628804E+03 0.  0.
        -24    2    5    5    0    0  0.32043441577E+02  0.65385392592E+02  0.12399030854E+03  0.16517909186E+03  0.81292706096E+02 0.  0.
          5    1    3    3  501    0  0.31273571135E+02  0.18534472927E+02 -0.18230910608E+03  0.18595769168E+03  0.47000000000E+01 0. -1.
        -13    1    4    4    0    0 -0.27577830807E+02 -0.50659817711E+02 -0.12934234677E+03  0.14162060779E+03  0.00000000000E+00 0.  1.
         14    1    4    4    0    0  0.23083374878E+02 -0.39212928452E+02 -0.12389630908E+02  0.47159292908E+02  0.00000000000E+00 0. -1.
         -5    1    5    5    0  502 -0.58822556782E+02  0.59528806437E+01 -0.11751325800E+01  0.59321167478E+02  0.47000000000E+01 0.  1.
         11    1    6    6    0    0 -0.13995609325E+02  0.57204981362E+02  0.89237384316E+02  0.10691865007E+03  0.00000000000E+00 0. -1.
        -12    1    6    6    0    0  0.46039050902E+02  0.81804112295E+01  0.34752924220E+02  0.58260441791E+02  0.00000000000E+00 0.  1.
</event>
<event>
12    1  0.8449700E-002  0.2018252E+03  0.7818608E-02  0.1148299E+00
         21   -1    0    0  501  502  0.00000000000E+00  0.00000000000E+00  0.15123057470E+04  0.15123057470E+04  0.00000000000E+00 0.  1.
         21   -1    0    0  502  503 -0.00000000000E+00 -0.00000000000E+00 -0.46474623470E+02  0.46474623470E+02  0.00000000000E+00 0. -1.
         -6    2    1    2    0  503 -0.45992306114E+02  0.93676463009E+02  0.22725203214E+03  0.30393564682E+03  0.17275074342E+03 0.  0.
        -24    2    3    3    0    0 -0.87092438270E+02  0.51857573421E+02  0.20245765341E+03  0.24010076915E+03  0.79906052339E+02 0.  0.
          6    2    1    2  501    0  0.45992306114E+02 -0.93676463009E+02  0.12385790914E+04  0.12548447236E+04  0.17223978316E+03 0.  0.
         24    2    5    5    0    0  0.45037939938E+02 -0.81783009140E+02  0.37864695316E+03  0.39481696979E+03  0.61563364716E+02 0.  0.
          5    1    5    5  501    0  0.95436617618E+00 -0.11893453869E+02  0.85993213819E+03  0.86002775383E+03  0.47000000000E+01 0. -1.
        -13    1    6    6    0    0 -0.18239588622E+01 -0.57896255942E+01  0.13814084843E+03  0.13827415014E+03  0.00000000000E+00 0.  1.
         14    1    6    6    0    0  0.46861898800E+02 -0.75993383546E+02  0.24050610473E+03  0.25654281965E+03  0.00000000000E+00 0. -1.
         -5    1    3    3    0  503  0.41100132156E+02  0.41818889588E+02  0.24794378732E+02  0.63834877663E+02  0.47000000000E+01 0.  1.
         11    1    4    4    0    0 -0.95936974293E+02  0.25797823475E+02  0.13823496049E+03  0.17023024124E+03  0.00000000000E+00 0. -1.
        -12    1    4    4    0    0  0.88445360233E+01  0.26059749947E+02  0.64222692921E+02  0.69870527913E+02  0.00000000000E+00 0.  1.
</event>
<event>
12    1  0.8449700E-002  0.2494795E+03  0.7818608E-02  0.1114151E+00
         21   -1    0    0  503  502  0.00000000000E+00  0.00000000000E+00  0.70087239234E+03  0.70087239234E+03  0.00000000000E+00 0.  1.
         21   -1    0    0  501  503 -0.00000000000E+00 -0.00000000000E+00 -0.91077989625E+02  0.91077989625E+02  0.00000000000E+00 0.  1.
          6    2    1    2  501    0  0.68676017811E+02 -0.16130987254E+03  0.38359364276E+03  0.45758510305E+03  0.17749020640E+03 0.  0.
         24    2    3    3    0    0  0.19803671224E+02 -0.60689118725E+02  0.75934281330E+02  0.13018715707E+03  0.84304959870E+02 0.  0.
         -6    2    1    2    0  502 -0.68676017811E+02  0.16130987254E+03  0.22620075995E+03  0.33436527891E+03  0.17290484533E+03 0.  0.
        -24    2    5    5    0    0 -0.42874940936E+02  0.16091170685E+03  0.24154679729E+03  0.30397704162E+03  0.79538346647E+02 0.  0.
          5    1    3    3  501    0  0.48872346587E+02 -0.10062075381E+03  0.30765936143E+03  0.32739794598E+03  0.47000000000E+01 0. -1.
        -13    1    4    4    0    0  0.28471610485E+02 -0.25983129509E+02  0.84959163797E+02  0.93294239563E+02  0.00000000000E+00 0.  1.
         14    1    4    4    0    0 -0.86679392606E+01 -0.34705989216E+02 -0.90248824662E+01  0.36892917504E+02  0.00000000000E+00 0. -1.
         -5    1    5    5    0  502 -0.25801076875E+02  0.39816569034E+00 -0.15346037339E+02  0.30388237294E+02  0.47000000000E+01 0.  1.
         11    1    6    6    0    0  0.10417350207E+02  0.78761462722E+02  0.15091466044E+03  0.17054947649E+03  0.00000000000E+00 0. -1.
        -12    1    6    6    0    0 -0.53292291143E+02  0.82150244126E+02  0.90632136850E+02  0.13342756512E+03  0.00000000000E+00 0.  1.
</event>
<event>
12    1  0.8449700E-002  0.2141026E+03  0.7818608E-02  0.1138678E+00
         21   -1    0    0  501  502  0.00000000000E+00  0.00000000000E+00  0.24539808028E+02  0.24539808028E+02  0.00000000000E+00 0.  1.
         21   -1    0    0  502  503 -0.00000000000E+00 -0.00000000000E+00 -0.18536103084E+04  0.18536103084E+04  0.00000000000E+00 0. -1.
         -6    2    1    2    0  503 -0.11497152279E+03 -0.48603515539E+02 -0.90988435789E+03  0.93435825569E+03  0.17191582957E+03 0.  0.
        -24    2    3    3    0    0 -0.85060693520E+02 -0.65268653053E+02 -0.87545891433E+03  0.88557725856E+03  0.79520132964E+02 0.  0.
          6    2    1    2  501    0  0.11497152279E+03  0.48603515539E+02 -0.91918614251E+03  0.94379186077E+03  0.17395159988E+03 0.  0.
         24    2    5    5    0    0  0.12729868990E+03 -0.13043392524E+01 -0.52248813282E+03  0.54374917066E+03  0.80390633193E+02 0.  0.
          5    1    5    5  501    0 -0.12327167109E+02  0.49907854791E+02 -0.39669800970E+03  0.40004269012E+03  0.47000000000E+01 0. -1.
        -13    1    6    6    0    0 -0.61655664942E+01 -0.14645270025E+02 -0.71118894156E+02  0.72872458791E+02  0.00000000000E+00 0.  1.
         14    1    6    6    0    0  0.13346425640E+03  0.13340930773E+02 -0.45136923866E+03  0.47087671187E+03  0.00000000000E+00 0. -1.
         -5    1    3    3    0  503 -0.29910829273E+02  0.16665137514E+02 -0.34425443560E+02  0.48780997124E+02  0.47000000000E+01 0.  1.
         13    1    4    4    0    0 -0.57564038063E+01 -0.11304467800E+02 -0.41689776214E+03  0.41709072305E+03  0.00000000000E+00 0. -1.
        -14    1    4    4    0    0 -0.79304289713E+02 -0.53964185253E+02 -0.45856115219E+03  0.46848653551E+03  0.00000000000E+00 0.  1.
</event>
<event>
12    1  0.8449700E-002  0.1761180E+03  0.7818608E-02  0.1172092E+00
         21   -1    0    0  503  502  0.00000000000E+00  0.00000000000E+00  0.76824333976E+03  0.76824333976E+03  0.00000000000E+00 0.  1.
         21   -1    0    0  501  503 -0.00000000000E+00 -0.00000000000E+00 -0.14051405782E+03  0.14051405782E+03  0.00000000000E+00 0.  1.
          6    2    1    2  501    0 -0.17593538375E+02  0.24467978387E+02 -0.71039811078E+02  0.18813559516E+03  0.17158127184E+03 0.  0.
         24    2    3    3    0    0 -0.55758675201E+02  0.99001111906E+01 -0.90278024736E+02  0.14273736514E+03  0.94956788045E+02 0.  0.
         -6    2    1    2    0  502  0.17593538375E+02 -0.24467978387E+02  0.69876909302E+03  0.72062180241E+03  0.17352037978E+03 0.  0.
        -24    2    5    5    0    0 -0.55505625489E+02 -0.25746859909E+02  0.48222561965E+03  0.49202108248E+03  0.76153936884E+02 0.  0.
          5    1    3    3  501    0  0.38165136827E+02  0.14567867196E+02  0.19238213658E+02  0.45398230014E+02  0.47000000000E+01 0. -1.
        -13    1    4    4    0    0  0.19196767005E+02  0.60718980863E+01 -0.57344532598E+02  0.60776469367E+02  0.00000000000E+00 0.  1.
         14    1    4    4    0    0 -0.74955442207E+02  0.38282131043E+01 -0.32933492139E+02  0.81960895776E+02  0.00000000000E+00 0. -1.
         -5    1    5    5    0  502  0.73099163864E+02  0.12788815223E+01  0.21654347337E+03  0.22860071993E+03  0.47000000000E+01 0.  1.
         11    1    6    6    0    0 -0.20158747829E+02 -0.33389526609E+02  0.89441791271E+02  0.97575968491E+02  0.00000000000E+00 0. -1.
        -12    1    6    6    0    0 -0.35346877660E+02  0.76426666997E+01  0.39278382838E+03  0.39444511399E+03  0.00000000000E+00 0.  1.
</event>
<event>
12    1  0.8449700E-002  0.2647659E+03  0.7818608E-02  0.1104475E+00
         21   -1    0    0  503  502  0.00000000000E+00  0.00000000000E+00  0.24757376458E+03  0.24757376458E+03  0.00000000000E+00 0.  1.
         21   -1    0    0  501  503 -0.00000000000E+00 -0.00000000000E+00 -0.10744765800E+04  0.10744765800E+04  0.00000000000E+00 0. -1.
          6    2    1    2  501    0 -0.13612708265E+03  0.14784081984E+03 -0.98137834516E+03  0.10164666326E+04  0.17237595010E+03 0.  0.
         24    2    3    3    0    0 -0.17171228316E+02  0.63143217558E+02 -0.34589382162E+03  0.36440310135E+03  0.94155018097E+02 0.  0.
         -6    2    1    2    0  502  0.13612708265E+03 -0.14784081984E+03  0.15447552971E+03  0.30558371201E+03  0.17067871902E+03 0.  0.
        -24    2    5    5    0    0  0.90451410269E+02 -0.13590728572E+03  0.46169347007E+02  0.18734245231E+03  0.79456515797E+02 0.  0.
          5    1    3    3  501    0 -0.11895585433E+03  0.84697602285E+02 -0.63548452354E+03  0.65206353124E+03  0.47000000000E+01 0. -1.
        -13    1    4    4    0    0  0.25346258058E+02  0.56792524886E+02 -0.27103399594E+03  0.27807777803E+03  0.00000000000E+00 0.  1.
         14    1    4    4    0    0 -0.42517486374E+02  0.63506926716E+01 -0.74859825684E+02  0.86325323320E+02  0.00000000000E+00 0. -1.
         -5    1    5    5    0  502  0.45675672379E+02 -0.11933534122E+02  0.10830618271E+03  0.11824125970E+03  0.47000000000E+01 0.  1.
         11    1    6    6    0    0  0.39633536289E+02 -0.99716088517E+01  0.29752351998E+02  0.50551484956E+02  0.00000000000E+00 0. -1.
        -12    1    6    6    0    0  0.50817873980E+02 -0.12593567687E+03  0.16416995009E+02  0.13679096735E+03  0.00000000000E+00 0.  1.
</event>
<event>
12    1  0.8449700E-002  0.2509351E+03  0.7818608E-02  0.1112809E+00
         21   -1    0    0  503  502  0.00000000000E+00  0.00000000000E+00  0.56219848677E+03  0.56219848677E+03  0.00000000000E+00 0. -1.
         21   -1    0    0  501  503 -0.00000000000E+00 -0.00000000000E+00 -0.11204934267E+03  0.11204934267E+03  0.00000000000E+00 0.  1.
          6    2    1    2  501    0  0.32382557230E+01 -0.18248737198E+03  0.20706918710E+03  0.32488230207E+03  0.17134390774E+03 0.  0.
         24    2    3    3    0    0  0.16512043650E+02 -0.19697157766E+03  0.21532711138E+03  0.30305871452E+03  0.80052292676E+02 0.  0.
         -6    2    1    2    0  502 -0.32382557230E+01  0.18248737198E+03  0.24307995699E+03  0.34936552737E+03  0.17220998517E+03 0.  0.
        -24    2    5    5    0    0  0.82050369925E+01  0.38668572290E+02  0.16288110729E+03  0.18423303030E+03  0.76478580203E+02 0.  0.
          5    1    3    3  501    0 -0.13273787927E+02  0.14484205680E+02 -0.82579242765E+01  0.21823587548E+02  0.47000000000E+01 0. -1.
        -13    1    4    4    0    0  0.32540903992E+02 -0.10206523841E+03  0.67371580989E+02  0.12655099071E+03  0.00000000000E+00 0.  1.
         14    1    4    4    0    0 -0.16028860342E+02 -0.94906339252E+02  0.14795553039E+03  0.17650772382E+03  0.00000000000E+00 0. -1.
         -5    1    5    5    0  502 -0.11443292715E+02  0.14381879969E+03  0.80198849705E+02  0.16513249706E+03  0.47000000000E+01 0.  1.
         11    1    6    6    0    0  0.17455126707E+01  0.61340199351E+02  0.10322081431E+03  0.12008415123E+03  0.00000000000E+00 0. -1.
        -12    1    6    6    0    0  0.64595243218E+01 -0.22671627061E+02  0.59660292976E+02  0.64148879071E+02  0.00000000000E+00 0.  1.
</event>
<event>
12    1  0.8449700E-002  0.4133701E+03  0.7818608E-02  0.1039278E+00
         21   -1    0    0  501  502  0.00000000000E+00  0.00000000000E+00  0.84278330999E+02  0.84278330999E+02  0.00000000000E+00 0.  1.
         21   -1    0    0  502  503 -0.00000000000E+00 -0.00000000000E+00 -0.28982408957E+04  0.28982408957E+04  0.00000000000E+00 0. -1.
         -6    2    1    2    0  503  0.22204681325E+03  0.30239150712E+03 -0.22247921182E+04  0.22627994003E+04  0.17267236593E+03 0.  0.
        -24    2    3    3    0    0  0.51069634951E+02  0.17534882037E+03 -0.10090849765E+04  0.10285632057E+04  0.79589332487E+02 0.  0.
          6    2    1    2  501    0 -0.22204681325E+03 -0.30239150712E+03 -0.58917044650E+03  0.71971982640E+03  0.17357823199E+03 0.  0.
         24    2    5    5    0    0 -0.64569258526E+02 -0.12607860455E+03 -0.33776091217E+03  0.37459048280E+03  0.78553117983E+02 0.  0.
          5    1    5    5  501    0 -0.15747755473E+03 -0.17631290257E+03 -0.25140953433E+03  0.34512934359E+03  0.47000000000E+01 0. -1.
        -13    1    6    6    0    0 -0.41708137109E+02 -0.50145553401E+02 -0.71538904854E+02  0.96808884586E+02  0.00000000000E+00 0.  1.
         14    1    6    6    0    0 -0.22861121417E+02 -0.75933051153E+02 -0.26622200731E+03  0.27778159822E+03  0.00000000000E+00 0. -1.
         -5    1    3    3    0  503  0.17097717830E+03  0.12704268675E+03 -0.12157071417E+04  0.12342361946E+04  0.47000000000E+01 0.  1.
         11    1    4    4    0    0  0.41687536158E+02  0.70982504012E+02 -0.62659360948E+03  0.63197778282E+03  0.00000000000E+00 0. -1.
        -12    1    4    4    0    0  0.93820987929E+01  0.10436631636E+03 -0.38249136704E+03  0.39658542286E+03  0.00000000000E+00 0.  1.
</event>
<event>
12    1  0.8449700E-002  0.1719478E+03  0.7818608E-02  0.1176955E+00
         21   -1    0    0  503  502  0.00000000000E+00  0.00000000000E+00  0.23891746932E+03  0.23891746932E+03  0.00000000000E+00 0.  1.
         21   -1    0    0  501  503 -0.00000000000E+00 -0.00000000000E+00 -0.12089830800E+03  0.12089830800E+03  0.00000000000E+00 0.  1.
          6    2    1    2  501    0 -0.17829901112E+01 -0.26121762342E+01  0.67662302630E+02  0.18478161365E+03  0.17191874542E+03 0.  0.
         24    2    3    3    0    0  0.30685845381E+02  0.33873868267E+02 -0.11904731665E+02  0.91301884999E+02  0.78136108876E+02 0.  0.
         -6    2    1    2    0  502  0.17829901112E+01  0.26121762342E+01  0.50356858696E+02  0.17503416367E+03  0.16760412500E+03 0.  0.
        -24    2    5    5    0    0 -0.62498412310E+02  0.48663898048E+01  0.18125915454E+02  0.10293628660E+03  0.79609025853E+02 0.  0.
          5    1    3    3  501    0 -0.32468835492E+02 -0.36486044501E+02  0.79567034296E+02  0.93479728648E+02  0.47000000000E+01 0. -1.
        -11    1    4    4    0    0 -0.22294256679E+02  0.20250800080E+02 -0.19781968393E+02  0.36034081898E+02  0.00000000000E+00 0.  1.
         12    1    4    4    0    0  0.52980102060E+02  0.13623068187E+02  0.78772367273E+01  0.55267803101E+02  0.00000000000E+00 0. -1.
         -5    1    5    5    0  502  0.64281402421E+02 -0.22542135706E+01  0.32230943242E+02  0.72097877072E+02  0.47000000000E+01 0.  1.
         13    1    6    6    0    0 -0.61835400518E+02  0.21413358949E+02  0.39086885403E+02  0.76222918530E+02  0.00000000000E+00 0. -1.
        -14    1    6    6    0    0 -0.66301179205E+00 -0.16546969145E+02 -0.20960969949E+02  0.26713368071E+02  0.00000000000E+00 0.  1.
</event>
<event>
12    1  0.8449700E-002  0.2126532E+03  0.7818608E-02  0.1141123E+00
         21   -1    0    0  503  502  0.00000000000E+00  0.00000000000E+00  0.13168541927E+04  0.13168541927E+04  0.00000000000E+00 0. -1.
         21   -1    0    0  501  503 -0.00000000000E+00 -0.00000000000E+00 -0.35232611003E+02  0.35232611003E+02  0.00000000000E+00 0. -1.
          6    2    1    2  501    0 -0.53739751979E+02 -0.98551828636E+02  0.48334506719E+03  0.52805667913E+03  0.18061278618E+03 0.  0.
         24    2    3    3    0    0 -0.85337638345E+02 -0.73232100600E+02  0.46093354584E+03  0.48153914116E+03  0.82308916312E+02 0.  0.
         -6    2    1    2    0  502  0.53739751979E+02  0.98551828636E+02  0.79827651452E+03  0.82403012458E+03  0.17082104294E+03 0.  0.
        -24    2    5    5    0    0 -0.36167661656E+02  0.60858821875E+02  0.39285007244E+03  0.40702077730E+03  0.79516273705E+02 0.  0.
          5    1    3    3  501    0  0.31597886366E+02 -0.25319728035E+02  0.22411521345E+02  0.46517537978E+02  0.47000000000E+01 0. -1.
        -13    1    4    4    0    0 -0.44172610786E+02 -0.42030031369E+00  0.26260171029E+03  0.26629129622E+03  0.00000000000E+00 0.  1.
         14    1    4    4    0    0 -0.41165027559E+02 -0.72811800287E+02  0.19833183556E+03  0.21524784494E+03  0.00000000000E+00 0. -1.
         -5    1    5    5    0  502  0.89907413635E+02  0.37693006761E+02  0.40542644208E+03  0.41700934728E+03  0.47000000000E+01 0.  1.
         13    1    6    6    0    0 -0.22758021126E+02 -0.14676511462E+02  0.67087201823E+02  0.72346528339E+02  0.00000000000E+00 0. -1.
        -14    1    6    6    0    0 -0.13409640531E+02  0.75535333337E+02  0.32576287062E+03  0.33467424896E+03  0.00000000000E+00 0.  1.
</event>
<event>
12    1  0.8449700E-002  0.1774847E+03  0.7818608E-02  0.1170594E+00
         21   -1    0    0  501  502  0.00000000000E+00  0.00000000000E+00  0.63525117376E+03  0.63525117376E+03  0.00000000000E+00 0.  1.
         21   -1    0    0  502  503 -0.00000000000E+00 -0.00000000000E+00 -0.49338264834E+02  0.49338264834E+02  0.00000000000E+00 0.  1.
         -6    2    1    2    0  503 -0.26862217387E+02  0.21148354692E+02  0.31143997830E+03  0.35846294378E+03  0.17416081751E+03 0.  0.
        -24    2    3    3    0    0 -0.65781608978E+02  0.43365147974E+02  0.28478180853E+03  0.30610787755E+03  0.79959978027E+02 0.  0.
          6    2    1    2  501    0  0.26862217387E+02 -0.21148354692E+02  0.27447293062E+03  0.32612649481E+03  0.17278388044E+03 0.  0.
         24    2    5    5    0    0  0.23110492627E+02 -0.23719125707E+01  0.42661575802E+02  0.93478209960E+02  0.79865166679E+02 0.  0.
          5    1    5    5  501    0  0.37517247603E+01 -0.18776442121E+02  0.23181135482E+03  0.23264828485E+03  0.47000000000E+01 0. -1.
        -11    1    6    6    0    0  0.52345846341E+02 -0.83244772944E+01  0.31283304793E+02  0.61546971576E+02  0.00000000000E+00 0.  1.
         12    1    6    6    0    0 -0.29235353714E+02  0.59525647236E+01  0.11378271009E+02  0.31931238384E+02  0.00000000000E+00 0. -1.
         -5    1    3    3    0  503  0.38919391591E+02 -0.22216793282E+02  0.26658169763E+02  0.52355066236E+02  0.47000000000E+01 0.  1.
         11    1    4    4    0    0  0.18613231058E+02  0.62994259166E+01  0.60960624950E+02  0.64049456918E+02  0.00000000000E+00 0. -1.
        -12    1    4    4    0    0 -0.84394840036E+02  0.37065722057E+02  0.22382118358E+03  0.24205842063E+03  0.00000000000E+00 0.  1.
</event>
<event>
12    1  0.8449700E-002  0.1798453E+03  0.7818608E-02  0.1168137E+00
         21   -1    0    0  501  502  0.00000000000E+00  0.00000000000E+00  0.93544365653E+02  0.93544365653E+02  0.00000000000E+00 0. -1.
         21   -1    0    0  502  503 -0.00000000000E+00 -0.00000000000E+00 -0.57271456683E+03  0.57271456683E+03  0.00000000000E+00 0. -1.
         -6    2    1    2    0  503  0.30269884490E+02 -0.40123973632E+02 -0.29513444600E+02  0.18225087640E+03  0.17267929630E+03 0.  0.
        -24    2    3    3    0    0 -0.22534729689E+02 -0.25603836329E+02  0.39149046740E+02  0.94297540007E+02  0.78714723616E+02 0.  0.
          6    2    1    2  501    0 -0.30269884490E+02  0.40123973632E+02 -0.44965675658E+03  0.48400805609E+03  0.17189066423E+03 0.  0.
         24    2    5    5    0    0 -0.83562798771E+02  0.40396747598E+02 -0.27566754879E+03  0.30197909261E+03  0.81142691353E+02 0.  0.
          5    1    5    5  501    0  0.53292914281E+02 -0.27277396634E+00 -0.17398920779E+03  0.18202896348E+03  0.47000000000E+01 0. -1.
        -13    1    6    6    0    0  0.10265346404E+02  0.25553257652E+01 -0.27756606580E+01  0.10936695966E+02  0.00000000000E+00 0.  1.
         14    1    6    6    0    0 -0.93828145175E+02  0.37841421833E+02 -0.27289188813E+03  0.29104239664E+03  0.00000000000E+00 0. -1.
         -5    1    3    3    0  503  0.52804614179E+02 -0.14520137303E+02 -0.68662491340E+02  0.87953336394E+02  0.47000000000E+01 0.  1.
         11    1    4    4    0    0 -0.45448757993E+02 -0.18904828914E+02  0.92698188395E+00  0.49232524360E+02  0.00000000000E+00 0. -1.
        -12    1    4    4    0    0  0.22914028305E+02 -0.66990074146E+01  0.38222064856E+02  0.45065015648E+02  0.00000000000E+00 0.  1.
</event>
<event>
12    1  0.8449700E-002  0.1976605E+03  0.7818608E-02  0.1151760E+00
         21   -1    0    0  501  502  0.00000000000E+00  0.00000000000E+00  0.86008253833E+02  0.86008253833E+02  0.00000000000E+00 0.  1.
         21   -1    0    0  502  503 -0.00000000000E+00 -0.00000000000E+00 -0.52533294007E+03  0.52533294007E+03  0.00000000000E+00 0.  1.
         -6    2    1    2    0  503 -0.96673484490E+02  0.21219691359E+02 -0.33244441183E+03  0.38676733813E+03  0.17109543823E+03 0.  0.
        -24    2    3    3    0    0  0.33041556589E+01  0.33063067229E+02 -0.90818542616E+02  0.12496408232E+03  0.79144995592E+02 0.  0.
          6    2    1    2  501    0  0.96673484490E+02 -0.21219691359E+02 -0.10688027441E+03  0.22457385577E+03  0.17092099267E+03 0.  0.
         24    2    5    5    0    0  0.88590965990E+02 -0.68130693463E+02 -0.11027773090E+03  0.17661969084E+03  0.80889966087E+02 0.  0.
          5    1    5    5  501    0  0.80825184997E+01  0.46911002104E+02  0.33974564891E+01  0.47954164932E+02  0.47000000000E+01 0. -1.
        -11    1    6    6    0    0  0.76834277504E+02 -0.79653989469E+02 -0.64783774887E+02  0.12823884640E+03  0.00000000000E+00 0.  1.
         12    1    6    6    0    0  0.11756688487E+02  0.11523296006E+02 -0.45493956012E+02  0.48380844439E+02  0.00000000000E+00 0. -1.
         -5    1    3    3    0  503 -0.99977640149E+02 -0.11843375871E+02 -0.24162586921E+03  0.26180325581E+03  0.47000000000E+01 0.  1.
         11    1    4    4    0    0  0.11767072729E+02 -0.21234098962E+02 -0.52882992175E+02  0.58189018042E+02  0.00000000000E+00 0. -1.
        -12    1    4    4    0    0 -0.84629170700E+01  0.54297166191E+02 -0.37935550441E+02  0.66775064275E+02  0.00000000000E+00 0.  1.
</event>
<event>
12    1  0.8449700E-002  0.2280880E+03  0.7818608E-02  0.1128241E+00
         21   -1    0    0  503  502  0.00000000000E+00  0.00000000000E+00  0.21755329998E+03  0.21755329998E+03  0.00000000000E+00 0. -1.
         21   -1    0    0  501  503 -0.00000000000E+00 -0.00000000000E+00 -0.40025021607E+03  0.40025021607E+03  0.00000000000E+00 0.  1.
          6    2    1    2  501    0  0.71754960503E+02  0.13087349504E+03 -0.28838551136E+03  0.36768237823E+03  0.17247458374E+03 0.  0.
         24    2    3    3    0    0  0.38944817560E+01  0.13487766326E+03 -0.22557554016E+03  0.27500951046E+03  0.80862571612E+02 0.  0.
         -6    2    1    2    0  502 -0.71754960503E+02 -0.13087349504E+03  0.10568859527E+03  0.25012113781E+03  0.17062783580E+03 0.  0.
        -24    2    5    5    0    0 -0.93312640694E+02 -0.93974444945E+02  0.12939102093E+03  0.20102767129E+03  0.78304809010E+02 0.  0.
          5    1    3    3  501    0  0.67860478747E+02 -0.40041682259E+01 -0.62809971200E+02  0.92672867772E+02  0.47000000000E+01 0. -1.
        -13    1    4    4    0    0 -0.18819084496E+02  0.34766197967E+02 -0.12575736025E+03  0.13182473258E+03  0.00000000000E+00 0.  1.
         14    1    4    4    0    0  0.22713566252E+02  0.10011146529E+03 -0.99818179912E+02  0.14318477788E+03  0.00000000000E+00 0. -1.
         -5    1    5    5    0  502  0.21557680191E+02 -0.36899050090E+02 -0.23702425650E+02  0.49093466515E+02  0.47000000000E+01 0.  1.
         11    1    6    6    0    0  0.10994699586E+02 -0.39478105095E+01 -0.46822311160E+00  0.11691358333E+02  0.00000000000E+00 0. -1.
        -12    1    6    6    0    0 -0.10430734028E+03 -0.90026634435E+02  0.12985924404E+03  0.18933631296E+03  0.00000000000E+00 0.  1.
</event>
<event>
12    1  0.8449700E-002  0.3185190E+03  0.7818608E-02  0.1076363E+00
         21   -1    0    0  501  502  0.00000000000E+00  0.00000000000E+00  0.73767183537E+03  0.73767183537E+03  0.00000000000E+00 0. -1.
         21   -1    0    0  502  503 -0.00000000000E+00 -0.00000000000E+00 -0.23992110668E+03  0.23992110668E+03  0.00000000000E+00 0.  1.
         -6    2    1    2    0  503 -0.13774017213E+03  0.23300547751E+03 -0.70556086075E+02  0.32623996141E+03  0.16790009997E+03 0.  0.
        -24    2    3    3    0    0 -0.48963098741E+02  0.43995594759E+02 -0.53781742195E+02  0.11669384918E+03  0.79949867081E+02 0.  0.
          6    2    1    2  501    0  0.13774017213E+03 -0.23300547751E+03  0.56830681476E+03  0.65135298064E+03  0.16740418786E+03 0.  0.
         24    2    5    5    0    0  0.16137925460E+03 -0.21423715194E+03  0.55221729574E+03  0.61682735411E+03  0.59926805174E+02 0.  0.
          5    1    5    5  501    0 -0.23639082470E+02 -0.18768325574E+02  0.16089519024E+02  0.34525626530E+02  0.47000000000E+01 0. -1.
        -13    1    6    6    0    0  0.87705551967E+02 -0.11287999227E+03  0.22647139152E+03  0.26781233668E+03  0.00000000000E+00 0.  1.
         14    1    6    6    0    0  0.73673702628E+02 -0.10135715967E+03  0.32574590422E+03  0.34901501743E+03  0.00000000000E+00 0. -1.
         -5    1    3    3    0  503 -0.88777073385E+02  0.18900988275E+03 -0.16774343880E+02  0.20954611223E+03  0.47000000000E+01 0.  1.
         13    1    4    4    0    0 -0.11033575843E+02 -0.23377042062E+02 -0.91564949229E+01  0.27423845295E+02  0.00000000000E+00 0. -1.
        -14    1    4    4    0    0 -0.37929522897E+02  0.67372636821E+02 -0.44625247272E+02  0.89270003884E+02  0.00000000000E+00 0.  1.
</event>
<event>
12    1  0.8449700E-002  0.2070352E+03  0.7818608E-02  0.1144027E+00
         21   -1    0    0  501  502  0.00000000000E+00  0.00000000000E+00  0.36015198300E+03  0.36015198300E+03  0.00000000000E+00 0.  1.
         21   -1    0    0  502  503 -0.00000000000E+00 -0.00000000000E+00 -0.15840253886E+03  0.15840253886E+03  0.00000000000E+00 0.  1.
         -6    2    1    2    0  503  0.23798387698E+02 -0.11182696569E+03 -0.28921528840E+02  0.20859862115E+03  0.17206189701E+03 0.  0.
        -24    2    3    3    0    0 -0.18000281554E+02 -0.40301959180E+02 -0.70744004799E+02  0.11567841451E+03  0.80178072549E+02 0.  0.
          6    2    1    2  501    0 -0.23798387698E+02  0.11182696569E+03  0.23067097297E+03  0.30995590071E+03  0.17260338669E+03 0.  0.
         24    2    5    5    0    0 -0.56326024026E+02  0.60908452440E+02  0.22044530736E+03  0.24849537391E+03  0.79191898299E+02 0.  0.
          5    1    5    5  501    0  0.32527636327E+02  0.50918513254E+02  0.10225665614E+02  0.61460526798E+02  0.47000000000E+01 0. -1.
        -13    1    6    6    0    0 -0.75101002102E+02  0.43436719744E+02  0.14689768509E+03  0.17060433471E+03  0.00000000000E+00 0.  1.
         14    1    6    6    0    0  0.18774978076E+02  0.17471732696E+02  0.73547622274E+02  0.77891039198E+02  0.00000000000E+00 0. -1.
         -5    1    3    3    0  503  0.41798669252E+02 -0.71525006513E+02  0.41822475959E+02  0.92920206647E+02  0.47000000000E+01 0.  1.
         11    1    4    4    0    0 -0.13998336711E+02  0.11703999091E+02 -0.59614684974E+02  0.62344588297E+02  0.00000000000E+00 0. -1.
        -12    1    4    4    0    0 -0.40019448426E+01 -0.52005958271E+02 -0.11129319825E+02  0.53333826208E+02  0.00000000000E+00 0.  1.
</event>
<event>
12    1  0.8449700E-002  0.1824785E+03  0.7818608E-02  0.1166314E+00
         21   -1    0    0  503  502  0.00000000000E+00  0.00000000000E+00  0.64686303892E+03  0.64686303892E+03  0.00000000000E+00 0. -1.
         21   -1    0    0  501  503 -0.00000000000E+00 -0.00000000000E+00 -0.60914952645E+02  0.60914952645E+02  0.00000000000E+00 0. -1.
          6    2    1    2  501    0  0.77417704599E+01 -0.58596706153E+02  0.14870736551E+03  0.23539810235E+03  0.17264089043E+03 0.  0.
         24    2    3    3    0    0 -0.23956213400E+02 -0.82793954582E+02  0.15503904744E+03  0.19474777383E+03  0.80379413455E+02 0.  0.
         -6    2    1    2    0  502 -0.77417704599E+01  0.58596706153E+02  0.43724072076E+03  0.47237988921E+03  0.16872997026E+03 0.  0.
        -24    2    5    5    0    0  0.23579363119E+02  0.88592696113E+02  0.22745585489E+03  0.25810774271E+03  0.80490923410E+02 0.  0.
          5    1    3    3  501    0  0.31697983860E+02  0.24197248429E+02 -0.63316819230E+01  0.40650328514E+02  0.47000000000E+01 0. -1.
        -11    1    4    4    0    0 -0.46476992670E+02 -0.30265096090E+02  0.47751302429E+02  0.73186568253E+02  0.00000000000E+00 0.  1.
         12    1    4    4    0    0  0.22520779270E+02 -0.52528858492E+02  0.10728774501E+03  0.12156120558E+03  0.00000000000E+00 0. -1.
         -5    1    5    5    0  502 -0.31321133579E+02 -0.29995989960E+02  0.20978486586E+03  0.21427214650E+03  0.47000000000E+01 0.  1.
         11    1    6    6    0    0  0.16779054260E+02  0.45966639487E+02  0.33246096487E+02  0.59158866954E+02  0.00000000000E+00 0. -1.
        -12    1    6    6    0    0  0.68003088588E+01  0.42626056626E+02  0.19420975841E+03  0.19894887576E+03  0.00000000000E+00 0.  1.
</event>
<event>
12    1  0.8449700E-002  0.4203246E+03  0.7818608E-02  0.1037022E+00
         21   -1    0    0  501  502  0.00000000000E+00  0.00000000000E+00  0.97210275996E+02  0.97210275996E+02  0.00000000000E+00 0.  1.
         21   -1    0    0  502  503 -0.00000000000E+00 -0.00000000000E+00 -0.20802212120E+04  0.20802212120E+04  0.00000000000E+00 0. -1.
         -6    2    1    2    0  503 -0.33601031145E+03  0.18246184724E+03 -0.13800799814E+04  0.14424495353E+04  0.17275604654E+03 0.  0.
        -24    2    3    3    0    0 -0.72250796886E+02  0.90263603621E+02 -0.51781283481E+03  0.53603002988E+03  0.76356828433E+02 0.  0.
          6    2    1    2  501    0  0.33601031145E+03 -0.18246184724E+03 -0.60293095459E+03  0.73498195272E+03  0.17457800468E+03 0.  0.
         24    2    5    5    0    0  0.31214256738E+03 -0.16977661582E+03 -0.60645198439E+03  0.70732201862E+03  0.79141310354E+02 0.  0.
          5    1    5    5  501    0  0.23867744074E+02 -0.12685231421E+02  0.35210298032E+01  0.27659934097E+02  0.47000000000E+01 0. -1.
        -13    1    6    6    0    0  0.51829128729E+02 -0.41256734123E+02 -0.17662616219E+03  0.18864033998E+03  0.00000000000E+00 0.  1.
         14    1    6    6    0    0  0.26031343865E+03 -0.12851988170E+03 -0.42982582220E+03  0.51868167865E+03  0.00000000000E+00 0. -1.
         -5    1    3    3    0  503 -0.26375951457E+03  0.92198243623E+02 -0.86226714661E+03  0.90641950540E+03  0.47000000000E+01 0.  1.
         13    1    4    4    0    0  0.55081151780E+01  0.50547336309E+02 -0.17142362548E+03  0.17880557014E+03  0.00000000000E+00 0. -1.
        -14    1    4    4    0    0 -0.77758912064E+02  0.39716267312E+02 -0.34638920934E+03  0.35722445974E+03  0.00000000000E+00 0.  1.
</event>
<event>
12    1  0.8449700E-002  0.2019011E+03  0.7818608E-02  0.1148492E+00
         21   -1    0    0  503  502  0.00000000000E+00  0.00000000000E+00  0.40780962912E+03  0.40780962912E+03  0.00000000000E+00 0. -1.
         21   -1    0    0  501  503 -0.00000000000E+00 -0.00000000000E+00 -0.10115740905E+03  0.10115740905E+03  0.00000000000E+00 0. -1.
          6    2    1    2  501    0  0.96578675675E+02 -0.39522063344E+02  0.11676669374E+03  0.23180183897E+03  0.17090405992E+03 0.  0.
         24    2    3    3    0    0  0.74943823345E+02 -0.61236892580E+02  0.14453014781E+03  0.19017852788E+03  0.76891970775E+02 0.  0.
         -6    2    1    2    0  502 -0.96578675675E+02  0.39522063344E+02  0.18988552633E+03  0.27716519920E+03  0.17284270436E+03 0.  0.
        -24    2    5    5    0    0 -0.69619186777E+02  0.52798013979E+02  0.20736668537E+03  0.24208321197E+03  0.89268571552E+02 0.  0.
          5    1    3    3  501    0  0.21634852330E+02  0.21714829236E+02 -0.27763454075E+02  0.41623311092E+02  0.47000000000E+01 0. -1.
        -11    1    4    4    0    0  0.51343810912E+01 -0.46584832990E+02  0.31314307700E+02  0.56365720084E+02  0.00000000000E+00 0.  1.
         12    1    4    4    0    0  0.69809442254E+02 -0.14652059590E+02  0.11321584011E+03  0.13381280780E+03  0.00000000000E+00 0. -1.
         -5    1    5    5    0  502 -0.26959488898E+02 -0.13275950635E+02 -0.17481159038E+02  0.35081987233E+02  0.47000000000E+01 0.  1.
         11    1    6    6    0    0 -0.39968037074E+02 -0.16266292979E+02  0.40985992976E+02  0.59513762233E+02  0.00000000000E+00 0. -1.
        -12    1    6    6    0    0 -0.29651149702E+02  0.69064306958E+02  0.16638069240E+03  0.18256944974E+03  0.00000000000E+00 0.  1.
</event>
<event>
12    1  0.8449700E-002  0.1863438E+03  0.7818608E-02  0.1164976E+00
         21   -1    0    0  503  502  0.00000000000E+00  0.00000000000E+00  0.18809028484E+03  0.18809028484E+03  0.00000000000E+00 0.  1.
         21   -1    0    0  501  503 -0.00000000000E+00 -0.00000000000E+00 -0.22542269517E+03  0.22542269517E+03  0.00000000000E+00 0.  1.
          6    2    1    2  501    0 -0.40636293303E+02  0.17607801669E+02 -0.12000660679E+03  0.22164297615E+03  0.18100464135E+03 0.  0.
         24    2    3    3    0    0 -0.67358073336E+02 -0.48174833760E+02 -0.66538082266E+02  0.13263521375E+03  0.79415734489E+02 0.  0.
         -6    2    1    2    0  502  0.40636293303E+02 -0.17607801669E+02  0.82674196464E+02  0.19187000386E+03  0.16738498322E+03 0.  0.
        -24    2    5    5    0    0  0.11444640584E+01  0.11061012669E+02  0.10938549268E+03  0.13603910884E+03  0.80111156068E+02 0.  0.
          5    1    3    3  501    0  0.26721780033E+02  0.65782635430E+02 -0.53468524524E+02  0.89007762397E+02  0.47000000000E+01 0. -1.
        -11    1    4    4    0    0 -0.75715254129E+02 -0.25686148932E+02 -0.23455627007E+02  0.83323132401E+02  0.00000000000E+00 0.  1.
         12    1    4    4    0    0  0.83571807937E+01 -0.22488684828E+02 -0.43082455260E+02  0.49312081353E+02  0.00000000000E+00 0. -1.
         -5    1    5    5    0  502  0.39491829244E+02 -0.28668814338E+02 -0.26711296219E+02  0.55830895016E+02  0.47000000000E+01 0.  1.
         13    1    6    6    0    0 -0.34238214450E+01  0.14648492780E+02 -0.89875687130E+01  0.17523620784E+02  0.00000000000E+00 0. -1.
        -14    1    6    6    0    0  0.45682855034E+01 -0.35874801114E+01  0.11837306140E+03  0.11851548806E+03  0.00000000000E+00 0.  1.
</event>
<event>
12    1  0.8449700E-002  0.2116690E+03  0.7818608E-02  0.1142743E+00
         21   -1    0    0  501  502  0.00000000000E+00  0.00000000000E+00  0.40007384692E+03  0.40007384692E+03  0.00000000000E+00 0. -1.
         21   -1    0    0  502  503 -0.00000000000E+00 -0.00000000000E+00 -0.11633303998E+03  0.11633303998E+03  0.00000000000E+00 0. -1.
         -6    2    1    2    0  503 -0.46265972813E+02 -0.76921810254E+02  0.67213046601E+02  0.22208414121E+03  0.19169315849E+03 0.  0.
        -24    2    3    3    0    0 -0.76554442144E+02 -0.11503738025E+03  0.66570719704E+02  0.17316900414E+03  0.80384462465E+02 0.  0.
          6    2    1    2  501    0  0.46265972813E+02  0.76921810254E+02  0.21652776034E+03  0.29432274569E+03  0.17800028792E+03 0.  0.
         24    2    5    5    0    0 -0.41797939752E+02  0.17626784603E+02  0.89555263885E+02  0.12874721121E+03  0.80609725223E+02 0.  0.
          5    1    5    5  501    0  0.88063912565E+02  0.59295025651E+02  0.12697249645E+03  0.16557553448E+03  0.47000000000E+01 0. -1.
        -11    1    6    6    0    0 -0.14536023523E+02  0.54282620905E+01  0.96782613032E+02  0.98018550257E+02  0.00000000000E+00 0.  1.
         12    1    6    6    0    0 -0.27261916229E+02  0.12198522512E+02 -0.72273491468E+01  0.30728660948E+02  0.00000000000E+00 0. -1.
         -5    1    3    3    0  503  0.30288469331E+02  0.38115570001E+02  0.64232689762E+00  0.48915137072E+02  0.47000000000E+01 0.  1.
         13    1    4    4    0    0 -0.30179904859E+02 -0.83188082761E+02  0.75353776547E+02  0.11622940854E+03  0.00000000000E+00 0. -1.
        -14    1    4    4    0    0 -0.46374537285E+02 -0.31849297493E+02 -0.87830568431E+01  0.56939595597E+02  0.00000000000E+00 0.  1.
</event>
<event>
12    1  0.8449700E-002  0.1802675E+03  0.7818608E-02  0.1167658E+00
         21   -1    0    0  503  502  0.00000000000E+00  0.00000000000E+00  0.62428970936E+03  0.62428970936E+03  0.00000000000E+00 0. -1.
         21   -1    0    0  501  503 -0.00000000000E+00 -0.00000000000E+00 -0.20216350549E+03  0.20216350549E+03  0.00000000000E+00 0. -1.
          6    2    1    2  501    0 -0.11835375960E+02  0.49129014092E+02 -0.14524413980E+03  0.23113356906E+03  0.17254892190E+03 0.  0.
         24    2    3    3    0    0  0.58869706354E+02  0.25564731524E+02 -0.64469685152E+02  0.12112863007E+03  0.79978790283E+02 0.  0.
         -6    2    1    2    0  502  0.11835375960E+02 -0.49129014092E+02  0.56737034367E+03  0.59531964579E+03  0.17303941067E+03 0.  0.
        -24    2    5    5    0    0 -0.46784311657E+01 -0.35477268688E+02  0.56827322267E+03  0.57336557627E+03  0.67328330784E+02 0.  0.
          5    1    3    3  501    0 -0.70705082314E+02  0.23564282568E+02 -0.80774454645E+02  0.11000493899E+03  0.47000000000E+01 0. -1.
        -13    1    4    4    0    0  0.42733603880E+02  0.48993495663E+02 -0.19422884148E+02  0.67851101292E+02  0.00000000000E+00 0.  1.
         14    1    4    4    0    0  0.16136102474E+02 -0.23428764139E+02 -0.45046801004E+02  0.53277528779E+02  0.00000000000E+00 0. -1.
         -5    1    5    5    0  502  0.16513807126E+02 -0.13651745404E+02 -0.90287900730E+00  0.21954069529E+02  0.47000000000E+01 0.  1.
         11    1    6    6    0    0  0.17433393410E+02 -0.47825457981E+02  0.37368458967E+03  0.37713574505E+03  0.00000000000E+00 0. -1.
        -12    1    6    6    0    0 -0.22111824575E+02  0.12348189293E+02  0.19458863300E+03  0.19622983121E+03  0.00000000000E+00 0.  1.
</event>
<event>
12    1  0.8449700E-002  0.1901668E+03  0.7818608E-02  0.1158496E+00
         21   -1    0    0  503  502  0.00000000000E+00  0.00000000000E+00  0.25470605154E+03  0.25470605154E+03  0.00000000000E+00 0.  1.
         21   -1    0    0  501  503 -0.00000000000E+00 -0.00000000000E+00 -0.15951732758E+03  0.15951732758E+03  0.00000000000E+00 0.  1.
          6    2    1    2  501    0  0.65578109871E+02  0.46932886092E+02 -0.22351893044E+02  0.19066311457E+03  0.17131734251E+03 0.  0.
         24    2    3    3    0    0  0.27865310005E+02  0.86570106806E+02  0.19213600654E+02  0.12179262157E+03  0.78698293022E+02 0.  0.
         -6    2    1    2    0  502 -0.65578109871E+02 -0.46932886092E+02  0.11754061700E+03  0.22356026456E+03  0.17222140097E+03 0.  0.
        -24    2    5    5    0    0 -0.18739717122E+02 -0.84964248728E+01 -0.28503351576E+02  0.65376424216E+02  0.55120500349E+02 0.  0.
          5    1    3    3  501    0  0.37712799866E+02 -0.39637220714E+02 -0.41565493698E+02  0.68870493000E+02  0.47000000000E+01 0. -1.
        -11    1    4    4    0    0  0.52745003827E+02  0.47558218336E+02 -0.16434620726E+01  0.71038866317E+02  0.00000000000E+00 0.  1.
         12    1    4    4    0    0 -0.24879693822E+02  0.39011888470E+02  0.20857062727E+02  0.50753755252E+02  0.00000000000E+00 0. -1.
         -5    1    5    5    0  502 -0.46838392749E+02 -0.38436461219E+02  0.14604396858E+03  0.15818384034E+03  0.47000000000E+01 0.  1.
         13    1    6    6    0    0  0.97310519911E+01 -0.21285406394E+02 -0.44703336135E+00  0.23408582551E+02  0.00000000000E+00 0. -1.
        -14    1    6    6    0    0 -0.28470769113E+02  0.12788981521E+02 -0.28056318215E+02  0.41967841665E+02  0.00000000000E+00 0.  1.
</event>
<event>
12    1  0.8449700E-002  0.2095803E+03  0.7818608E-02  0.1142025E+00
         21   -1    0    0  503  502  0.00000000000E+00  0.00000000000E+00  0.10891453516E+03  0.10891453516E+03  0.00000000000E+00 0. -1.
         21   -1    0    0  501  503 -0.00000000000E+00 -0.00000000000E+00 -0.61062775062E+03  0.61062775062E+03  0.00000000000E+00 0. -1.
          6    2    1    2  501    0 -0.51609618526E+02 -0.10650090311E+03 -0.46086571179E+03  0.50601848956E+03  0.17219614510E+03 0.  0.
         24    2    3    3    0    0 -0.15490785810E+02 -0.67070916499E+02 -0.66927853196E+02  0.10844029555E+03  0.50413171698E+02 0.  0.
         -6    2    1    2    0  502  0.51609618526E+02  0.10650090311E+03 -0.40847503668E+02  0.21352379622E+03  0.17296791005E+03 0.  0.
        -24    2    5    5    0    0  0.74484175160E+02  0.93736392986E+02  0.22545322841E+02  0.14477120708E+03  0.78204904572E+02 0.  0.
          5    1    3    3  501    0 -0.36118832717E+02 -0.39429986609E+02 -0.39393785859E+03  0.39757819401E+03  0.47000000000E+01 0. -1.
        -11    1    4    4    0    0 -0.29487427041E+02 -0.19460794882E+02 -0.32837448862E+02  0.48234105555E+02  0.00000000000E+00 0.  1.
         12    1    4    4    0    0  0.13996641231E+02 -0.47610121617E+02 -0.34090404334E+02  0.60206189995E+02  0.00000000000E+00 0. -1.
         -5    1    5    5    0  502 -0.22874556634E+02  0.12764510123E+02 -0.63392826510E+02  0.68752589135E+02  0.47000000000E+01 0.  1.
         13    1    6    6    0    0 -0.21486750774E+01  0.48610589162E+02  0.27149646739E+02  0.55719920148E+02  0.00000000000E+00 0. -1.
        -14    1    6    6    0    0  0.76632850238E+02  0.45125803823E+02 -0.46043238976E+01  0.89051286935E+02  0.00000000000E+00 0.  1.
</event>
<event>
12    1  0.8449700E-002  0.2045095E+03  0.7818608E-02  0.1146492E+00
         21   -1    0    0  503  502  0.00000000000E+00  0.00000000000E+00  0.44315689942E+02  0.44315689942E+02  0.00000000000E+00 0. -1.
         21   -1    0    0  501  503 -0.00000000000E+00 -0.00000000000E+00 -0.10028303354E+04  0.10028303354E+04  0.00000000000E+00 0. -1.
          6    2    1    2  501    0  0.58006338681E+02  0.87980918544E+02 -0.62051291994E+03  0.65334555385E+03  0.17526765696E+03 0.  0.
         24    2    3    3    0    0  0.65306440917E+02  0.65928657908E+02 -0.61760444901E+03  0.62946788866E+03  0.78632361422E+02 0.  0.
         -6    2    1    2    0  502 -0.58006338681E+02 -0.87980918544E+02 -0.33800172556E+03  0.39380047153E+03  0.17241887234E+03 0.  0.
        -24    2    5    5    0    0 -0.35815707612E+02  0.21602010817E+02 -0.13334185184E+03  0.16054396802E+03  0.79024707746E+02 0.  0.
          5    1    3    3  501    0 -0.73001022361E+01  0.22052260636E+02 -0.29084709277E+01  0.23877665190E+02  0.47000000000E+01 0. -1.
        -13    1    4    4    0    0 -0.17853549839E+02  0.83743270278E+01 -0.12985241473E+03  0.13134126620E+03  0.00000000000E+00 0.  1.
         14    1    4    4    0    0  0.83159990756E+02  0.57554330881E+02 -0.48775203428E+03  0.49812662246E+03  0.00000000000E+00 0. -1.
         -5    1    5    5    0  502 -0.22190631069E+02 -0.10958292936E+03 -0.20465987372E+03  0.23325650351E+03  0.47000000000E+01 0.  1.
         11    1    6    6    0    0 -0.33418803566E+02 -0.25296948937E+02 -0.71702165442E+02  0.83053913733E+02  0.00000000000E+00 0. -1.
        -12    1    6    6    0    0 -0.23969040456E+01  0.46898959754E+02 -0.61639686394E+02  0.77490054290E+02  0.00000000000E+00 0.  1.
</event>
<event>
12    1  0.8449700E-002  0.2322406E+03  0.7818608E-02  0.1126583E+00
         21   -1    0    0  503  502  0.00000000000E+00  0.00000000000E+00  0.36135035809E+03  0.36135035809E+03  0.00000000000E+00 0.  1.
         21   -1    0    0  501  503 -0.00000000000E+00 -0.00000000000E+00 -0.21368873150E+03  0.21368873150E+03  0.00000000000E+00 0.  1.
          6    2    1    2  501    0 -0.89078253185E+02  0.11509453882E+03 -0.89607973188E+02  0.24892826887E+03  0.18098067888E+03 0.  0.
         24    2    3    3    0    0 -0.59071541497E+02  0.11937552391E+03 -0.12700081124E+03  0.20056460568E+03  0.79730748605E+02 0.  0.
         -6    2    1    2    0  502  0.89078253185E+02 -0.11509453882E+03  0.23726959978E+03  0.32611082072E+03  0.16991090711E+03 0.  0.
        -24    2    5    5    0    0  0.19131100607E+02 -0.93822557149E+02  0.21617564485E+03  0.24987338705E+03  0.80846328854E+02 0.  0.
          5    1    3    3  501    0 -0.30006711687E+02 -0.42809850909E+01  0.37392838050E+02  0.48363663189E+02  0.47000000000E+01 0. -1.
        -11    1    4    4    0    0 -0.74665036476E+02  0.70282610495E+02 -0.72552453055E+02  0.12561198770E+03  0.00000000000E+00 0.  1.
         12    1    4    4    0    0  0.15593494978E+02  0.49092913418E+02 -0.54448358183E+02  0.74952617982E+02  0.00000000000E+00 0. -1.
         -5    1    5    5    0  502  0.69947152578E+02 -0.21271981673E+02  0.21093954929E+02  0.76237433670E+02  0.47000000000E+01 0.  1.
         13    1    6    6    0    0 -0.16217775653E+01 -0.27457952263E+01  0.10334116070E+03  0.10339035278E+03  0.00000000000E+00 0. -1.
        -14    1    6    6    0    0  0.20752878172E+02 -0.91076761923E+02  0.11283448415E+03  0.14648303427E+03  0.00000000000E+00 0.  1.
</event>
<event>
12    1  0.8449700E-002  0.1909725E+03  0.7818608E-02  0.1157648E+00
         21   -1    0    0  503  502  0.00000000000E+00  0.00000000000E+00  0.23275863862E+04  0.23275863862E+04  0.00000000000E+00 0. -1.
         21   -1    0    0  501  503 -0.00000000000E+00 -0.00000000000E+00 -0.15721446524E+02  0.15721446524E+02  0.00000000000E+00 0. -1.
          6    2    1    2  501    0 -0.82397873592E+02 -0.74465539293E+00  0.10759259932E+04  0.10927429909E+04  0.17228040293E+03 0.  0.
         24    2    3    3    0    0 -0.24751874692E+02 -0.41221303182E+02  0.27452954248E+03  0.28824328212E+03  0.73524613939E+02 0.  0.
         -6    2    1    2    0  502  0.82397873592E+02  0.74465539293E+00  0.12359389465E+04  0.12505648418E+04  0.17198075504E+03 0.  0.
        -24    2    5    5    0    0  0.11180774569E+03 -0.27765609603E+02  0.76157719266E+03  0.77441471920E+03  0.80289699643E+02 0.  0.
          5    1    3    3  501    0 -0.57645998901E+02  0.40476647789E+02  0.80139645068E+03  0.80449970874E+03  0.47000000000E+01 0. -1.
        -11    1    4    4    0    0 -0.31141920965E+02  0.11937762200E+02  0.12671103442E+03  0.13102677456E+03  0.00000000000E+00 0.  1.
         12    1    4    4    0    0  0.63900462731E+01 -0.53159065382E+02  0.14781850806E+03  0.15721650756E+03  0.00000000000E+00 0. -1.
         -5    1    5    5    0  502 -0.29409872093E+02  0.28510264996E+02  0.47436175381E+03  0.47615012261E+03  0.47000000000E+01 0.  1.
         11    1    6    6    0    0 -0.54660539982E+01  0.12285623088E+02  0.38158998494E+02  0.40458910601E+02  0.00000000000E+00 0. -1.
        -12    1    6    6    0    0  0.11727379968E+03 -0.40051232691E+02  0.72341819416E+03  0.73395580860E+03  0.00000000000E+00 0.  1.
</event>
<event>
12    1  0.8449700E-002  0.1831679E+03  0.7818608E-02  0.1165557E+00
         21   -1    0    0  503  502  0.00000000000E+00  0.00000000000E+00  0.29697617984E+03  0.29697617984E+03  0.00000000000E+00 0. -1.
         21   -1    0    0  501  503 -0.00000000000E+00 -0.00000000000E+00 -0.45509053591E+03  0.45509053591E+03  0.00000000000E+00 0. -1.
          6    2    1    2  501    0 -0.13200612978E+02 -0.56720239375E+02 -0.40622442780E+03  0.44561055693E+03  0.17366358561E+03 0.  0.
         24    2    3    3    0    0 -0.11151426605E+02 -0.62875638083E+02 -0.41990203086E+03  0.42975953413E+03  0.65557924631E+02 0.  0.
         -6    2    1    2    0  502  0.13200612978E+02  0.56720239375E+02  0.24811007173E+03  0.30645615882E+03  0.17019203227E+03 0.  0.
        -24    2    5    5    0    0 -0.16754278565E+02  0.34705393472E+02  0.40552767925E+02  0.95543680930E+02  0.77452551882E+02 0.  0.
          5    1    3    3  501    0 -0.20491863735E+01  0.61553987073E+01  0.13677603061E+02  0.15851022791E+02  0.47000000000E+01 0. -1.
        -13    1    4    4    0    0  0.14690630296E+02 -0.16898138334E+02 -0.37041143674E+02  0.43282883711E+02  0.00000000000E+00 0.  1.
         14    1    4    4    0    0 -0.25842056901E+02 -0.45977499749E+02 -0.38286088718E+03  0.38647665042E+03  0.00000000000E+00 0. -1.
         -5    1    5    5    0  502  0.29954891543E+02  0.22014845904E+02  0.20755730381E+03  0.21091247789E+03  0.47000000000E+01 0.  1.
         11    1    6    6    0    0  0.25228630085E+02  0.59710182736E+00 -0.38926362211E+01  0.25534152097E+02  0.00000000000E+00 0. -1.
        -12    1    6    6    0    0 -0.41982908651E+02  0.34108291644E+02  0.44445404146E+02  0.70009528833E+02  0.00000000000E+00 0.  1.
</event>
<event>
12    1  0.8449700E-002  0.1876577E+03  0.7818608E-02  0.1161683E+00
         21   -1    0    0  501  502  0.00000000000E+00  0.00000000000E+00  0.44383577562E+02  0.44383577562E+02  0.00000000000E+00 0. -1.
         21   -1    0    0  502  503 -0.00000000000E+00 -0.00000000000E+00 -0.20954640056E+04  0.20954640056E+04  0.00000000000E+00 0. -1.
         -6    2    1    2    0  503  0.28928187742E+02 -0.68558177150E+02 -0.18800725157E+04  0.18894147400E+04  0.17227400160E+03 0.  0.
        -24    2    3    3    0    0  0.40202304590E+02 -0.11384824068E+02 -0.16342714817E+04  0.16367565987E+04  0.79893980484E+02 0.  0.
          6    2    1    2  501    0 -0.28928187742E+02  0.68558177150E+02 -0.17100791231E+03  0.25043284317E+03  0.16714017818E+03 0.  0.
         24    2    5    5    0    0  0.30425388600E+02  0.58870571756E+02 -0.15740025091E+03  0.18859470630E+03  0.80010472859E+02 0.  0.
          5    1    5    5  501    0 -0.59353576342E+02  0.96876053938E+01 -0.13607661407E+02  0.61838136872E+02  0.47000000000E+01 0. -1.
        -11    1    6    6    0    0  0.21577837997E+02  0.70619193514E+02 -0.15742964138E+03  0.17388722083E+03  0.00000000000E+00 0.  1.
         12    1    6    6    0    0  0.88475506036E+01 -0.11748621757E+02  0.29390468424E-01  0.14707485464E+02  0.00000000000E+00 0. -1.
         -5    1    3    3    0  503 -0.11274116848E+02 -0.57173353082E+02 -0.24580103404E+03  0.25265814126E+03  0.47000000000E+01 0.  1.
         11    1    4    4    0    0  0.55059619076E+02 -0.31751443187E+02 -0.12889645722E+04  0.12905306599E+04  0.00000000000E+00 0. -1.
        -12    1    4    4    0    0 -0.14857314486E+02  0.20366619119E+02 -0.34530690951E+03  0.34622593883E+03  0.00000000000E+00 0.  1.
</event>
<event>
12    1  0.8449700E-002  0.4694404E+03  0.7818608E-02  0.1022162E+00
         21   -1    0    0  503  502  0.00000000000E+00  0.00000000000E+00  0.12061256804E+04  0.12061256804E+04  0.00000000000E+00 0.  1.
         21   -1    0    0  501  503 -0.00000000000E+00 -0.00000000000E+00 -0.29418032392E+03  0.29418032392E+03  0.00000000000E+00 0. -1.
          6    2    1    2  501    0  0.26264097862E+03 -0.34781443333E+03 -0.71024291745E+01  0.46830642770E+03  0.17118791443E+03 0.  0.
         24    2    3    3    0    0  0.15225393223E+03 -0.11220625635E+03 -0.28253266973E+02  0.20722030970E+03  0.79815448483E+02 0.  0.
         -6    2    1    2    0  502 -0.26264097862E+03  0.34781443333E+03  0.91904778564E+03  0.10319995766E+04  0.17441080854E+03 0.  0.
        -24    2    5    5    0    0 -0.11595346744E+03  0.26266739378E+03  0.56852966719E+03  0.64257399239E+03  0.85064603985E+02 0.  0.
          5    1    3    3  501    0  0.11038704639E+03 -0.23560817699E+03  0.21150837799E+02  0.26108611800E+03  0.47000000000E+01 0. -1.
        -11    1    4    4    0    0  0.13336063050E+03 -0.10207664553E+03  0.45837197324E+01  0.16800508866E+03  0.00000000000E+00 0.  1.
         12    1    4    4    0    0  0.18893301732E+02 -0.10129610820E+02 -0.32836986706E+02  0.39215221045E+02  0.00000000000E+00 0. -1.
         -5    1    5    5    0  502 -0.14668751117E+03  0.85147039553E+02  0.35051811845E+03  0.38942558421E+03  0.47000000000E+01 0.  1.
         13    1    6    6    0    0 -0.26161315089E+02  0.87271685052E+02  0.10570623958E+03  0.13955131854E+03  0.00000000000E+00 0. -1.
        -14    1    6    6    0    0 -0.89792152352E+02  0.17539570873E+03  0.46282342761E+03  0.50302267385E+03  0.00000000000E+00 0.  1.
</event>
<event>
12    1  0.8449700E-002  0.1796531E+03  0.7818608E-02  0.1168261E+00
         21   -1    0    0  501  502  0.00000000000E+00  0.00000000000E+00  0.25416621372E+03  0.25416621372E+03  0.00000000000E+00 0. -1.
         21   -1    0    0  502  503 -0.00000000000E+00 -0.00000000000E+00 -0.14185436116E+03  0.14185436116E+03  0.00000000000E+00 0. -1.
         -6    2    1    2    0  503 -0.47583255777E+02 -0.16371509912E+02  0.12095401046E+03  0.21615975254E+03  0.17193886532E+03 0.  0.
        -24    2    3    3    0    0  0.12491540934E+02  0.38735439482E+02  0.30450095857E+02  0.94263051892E+02  0.79384140404E+02 0.  0.
          6    2    1    2  501    0  0.47583255777E+02  0.16371509912E+02 -0.86421578941E+01  0.17986082234E+03  0.17246169416E+03 0.  0.
         24    2    5    5    0    0 -0.33504217003E+02 -0.83622105030E+01  0.21700446347E+02  0.89695979971E+02  0.79887422851E+02 0.  0.
          5    1    5    5  501    0  0.81087472780E+02  0.24733720415E+02 -0.30342604241E+02  0.90164842370E+02  0.47000000000E+01 0. -1.
        -11    1    6    6    0    0 -0.14742112163E+02  0.81205080290E+01  0.49525400768E+02  0.52307149062E+02  0.00000000000E+00 0.  1.
         12    1    6    6    0    0 -0.18762104840E+02 -0.16482718532E+02 -0.27824954421E+02  0.37388830910E+02  0.00000000000E+00 0. -1.
         -5    1    3    3    0  503 -0.60074796711E+02 -0.55106949394E+02  0.90503914599E+02  0.12189670065E+03  0.47000000000E+01 0.  1.
         11    1    4    4    0    0  0.29445756732E+02  0.11155270862E+02  0.48023813456E+02  0.57426294643E+02  0.00000000000E+00 0. -1.
        -12    1    4    4    0    0 -0.16954215798E+02  0.27580168620E+02 -0.17573717599E+02  0.36836757250E+02  0.00000000000E+00 0.  1.
</event>
<event>
12    1  0.8449700E-002  0.1954482E+03  0.7818608E-02  0.1153837E+00
         21   -1    0    0  503  502  0.00000000000E+00  0.00000000000E+00  0.62422069984E+03  0.62422069984E+03  0.00000000000E+00 0.  1.
         21   -1    0    0  501  503 -0.00000000000E+00 -0.00000000000E+00 -0.10042974725E+03  0.10042974725E+03  0.00000000000E+00 0.  1.
          6    2    1    2  501    0  0.29860074919E+02  0.88823072164E+02  0.34234601224E+02  0.19752102022E+03  0.17047399592E+03 0.  0.
         24    2    3    3    0    0  0.11726149300E+02  0.12645022768E+03  0.40599701611E+02  0.15500929721E+03  0.79072016505E+02 0.  0.
         -6    2    1    2    0  502 -0.29860074919E+02 -0.88823072164E+02  0.48955635137E+03  0.52712942687E+03  0.17151923880E+03 0.  0.
        -24    2    5    5    0    0 -0.85045000664E+02 -0.69882083023E+02  0.36295556902E+03  0.38765188319E+03  0.80131640385E+02 0.  0.
          5    1    3    3  501    0  0.18133925619E+02 -0.37627155514E+02 -0.63651003867E+01  0.42511723011E+02  0.47000000000E+01 0. -1.
        -11    1    4    4    0    0  0.33490169718E+02  0.23918333974E+02  0.27221736634E+02  0.49342690575E+02  0.00000000000E+00 0.  1.
         12    1    4    4    0    0 -0.21764020418E+02  0.10253189370E+03  0.13377964976E+02  0.10566660664E+03  0.00000000000E+00 0. -1.
         -5    1    5    5    0  502  0.55184925746E+02 -0.18940989141E+02  0.12660078234E+03  0.13947754367E+03  0.47000000000E+01 0.  1.
         11    1    6    6    0    0  0.29722304754E+01  0.11990953508E+02  0.68485437121E+02  0.69590748075E+02  0.00000000000E+00 0. -1.
        -12    1    6    6    0    0 -0.88017231140E+02 -0.81873036532E+02  0.29447013190E+03  0.31806113512E+03  0.00000000000E+00 0.  1.
</event>
<event>
12    1  0.8449700E-002  0.2007418E+03  0.7818608E-02  0.1149857E+00
         21   -1    0    0  503  502  0.00000000000E+00  0.00000000000E+00  0.21945578501E+03  0.21945578501E+03  0.00000000000E+00 0. -1.
         21   -1    0    0  501  503 -0.00000000000E+00 -0.00000000000E+00 -0.29893456510E+03  0.29893456510E+03  0.00000000000E+00 0. -1.
          6    2    1    2  501    0  0.22933356907E+01 -0.10316497351E+03 -0.20271720308E+03  0.28283783713E+03  0.16809136366E+03 0.  0.
         24    2    3    3    0    0 -0.47899815697E+02 -0.29713614758E+02 -0.15110284841E+03  0.17987868913E+03  0.79667940592E+02 0.  0.
         -6    2    1    2    0  502 -0.22933356907E+01  0.10316497351E+03  0.12323842299E+03  0.23555251298E+03  0.17218886817E+03 0.  0.
        -24    2    5    5    0    0 -0.34064388037E+02  0.85698699040E+02  0.14731229727E+03  0.19177909714E+03  0.81078108152E+02 0.  0.
          5    1    3    3  501    0  0.50193151388E+02 -0.73451358755E+02 -0.51614354670E+02  0.10295914800E+03  0.47000000000E+01 0. -1.
        -11    1    4    4    0    0 -0.24288381382E+02  0.19323643210E+01 -0.69535447797E+00  0.24375049126E+02  0.00000000000E+00 0.  1.
         12    1    4    4    0    0 -0.23611434315E+02 -0.31645979079E+02 -0.15040749393E+03  0.15550364000E+03  0.00000000000E+00 0. -1.
         -5    1    5    5    0  502  0.31771052346E+02  0.17466274473E+02 -0.24073874285E+02  0.43773415839E+02  0.47000000000E+01 0.  1.
         13    1    6    6    0    0  0.13421796476E+02  0.60431832205E+02  0.46179989681E+02  0.77231744841E+02  0.00000000000E+00 0. -1.
        -14    1    6    6    0    0 -0.47486184513E+02  0.25266866836E+02  0.10113230759E+03  0.11454735230E+03  0.00000000000E+00 0.  1.
</event>
<event>
12    1  0.8449700E-002  0.1811660E+03  0.7818608E-02  0.1166910E+00
         21   -1    0    0  503  502  0.00000000000E+00  0.00000000000E+00  0.25278866912E+02  0.25278866912E+02  0.00000000000E+00 0. -1.
         21   -1    0    0  501  503 -0.00000000000E+00 -0.00000000000E+00 -0.15600321239E+04  0.15600321239E+04  0.00000000000E+00 0. -1.
          6    2    1    2  501    0 -0.42018010372E+01 -0.52045496488E+02 -0.10979186574E+04  0.11127652463E+04  0.17347831669E+03 0.  0.
         24    2    3    3    0    0 -0.64406104143E+02 -0.16772437109E+02 -0.48976832061E+03  0.50060704051E+03  0.79403653803E+02 0.  0.
         -6    2    1    2    0  502  0.42018010372E+01  0.52045496488E+02 -0.43683459957E+03  0.47254574445E+03  0.17247789534E+03 0.  0.
        -24    2    5    5    0    0  0.42168652894E+02  0.69975530351E+02 -0.40105951150E+03  0.41718407106E+03  0.80740617075E+02 0.  0.
          5    1    3    3  501    0  0.60204303106E+02 -0.35273059378E+02 -0.60815033676E+03  0.61215820580E+03  0.47000000000E+01 0. -1.
        -11    1    4    4    0    0 -0.55507476183E+02  0.17248935364E+02 -0.39991981359E+03  0.40412184176E+03  0.00000000000E+00 0.  1.
         12    1    4    4    0    0 -0.88986279599E+01 -0.34021372473E+02 -0.89848507018E+02  0.96485198750E+02  0.00000000000E+00 0. -1.
         -5    1    5    5    0  502 -0.37966851857E+02 -0.17930033863E+02 -0.35775088067E+02  0.55361673389E+02  0.47000000000E+01 0.  1.
         13    1    6    6    0    0 -0.85472339878E+01  0.47777268821E+02 -0.10095834098E+03  0.11201923602E+03  0.00000000000E+00 0. -1.
        -14    1    6    6    0    0  0.50715886882E+02  0.22198261530E+02 -0.30010117052E+03  0.30516483504E+03  0.00000000000E+00 0.  1.
</event>
<event>
12    1  0.8449700E-002  0.2617533E+03  0.7818608E-02  0.1107175E+00
         21   -1    0    0  501  502  0.00000000000E+00  0.00000000000E+00  0.28935930859E+03  0.28935930859E+03  0.00000000000E+00 0. -1.
         21   -1    0    0  502  503 -0.00000000000E+00 -0.00000000000E+00 -0.30928833771E+03  0.30928833771E+03  0.00000000000E+00 0. -1.
         -6    2    1    2    0  503  0.39414822330E+01 -0.18711193675E+03 -0.16106208292E+03  0.30127024040E+03  0.17261619576E+03 0.  0.
        -24    2    3    3    0    0 -0.14378645218E+02 -0.11453908125E+03 -0.22004632278E+02  0.14327811717E+03  0.81966264065E+02 0.  0.
          6    2    1    2  501    0 -0.39414822330E+01  0.18711193675E+03  0.14113305380E+03  0.29737740589E+03  0.18299828006E+03 0.  0.
         24    2    5    5    0    0  0.48439687522E+02  0.56317836650E+02  0.25034931077E+02  0.11475279730E+03  0.83805457229E+02 0.  0.
          5    1    5    5  501    0 -0.52381169755E+02  0.13079410010E+03  0.11609812272E+03  0.18262460860E+03  0.47000000000E+01 0. -1.
        -13    1    6    6    0    0  0.46287573678E+02  0.13587598863E+02 -0.20370843407E+02  0.52365385332E+02  0.00000000000E+00 0.  1.
         14    1    6    6    0    0  0.21521138440E+01  0.42730237787E+02  0.45405774484E+02  0.62387411966E+02  0.00000000000E+00 0. -1.
         -5    1    3    3    0  503  0.18320127451E+02 -0.72572855501E+02 -0.13905745064E+03  0.15799212323E+03  0.47000000000E+01 0.  1.
         13    1    4    4    0    0  0.18025454763E+02 -0.50010369187E+02 -0.42675206890E+02  0.68169841783E+02  0.00000000000E+00 0. -1.
        -14    1    4    4    0    0 -0.32404099981E+02 -0.64528712064E+02  0.20670574612E+02  0.75108275383E+02  0.00000000000E+00 0.  1.
</event>
<event>
12    1  0.8449700E-002  0.1749167E+03  0.7818608E-02  0.1173017E+00
         21   -1    0    0  503  502  0.00000000000E+00  0.00000000000E+00  0.14424823047E+03  0.14424823047E+03  0.00000000000E+00 0.  1.
         21   -1    0    0  501  503 -0.00000000000E+00 -0.00000000000E+00 -0.67895119900E+03  0.67895119900E+03  0.00000000000E+00 0.  1.
          6    2    1    2  501    0 -0.32961635602E+02 -0.98876139183E+01 -0.60881987589E+03  0.63322795529E+03  0.17068030864E+03 0.  0.
         24    2    3    3    0    0 -0.59493020396E+02  0.41363843050E+02 -0.47213690005E+03  0.48478620879E+03  0.82789062421E+02 0.  0.
         -6    2    1    2    0  502  0.32961635602E+02  0.98876139183E+01  0.74116907355E+02  0.18997147418E+03  0.17149813619E+03 0.  0.
        -24    2    5    5    0    0  0.80687408347E+02 -0.24133987559E+02  0.47624691029E+02  0.12548003074E+03  0.79901312236E+02 0.  0.
          5    1    3    3  501    0  0.26531384794E+02 -0.51251456968E+02 -0.13668297584E+03  0.14844174651E+03  0.47000000000E+01 0. -1.
        -13    1    4    4    0    0 -0.44069961971E+02 -0.11583149757E+02 -0.31444356922E+03  0.31772801125E+03  0.00000000000E+00 0.  1.
         14    1    4    4    0    0 -0.15423058425E+02  0.52946992807E+02 -0.15769333083E+03  0.16705819754E+03  0.00000000000E+00 0. -1.
         -5    1    5    5    0  502 -0.47725772745E+02  0.34021601478E+02  0.26492216326E+02  0.64491443441E+02  0.47000000000E+01 0.  1.
         11    1    6    6    0    0  0.54647202057E+02  0.20893335126E+02  0.44251966581E+02  0.73355877008E+02  0.00000000000E+00 0. -1.
        -12    1    6    6    0    0  0.26040206290E+02 -0.45027322685E+02  0.33727244486E+01  0.52124153730E+02  0.00000000000E+00 0.  1.
</event>
<event>
12    1  0.8449700E-002  0.2183193E+03  0.7818608E-02  0.1135157E+00
         21   -1    0    0  503  502  0.00000000000E+00  0.00000000000E+00  0.92104646630E+02  0.92104646630E+02  0.00000000000E+00 0. -1.
         21   -1    0    0  501  503 -0.00000000000E+00 -0.00000000000E+00 -0.64635752775E+03  0.64635752775E+03  0.00000000000E+00 0. -1.
          6    2    1    2  501    0 -0.64336130064E+02 -0.11863711671E+03 -0.44206948994E+03  0.49300657437E+03  0.17151135632E+03 0.  0.
         24    2    3    3    0    0 -0.69549361386E+02 -0.85058238080E+02 -0.43825472249E+03  0.45849047202E+03  0.77937754747E+02 0.  0.
         -6    2    1    2    0  502  0.64336130064E+02  0.11863711671E+03 -0.11218339118E+03  0.24545560001E+03  0.17160837750E+03 0.  0.
        -24    2    5    5    0    0  0.98881094864E+02  0.12051483552E+03 -0.65599149901E+02  0.18723994956E+03  0.80338370313E+02 0.  0.
          5    1    3    3  501    0  0.52132313223E+01 -0.33578878626E+02 -0.38147674478E+01  0.34516102348E+02  0.47000000000E+01 0. -1.
        -11    1    4    4    0    0  0.25144973565E+01 -0.79289730001E+01 -0.65958320000E+00  0.83442411153E+01  0.00000000000E+00 0.  1.
         12    1    4    4    0    0 -0.72063858743E+02 -0.77129265080E+02 -0.43759513929E+03  0.45014623091E+03  0.00000000000E+00 0. -1.
         -5    1    5    5    0  502 -0.34544964800E+02 -0.18777188087E+01 -0.46584241280E+02  0.58215650444E+02  0.47000000000E+01 0.  1.
         13    1    6    6    0    0  0.82478228897E+02  0.77709901873E+02 -0.79664187240E+01  0.11359996003E+03  0.00000000000E+00 0. -1.
        -14    1    6    6    0    0  0.16402865967E+02  0.42804933642E+02 -0.57632731177E+02  0.73639989536E+02  0.00000000000E+00 0.  1.
</event>
<event>
12    1  0.8449700E-002  0.2303825E+03  0.7818608E-02  0.1126678E+00
         21   -1    0    0  501  502  0.00000000000E+00  0.00000000000E+00  0.42688110610E+03  0.42688110610E+03  0.00000000000E+00 0.  1.
         21   -1    0    0  502  503 -0.00000000000E+00 -0.00000000000E+00 -0.20669791592E+03  0.20669791592E+03  0.00000000000E+00 0. -1.
         -6    2    1    2    0  503  0.13981359129E+03  0.59737147720E+02 -0.91266048993E+02  0.24618165909E+03  0.17076167733E+03 0.  0.
        -24    2    3    3    0    0  0.13477723729E+03  0.76833405247E+02 -0.26720314786E+02  0.17905574243E+03  0.85315343413E+02 0.  0.
          6    2    1    2  501    0 -0.13981359129E+03 -0.59737147720E+02  0.31144923917E+03  0.38739736294E+03  0.17308876653E+03 0.  0.
         24    2    5    5    0    0 -0.12349271334E+03 -0.10574593295E+03  0.23932256745E+03  0.30017622932E+03  0.79986403682E+02 0.  0.
          5    1    5    5  501    0 -0.16320877952E+02  0.46008785228E+02  0.72126671723E+02  0.87221133615E+02  0.47000000000E+01 0. -1.
        -13    1    6    6    0    0 -0.48807182934E+02  0.18969156128E+01  0.81989044765E+02  0.95435542940E+02  0.00000000000E+00 0.  1.
         14    1    6    6    0    0 -0.74685530408E+02 -0.10764284856E+03  0.15733352269E+03  0.20474068638E+03  0.00000000000E+00 0. -1.
         -5    1    3    3    0  503  0.50363540004E+01 -0.17096257527E+02 -0.64545734206E+02  0.67125916659E+02  0.47000000000E+01 0.  1.
         11    1    4    4    0    0  0.72787137415E+02  0.19017956213E+02  0.25570939802E+02  0.79457680522E+02  0.00000000000E+00 0. -1.
        -12    1    4    4    0    0  0.61990099878E+02  0.57815449034E+02 -0.52291254588E+02  0.99598061911E+02  0.00000000000E+00 0.  1.
</event>
<event>
12    1  0.8449700E-002  0.2326496E+03  0.7818608E-02  0.1124811E+00
         21   -1    0    0  503  502  0.00000000000E+00  0.00000000000E+00  0.12194497067E+03  0.12194497067E+03  0.00000000000E+00 0. -1.
         21   -1    0    0  501  503 -0.00000000000E+00 -0.00000000000E+00 -0.44576649310E+03  0.44576649310E+03  0.00000000000E+00 0. -1.
          6    2    1    2  501    0 -0.70369614042E+02  0.14050046429E+03 -0.14212811821E+03  0.27251943837E+03  0.17138897064E+03 0.  0.
         24    2    3    3    0    0 -0.63999061159E+02  0.11797278227E+02 -0.56151513218E+02  0.11753827612E+03  0.80169809236E+02 0.  0.
         -6    2    1    2    0  502  0.70369614042E+02 -0.14050046429E+03 -0.18169340421E+03  0.29519202540E+03  0.17156216272E+03 0.  0.
        -24    2    5    5    0    0  0.44087714610E+02 -0.38261833117E+02 -0.32612036756E+02  0.11246047348E+03  0.90421892823E+02 0.  0.
          5    1    3    3  501    0 -0.63705528830E+01  0.12870318607E+03 -0.85976604995E+02  0.15498116226E+03  0.47000000000E+01 0. -1.
        -13    1    4    4    0    0  0.14678233624E+02  0.37861758443E+00  0.67518254670E+01  0.16161096520E+02  0.00000000000E+00 0.  1.
         14    1    4    4    0    0 -0.78677294783E+02  0.11418660643E+02 -0.62903338685E+02  0.10137717960E+03  0.00000000000E+00 0. -1.
         -5    1    5    5    0  502  0.26281899432E+02 -0.10223863118E+03 -0.14908136746E+03  0.18273155191E+03  0.47000000000E+01 0.  1.
         13    1    6    6    0    0  0.77716033556E+01 -0.62359604400E+02 -0.10945562250E+02  0.63788113412E+02  0.00000000000E+00 0. -1.
        -14    1    6    6    0    0  0.36316111254E+02  0.24097771283E+02 -0.21666474506E+02  0.48672360072E+02  0.00000000000E+00 0.  1.
</event>
<event>
12    1  0.8449700E-002  0.1742818E+03  0.7818608E-02  0.1173508E+00
         21   -1    0    0  501  502  0.00000000000E+00  0.00000000000E+00  0.76726396669E+02  0.76726396669E+02  0.00000000000E+00 0. -1.
         21   -1    0    0  502  503 -0.00000000000E+00 -0.00000000000E+00 -0.65293222991E+03  0.65293222991E+03  0.00000000000E+00 0. -1.
         -6    2    1    2    0  503 -0.14295599693E+02 -0.27262927669E+02 -0.51712373401E+03  0.54563455973E+03  0.17132566970E+03 0.  0.
        -24    2    3    3    0    0 -0.22824606896E+02 -0.77891554295E+02 -0.26826803891E+03  0.29149434492E+03  0.80082179730E+02 0.  0.
          6    2    1    2  501    0  0.14295599693E+02  0.27262927669E+02 -0.59082099228E+02  0.18402406685E+03  0.17154163149E+03 0.  0.
         24    2    5    5    0    0 -0.45609548318E+02 -0.10870607851E+02 -0.64093791649E+02  0.11267982847E+03  0.79939530911E+02 0.  0.
          5    1    5    5  501    0  0.59905148011E+02  0.38133535520E+02  0.50116924210E+01  0.71344238383E+02  0.47000000000E+01 0. -1.
        -13    1    6    6    0    0 -0.56169902643E+02  0.18091938506E+02 -0.54670459155E+02  0.80443988626E+02  0.00000000000E+00 0.  1.
         14    1    6    6    0    0  0.10560354324E+02 -0.28962546356E+02 -0.94233324937E+01  0.32235839840E+02  0.00000000000E+00 0. -1.
         -5    1    3    3    0  503  0.85290072027E+01  0.50628626625E+02 -0.24885569510E+03  0.25414021481E+03  0.47000000000E+01 0.  1.
         11    1    4    4    0    0 -0.47386202294E+01 -0.87797281173E+02 -0.24552976936E+03  0.26079816860E+03  0.00000000000E+00 0. -1.
        -12    1    4    4    0    0 -0.18085986666E+02  0.99057268781E+01 -0.22738269551E+02  0.30696176323E+02  0.00000000000E+00 0.  1.
</event>
<event>
12    1  0.8449700E-002  0.2046986E+03  0.7818608E-02  0.1146068E+00
         21   -1    0    0  501  502  0.00000000000E+00  0.00000000000E+00  0.16110875552E+04  0.16110875552E+04  0.00000000000E+00 0. -1.
         21   -1    0    0  502  503 -0.00000000000E+00 -0.00000000000E+00 -0.26382199376E+02  0.26382199376E+02  0.00000000000E+00 0.  1.
         -6    2    1    2    0  503 -0.10901950107E+03  0.19810930789E+02  0.67540715420E+03  0.70541571644E+03  0.17075943449E+03 0.  0.
        -24    2    3    3    0    0 -0.11180772613E+03  0.65965748908E+02  0.53593970802E+03  0.55840789359E+03  0.87952017282E+02 0.  0.
          6    2    1    2  501    0  0.10901950107E+03 -0.19810930789E+02  0.90929820160E+03  0.93205403811E+03  0.17211561792E+03 0.  0.
         24    2    5    5    0    0  0.43891940139E+02  0.45828729847E+02  0.37494805551E+03  0.38974201273E+03  0.85358170498E+02 0.  0.
          5    1    5    5  501    0  0.65127560931E+02 -0.65639660636E+02  0.53435014610E+03  0.54231202538E+03  0.47000000000E+01 0. -1.
        -13    1    6    6    0    0  0.17530414747E+02 -0.41334687759E+01  0.10308210087E+02  0.20752354095E+02  0.00000000000E+00 0.  1.
         14    1    6    6    0    0  0.26361525392E+02  0.49962198623E+02  0.36463984542E+03  0.36898965863E+03  0.00000000000E+00 0. -1.
         -5    1    3    3    0  503  0.27882250607E+01 -0.46154818119E+02  0.13946744618E+03  0.14700782285E+03  0.47000000000E+01 0.  1.
         13    1    4    4    0    0  0.14975891375E+02  0.10074139098E+02  0.71311990346E+02  0.73560625120E+02  0.00000000000E+00 0. -1.
        -14    1    4    4    0    0 -0.12678361751E+03  0.55891609810E+02  0.46462771768E+03  0.48484726847E+03  0.00000000000E+00 0.  1.
</event>
<event>
12    1  0.8449700E-002  0.1797580E+03  0.7818608E-02  0.1168184E+00
         21   -1    0    0  501  502  0.00000000000E+00  0.00000000000E+00  0.13673842732E+04  0.13673842732E+04  0.00000000000E+00 0.  1.
         21   -1    0    0  502  503 -0.00000000000E+00 -0.00000000000E+00 -0.37032963988E+02  0.37032963988E+02  0.00000000000E+00 0.  1.
         -6    2    1    2    0  503 -0.62989708736E+01  0.48096306906E+02  0.24221267507E+03  0.30162877825E+03  0.17308959567E+03 0.  0.
        -24    2    3    3    0    0  0.87887553168E+01 -0.84596740850E+01  0.41553419087E+02  0.92553563359E+02  0.81796498379E+02 0.  0.
          6    2    1    2  501    0  0.62989708736E+01 -0.48096306906E+02  0.10881386341E+04  0.11027884589E+04  0.17246381155E+03 0.  0.
         24    2    5    5    0    0  0.25247061684E+02 -0.78205238525E+02  0.10129008129E+04  0.10194314097E+04  0.80739512652E+02 0.  0.
          5    1    5    5  501    0 -0.18948090810E+02  0.30108931619E+02  0.75237821204E+02  0.83357049180E+02  0.47000000000E+01 0. -1.
        -11    1    6    6    0    0  0.56858731082E+01 -0.62076801470E+02  0.31711334043E+03  0.32318219182E+03  0.00000000000E+00 0.  1.
         12    1    6    6    0    0  0.19561188576E+02 -0.16128437054E+02  0.69578747248E+03  0.69624921791E+03  0.00000000000E+00 0. -1.
         -5    1    3    3    0  503 -0.15087726190E+02  0.56555980991E+02  0.20065925599E+03  0.20907521489E+03  0.47000000000E+01 0.  1.
         11    1    4    4    0    0  0.23570830500E+02  0.18639867613E+02 -0.10670463675E+02  0.31888673697E+02  0.00000000000E+00 0. -1.
        -12    1    4    4    0    0 -0.14782075183E+02 -0.27099541698E+02  0.52223882762E+02  0.60664889662E+02  0.00000000000E+00 0.  1.
</event>
<event>
12    1  0.8449700E-002  0.2165089E+03  0.7818608E-02  0.1136610E+00
         21   -1    0    0  503  502  0.00000000000E+00  0.00000000000E+00  0.20490767391E+03  0.20490767391E+03  0.00000000000E+00 0.  1.
         21   -1    0    0  501  503 -0.00000000000E+00 -0.00000000000E+00 -0.26776095815E+03  0.26776095815E+03  0.00000000000E+00 0.  1.
          6    2    1    2  501    0 -0.17662419672E+02  0.13035028368E+03 -0.12226543091E+03  0.24864618596E+03  0.17196782452E+03 0.  0.
         24    2    3    3    0    0 -0.40424533670E+02  0.99128567850E+02 -0.15013717780E+03  0.20077308654E+03  0.79423197085E+02 0.  0.
         -6    2    1    2    0  502  0.17662419672E+02 -0.13035028368E+03  0.59412146673E+02  0.22402244610E+03  0.17132745156E+03 0.  0.
        -24    2    5    5    0    0  0.90842744649E+01 -0.30679450328E+02  0.85830971003E+02  0.12044685112E+03  0.78209562369E+02 0.  0.
          5    1    3    3  501    0  0.22762113998E+02  0.31221715833E+02  0.27871746891E+02  0.47873099418E+02  0.47000000000E+01 0. -1.
        -13    1    4    4    0    0 -0.17515560410E+02 -0.71026868629E+01 -0.51697792532E+01  0.19595143140E+02  0.00000000000E+00 0.  1.
         14    1    4    4    0    0 -0.22908973259E+02  0.10623125471E+03 -0.14496739854E+03  0.18117794340E+03  0.00000000000E+00 0. -1.
         -5    1    5    5    0  502  0.85781452072E+01 -0.99670833354E+02 -0.26418824330E+02  0.10357559498E+03  0.47000000000E+01 0.  1.
         13    1    6    6    0    0 -0.25151966572E+02  0.99801208806E+01  0.12320623114E+02  0.29732507280E+02  0.00000000000E+00 0. -1.
        -14    1    6    6    0    0  0.34236241037E+02 -0.40659571209E+02  0.73510347888E+02  0.90714343838E+02  0.00000000000E+00 0.  1.
</event>
<event>
12    1  0.8449700E-002  0.2222578E+03  0.7818608E-02  0.1132282E+00
         21   -1    0    0  501  502  0.00000000000E+00  0.00000000000E+00  0.17725877456E+03  0.17725877456E+03  0.00000000000E+00 0.  1.
         21   -1    0    0  502  503 -0.00000000000E+00 -0.00000000000E+00 -0.93732288049E+03  0.93732288049E+03  0.00000000000E+00 0. -1.
         -6    2    1    2    0  503 -0.13328799143E+03 -0.45090836769E+02 -0.84745630639E+03  0.87611684705E+03  0.17204553530E+03 0.  0.
        -24    2    3    3    0    0 -0.13774725360E+03 -0.83280372406E+02 -0.74731476067E+03  0.76874485428E+03  0.81113335312E+02 0.  0.
          6    2    1    2  501    0  0.13328799143E+03  0.45090836769E+02  0.87392200464E+02  0.23846480800E+03  0.17154939735E+03 0.  0.
         24    2    5    5    0    0  0.42160148096E+02  0.62674625709E+02  0.12072720336E+02  0.11884629960E+03  0.90956613598E+02 0.  0.
          5    1    5    5  501    0  0.91127843335E+02 -0.17583788940E+02  0.75319480128E+02  0.11961850840E+03  0.47000000000E+01 0. -1.
        -13    1    6    6    0    0  0.36004114546E+02  0.15968318885E+02  0.46172968175E+02  0.60689591054E+02  0.00000000000E+00 0.  1.
         14    1    6    6    0    0  0.61560335499E+01  0.46706306824E+02 -0.34100247840E+02  0.58156708546E+02  0.00000000000E+00 0. -1.
         -5    1    3    3    0  503  0.44592621678E+01  0.38189535637E+02 -0.10014154572E+03  0.10737199276E+03  0.47000000000E+01 0.  1.
         11    1    4    4    0    0 -0.14338123068E+03 -0.62218914894E+02 -0.68852914053E+03  0.70604656223E+03  0.00000000000E+00 0. -1.
        -12    1    4    4    0    0  0.56339770860E+01 -0.21061457512E+02 -0.58785620141E+02  0.62698292048E+02  0.00000000000E+00 0.  1.
</event>
<event>
12    1  0.8449700E-002  0.2436543E+03  0.7818608E-02  0.1118776E+00
         21   -1    0    0  501  502  0.00000000000E+00  0.00000000000E+00  0.35619305696E+02  0.35619305696E+02  0.00000000000E+00 0. -1.
         21   -1    0    0  502  503 -0.00000000000E+00 -0.00000000000E+00 -0.21137949658E+04  0.21137949658E+04  0.00000000000E+00 0.  1.
         -6    2    1    2    0  503  0.19356170722E+02  0.16655259745E+03 -0.15499047387E+04  0.15676603957E+04  0.16504541246E+03 0.  0.
        -24    2    3    3    0    0 -0.68121072716E+01  0.33495611895E+02 -0.86061747498E+03  0.86514494242E+03  0.81516699766E+02 0.  0.
          6    2    1    2  501    0 -0.19356170722E+02 -0.16655259745E+03 -0.52827092138E+03  0.58175387576E+03  0.17678511397E+03 0.  0.
         24    2    5    5    0    0  0.53653120177E+02 -0.10689961301E+03 -0.25103216488E+03  0.28888487225E+03  0.78301577540E+02 0.  0.
          5    1    5    5  501    0 -0.73009290899E+02 -0.59652984449E+02 -0.27723875650E+03  0.29286900351E+03  0.47000000000E+01 0. -1.
        -11    1    6    6    0    0  0.56956351373E+02 -0.45752871679E+02 -0.85909609183E+02  0.11277327777E+03  0.00000000000E+00 0.  1.
         12    1    6    6    0    0 -0.33032311959E+01 -0.61146741327E+02 -0.16512255570E+03  0.17611159448E+03  0.00000000000E+00 0. -1.
         -5    1    3    3    0  503  0.26168277994E+02  0.13305698556E+03 -0.68928726369E+03  0.70251545326E+03  0.47000000000E+01 0.  1.
         13    1    4    4    0    0  0.34270125861E+02  0.13987361443E+02 -0.23718512734E+03  0.24005597772E+03  0.00000000000E+00 0. -1.
        -14    1    4    4    0    0 -0.41082233133E+02  0.19508250452E+02 -0.62343234764E+03  0.62508896471E+03  0.00000000000E+00 0.  1.
</event>
<event>
12    1  0.8449700E-002  0.2387212E+03  0.7818608E-02  0.1120847E+00
         21   -1    0    0  501  502  0.00000000000E+00  0.00000000000E+00  0.49490722204E+03  0.49490722204E+03  0.00000000000E+00 0. -1.
         21   -1    0    0  502  503 -0.00000000000E+00 -0.00000000000E+00 -0.14236355630E+03  0.14236355630E+03  0.00000000000E+00 0. -1.
         -6    2    1    2    0  503 -0.10076608611E+03 -0.13124043818E+03  0.35146121842E+02  0.24011967131E+03  0.17042402983E+03 0.  0.
        -24    2    3    3    0    0 -0.12358277564E+03 -0.83939846062E+02 -0.12876029256E+02  0.16880232186E+03  0.77523103297E+02 0.  0.
          6    2    1    2  501    0  0.10076608611E+03  0.13124043818E+03  0.31739754389E+03  0.39715110703E+03  0.17207540273E+03 0.  0.
         24    2    5    5    0    0  0.68844999265E+02  0.14151783815E+03  0.16568838349E+03  0.24170870585E+03  0.78762463272E+02 0.  0.
          5    1    5    5  501    0  0.31921086840E+02 -0.10277399971E+02  0.15170916040E+03  0.15544240118E+03  0.47000000000E+01 0. -1.
        -13    1    6    6    0    0  0.13581463098E+02  0.63087350459E+02  0.11816744982E+03  0.13464032131E+03  0.00000000000E+00 0.  1.
         14    1    6    6    0    0  0.55263536167E+02  0.78430487694E+02  0.47520933674E+02  0.10706838453E+03  0.00000000000E+00 0. -1.
         -5    1    3    3    0  503  0.22816689531E+02 -0.47300592120E+02  0.48022151098E+02  0.71317349446E+02  0.47000000000E+01 0.  1.
         11    1    4    4    0    0 -0.80175153739E+01  0.72629799379E+01 -0.18550552957E+02  0.21474506871E+02  0.00000000000E+00 0. -1.
        -12    1    4    4    0    0 -0.11556526026E+03 -0.91202826000E+02  0.56745237014E+01  0.14732781499E+03  0.00000000000E+00 0.  1.
</event>
<event>
12    1  0.8449700E-002  0.1784322E+03  0.7818608E-02  0.1169475E+00
         21   -1    0    0  501  502  0.00000000000E+00  0.00000000000E+00  0.21838821671E+03  0.21838821671E+03  0.00000000000E+00 0. -1.
         21   -1    0    0  502  503 -0.00000000000E+00 -0.00000000000E+00 -0.20847207366E+03  0.20847207366E+03  0.00000000000E+00 0. -1.
         -6    2    1    2    0  503 -0.24944153739E+02  0.36693634272E+02 -0.11253615980E+03  0.21045187853E+03  0.17221199816E+03 0.  0.
        -24    2    3    3    0    0  0.23899256866E+02  0.57956847108E+02 -0.22409738056E+02  0.10565366825E+03  0.82038592443E+02 0.  0.
          6    2    1    2  501    0  0.24944153739E+02 -0.36693634272E+02  0.12245230285E+03  0.21640841185E+03  0.17282766169E+03 0.  0.
         24    2    5    5    0    0  0.60097789710E+02 -0.62973609580E+02  0.13039608005E+03  0.17155744954E+03  0.69651999026E+02 0.  0.
          5    1    5    5  501    0 -0.35153635971E+02  0.26279975308E+02 -0.79437771957E+01  0.44850962313E+02  0.47000000000E+01 0. -1.
        -11    1    6    6    0    0  0.61447994935E+02 -0.48959665833E+02  0.57619481863E+02  0.97431563932E+02  0.00000000000E+00 0.  1.
         12    1    6    6    0    0 -0.13502052250E+01 -0.14013943748E+02  0.72776598184E+02  0.74125885605E+02  0.00000000000E+00 0. -1.
         -5    1    3    3    0  503 -0.48843410605E+02 -0.21263212836E+02 -0.90126421748E+02  0.10479821027E+03  0.47000000000E+01 0.  1.
         13    1    4    4    0    0  0.48986324730E+02  0.55284561609E+02 -0.29357874281E+02  0.79485392024E+02  0.00000000000E+00 0. -1.
        -14    1    4    4    0    0 -0.25087067864E+02  0.26722854992E+01  0.69481362250E+01  0.26168276229E+02  0.00000000000E+00 0.  1.
</event>
<event>
12    1  0.8449700E-002  0.1770101E+03  0.7818608E-02  0.1170936E+00
         21   -1    0    0  503  502  0.00000000000E+00  0.00000000000E+00  0.43131665802E+02  0.43131665802E+02  0.00000000000E+00 0.  1.
         21   -1    0    0  501  503 -0.00000000000E+00 -0.00000000000E+00 -0.12555971155E+04  0.12555971155E+04  0.00000000000E+00 0.  1.
          6    2    1    2  501    0 -0.21385596854E+02 -0.36346646879E+02 -0.10299793688E+04  0.10450789812E+04  0.17191321717E+03 0.  0.
         24    2    3    3    0    0 -0.13976363352E+02 -0.14376598424E+02 -0.10112114901E+04  0.10148812488E+04  0.83864450558E+02 0.  0.
         -6    2    1    2    0  502  0.21385596854E+02  0.36346646879E+02 -0.18248608092E+03  0.25364980015E+03  0.17105153871E+03 0.  0.
        -24    2    5    5    0    0 -0.32587413445E+02 -0.30382634504E+02 -0.83192620127E+02  0.12232134097E+03  0.77823225446E+02 0.  0.
          5    1    3    3  501    0 -0.74092335018E+01 -0.21970048455E+02 -0.18767878638E+02  0.30197732345E+02  0.47000000000E+01 0. -1.
        -11    1    4    4    0    0 -0.24921900907E+01 -0.49350419682E+02 -0.58411503098E+03  0.58620136843E+03  0.00000000000E+00 0.  1.
         12    1    4    4    0    0 -0.11484173261E+02  0.34973821258E+02 -0.42709645917E+03  0.42867988038E+03  0.00000000000E+00 0. -1.
         -5    1    5    5    0  502  0.53973010299E+02  0.66729281383E+02 -0.99293460788E+02  0.13132845918E+03  0.47000000000E+01 0.  1.
         11    1    6    6    0    0 -0.21331112724E+02 -0.19752507283E+02 -0.97192852226E+02  0.10144766354E+03  0.00000000000E+00 0. -1.
        -12    1    6    6    0    0 -0.11256300722E+02 -0.10630127221E+02  0.14000232098E+02  0.20873677431E+02  0.00000000000E+00 0.  1.
</event>
<event>
12    1  0.8449700E-002  0.2035562E+03  0.7818608E-02  0.1146818E+00
         21   -1    0    0  501  502  0.00000000000E+00  0.00000000000E+00  0.36647016605E+02  0.36647016605E+02  0.00000000000E+00 0. -1.
         21   -1    0    0  502  503 -0.00000000000E+00 -0.00000000000E+00 -0.13403223396E+04  0.13403223396E+04  0.00000000000E+00 0. -1.
         -6    2    1    2    0  503  0.39138533576E+02 -0.10055833954E+03 -0.92523394519E+03  0.94736106884E+03  0.17260167140E+03 0.  0.
        -24    2    3    3    0    0  0.71916709488E+02 -0.11746940838E+03 -0.83079771442E+03  0.84586877974E+03  0.79360413598E+02 0.  0.
          6    2    1    2  501    0 -0.39138533576E+02  0.10055833954E+03 -0.37844137779E+03  0.42960828735E+03  0.17234152045E+03 0.  0.
         24    2    5    5    0    0  0.17418742027E+01  0.61370693660E+02 -0.35335282823E+03  0.36749222945E+03  0.80143130232E+02 0.  0.
          5    1    5    5  501    0 -0.40880407779E+02  0.39187645878E+02 -0.25088549565E+02  0.62116057899E+02  0.47000000000E+01 0. -1.
        -11    1    6    6    0    0  0.17460770899E+02  0.18920147366E+01 -0.21923692523E+03  0.21993928167E+03  0.00000000000E+00 0.  1.
         12    1    6    6    0    0 -0.15718896696E+02  0.59478678923E+02 -0.13411590300E+03  0.14755294778E+03  0.00000000000E+00 0. -1.
         -5    1    3    3    0  503 -0.32778175912E+02  0.16911068839E+02 -0.94436230768E+02  0.10149228910E+03  0.47000000000E+01 0.  1.
         13    1    4    4    0    0  0.50429766093E+02 -0.70707370788E+02 -0.69909080785E+03  0.70446479771E+03  0.00000000000E+00 0. -1.
        -14    1    4    4    0    0  0.21486943396E+02 -0.46762037589E+02 -0.13170690657E+03  0.14140398203E+03  0.00000000000E+00 0.  1.
</event>
<event>
12    1  0.8449700E-002  0.1733271E+03  0.7818608E-02  0.1174499E+00
         21   -1    0    0  503  502  0.00000000000E+00  0.00000000000E+00  0.11094317943E+03  0.11094317943E+03  0.00000000000E+00 0.  1.
         21   -1    0    0  501  503 -0.00000000000E+00 -0.00000000000E+00 -0.15423600405E+04  0.15423600405E+04  0.00000000000E+00 0.  1.
          6    2    1    2  501    0  0.72488222345E+01  0.24469462168E+02 -0.14665433601E+04  0.14767503909E+04  0.17143800663E+03 0.  0.
         24    2    3    3    0    0 -0.41285905423E+02 -0.63770494800E+00 -0.12554476490E+04  0.12586461065E+04  0.79600813447E+02 0.  0.
         -6    2    1    2    0  502 -0.72488222345E+01 -0.24469462168E+02  0.35126499050E+02  0.17655282896E+03  0.17113074088E+03 0.  0.
        -24    2    5    5    0    0 -0.13259724720E+02 -0.79171502127E+02  0.43343230581E+02  0.12071333754E+03  0.79051421083E+02 0.  0.
          5    1    3    3  501    0  0.48534727657E+02  0.25107167116E+02 -0.21109571112E+03  0.21810428442E+03  0.47000000000E+01 0. -1.
        -13    1    4    4    0    0  0.19366724851E+02 -0.81894989229E+01 -0.59633132379E+03  0.59670192363E+03  0.00000000000E+00 0.  1.
         14    1    4    4    0    0 -0.60652630274E+02  0.75517939749E+01 -0.65911632517E+03  0.66194418289E+03  0.00000000000E+00 0. -1.
         -5    1    5    5    0  502  0.60109024857E+01  0.54702039959E+02 -0.82167315313E+01  0.55839491415E+02  0.47000000000E+01 0.  1.
         13    1    6    6    0    0 -0.36529382266E+02 -0.16868689128E+02 -0.18928056716E+01  0.40280654848E+02  0.00000000000E+00 0. -1.
        -14    1    6    6    0    0  0.23269657546E+02 -0.62302812999E+02  0.45236036253E+02  0.80432682696E+02  0.00000000000E+00 0.  1.
</event>
<event>
12    1  0.8449700E-002  0.1904461E+03  0.7818608E-02  0.1159041E+00
         21   -1    0    0  501  502  0.00000000000E+00  0.00000000000E+00  0.50183832213E+03  0.50183832213E+03  0.00000000000E+00 0.  1.
         21   -1    0    0  502  503 -0.00000000000E+00 -0.00000000000E+00 -0.10319613207E+03  0.10319613207E+03  0.00000000000E+00 0.  1.
         -6    2    1    2    0  503  0.86318746666E+01 -0.69981069915E+02  0.27866881027E+02  0.18820831751E+03  0.17226127921E+03 0.  0.
        -24    2    3    3    0    0  0.14093508951E+02  0.16941019533E+02  0.54929095635E+02  0.96886181411E+02  0.76707897010E+02 0.  0.
          6    2    1    2  501    0 -0.86318746666E+01  0.69981069915E+02  0.37077530903E+03  0.41682613668E+03  0.17691195275E+03 0.  0.
         24    2    5    5    0    0 -0.50911914688E+02  0.91527819215E+02  0.32591718610E+03  0.35135701891E+03  0.79122549196E+02 0.  0.
          5    1    5    5  501    0  0.42280040021E+02 -0.21546749300E+02  0.44858122931E+02  0.65469117777E+02  0.47000000000E+01 0. -1.
        -11    1    6    6    0    0 -0.50454314999E+02  0.19840492380E+02  0.92911747811E+02  0.10757265415E+03  0.00000000000E+00 0.  1.
         12    1    6    6    0    0 -0.45759968911E+00  0.71687326835E+02  0.23300543829E+03  0.24378436476E+03  0.00000000000E+00 0. -1.
         -5    1    3    3    0  503 -0.54616342839E+01 -0.86922089448E+02 -0.27062214608E+02  0.91322136103E+02  0.47000000000E+01 0.  1.
         13    1    4    4    0    0  0.14705853199E+01  0.68146949053E+01  0.72594788953E+02  0.72928773958E+02  0.00000000000E+00 0. -1.
        -14    1    4    4    0    0  0.12622923631E+02  0.10126324628E+02 -0.17665693318E+02  0.23957407453E+02  0.00000000000E+00 0.  1.
</event>
<event>
12    1  0.8449700E-002  0.2641965E+03  0.7818608E-02  0.1105130E+00
         21   -1    0    0  503  502  0.00000000000E+00  0.00000000000E+00  0.24306220687E+03  0.24306220687E+03  0.00000000000E+00 0. -1.
         21   -1    0    0  501  503 -0.00000000000E+00 -0.00000000000E+00 -0.57491155067E+03  0.57491155067E+03  0.00000000000E+00 0. -1.
          6    2    1    2  501    0 -0.55780707609E+02  0.19202723203E+03 -0.45652417873E+03  0.52583750775E+03  0.16764490332E+03 0.  0.
         24    2    3    3    0    0 -0.10190924124E+03  0.12165179230E+03 -0.27326942046E+03  0.32413242462E+03  0.72117962489E+02 0.  0.
         -6    2    1    2    0  502  0.55780707609E+02 -0.19202723203E+03  0.12467483493E+03  0.29213624979E+03  0.17266681440E+03 0.  0.
        -24    2    5    5    0    0 -0.24074782516E+02 -0.11613515064E+03  0.11324982183E+03  0.18127990922E+03  0.77265224864E+02 0.  0.
          5    1    3    3  501    0  0.46128533626E+02  0.70375439729E+02 -0.18325475826E+03  0.20170508312E+03  0.47000000000E+01 0. -1.
        -13    1    4    4    0    0 -0.74078236250E+02  0.11145757300E+03 -0.25833737194E+03  0.29094427887E+03  0.00000000000E+00 0.  1.
         14    1    4    4    0    0 -0.27831004985E+02  0.10194219298E+02 -0.14932048521E+02  0.33188145754E+02  0.00000000000E+00 0. -1.
         -5    1    5    5    0  502  0.79855490126E+02 -0.75892081387E+02  0.11425013099E+02  0.11085634057E+03  0.47000000000E+01 0.  1.
         13    1    6    6    0    0 -0.15051908111E+02 -0.25553725355E+02  0.78374639818E+02  0.83798192009E+02  0.00000000000E+00 0. -1.
        -14    1    6    6    0    0 -0.90228744055E+01 -0.90581425286E+02  0.34875182011E+02  0.97481717207E+02  0.00000000000E+00 0.  1.
</event>
<event>
12    1  0.8449700E-002  0.1856264E+03  0.7818608E-02  0.1162965E+00
         21   -1    0    0  503  502  0.00000000000E+00  0.00000000000E+00  0.14027207126E+03  0.14027207126E+03  0.00000000000E+00 0. -1.
         21   -1    0    0  501  503 -0.00000000000E+00 -0.00000000000E+00 -0.96841702740E+03  0.96841702740E+03  0.00000000000E+00 0. -1.
          6    2    1    2  501    0  0.21680593242E+02 -0.61577678339E+02 -0.89450643157E+03  0.91356385241E+03  0.17376794215E+03 0.  0.
         24    2    3    3    0    0 -0.14220837165E+02 -0.93843900781E+02 -0.75372932830E+03  0.76466689267E+03  0.87170215534E+02 0.  0.
         -6    2    1    2    0  502 -0.21680593242E+02  0.61577678339E+02  0.66361475426E+02  0.19512524626E+03  0.17148806872E+03 0.  0.
        -24    2    5    5    0    0  0.60012875811E+01  0.19043959521E+02 -0.28969171579E+02  0.87026097232E+02  0.79596738945E+02 0.  0.
          5    1    3    3  501    0  0.35901430407E+02  0.32266222442E+02 -0.14077710326E+03  0.14889695974E+03  0.47000000000E+01 0. -1.
        -11    1    4    4    0    0 -0.22641851715E+01  0.16208087971E+02 -0.14830776474E+03  0.14920798146E+03  0.00000000000E+00 0.  1.
         12    1    4    4    0    0 -0.11956651994E+02 -0.11005198875E+03 -0.60542156356E+03  0.61545891120E+03  0.00000000000E+00 0. -1.
         -5    1    5    5    0  502 -0.27681880823E+02  0.42533718818E+02  0.95330647005E+02  0.10809914903E+03  0.47000000000E+01 0.  1.
         13    1    6    6    0    0  0.32117601722E+01  0.40907671236E+02  0.10019030037E+02  0.42239009603E+02  0.00000000000E+00 0. -1.
        -14    1    6    6    0    0  0.27895274090E+01 -0.21863711715E+02 -0.38988201615E+02  0.44787087629E+02  0.00000000000E+00 0.  1.
</event>
<event>
12    1  0.8449700E-002  0.1978301E+03  0.7818608E-02  0.1151662E+00
         21   -1    0    0  501  502  0.00000000000E+00  0.00000000000E+00  0.35333567798E+03  0.35333567798E+03  0.00000000000E+00 0.  1.
         21   -1    0    0  502  503 -0.00000000000E+00 -0.00000000000E+00 -0.36656201678E+03  0.36656201678E+03  0.00000000000E+00 0.  1.
         -6    2    1    2    0  503 -0.37908763231E+02 -0.88722617930E+02 -0.30742511651E+03  0.36557753223E+03  0.17270770842E+03 0.  0.
        -24    2    3    3    0    0 -0.89690755533E+02 -0.43601308162E+02 -0.17908283672E+03  0.21993709106E+03  0.79725503544E+02 0.  0.
          6    2    1    2  501    0  0.37908763231E+02  0.88722617930E+02  0.29419877771E+03  0.35432016253E+03  0.17228197673E+03 0.  0.
         24    2    5    5    0    0  0.70913274777E+01  0.90695379977E+02  0.99050275633E+02  0.15668758930E+03  0.80399655870E+02 0.  0.
          5    1    5    5  501    0  0.30817435753E+02 -0.19727620469E+01  0.19514850208E+03  0.19763257322E+03  0.47000000000E+01 0. -1.
        -11    1    6    6    0    0 -0.22781811835E+02  0.61222577395E+02  0.93929571574E+02  0.11441144763E+03  0.00000000000E+00 0.  1.
         12    1    6    6    0    0  0.29873139313E+02  0.29472802582E+02  0.51207040589E+01  0.42276141670E+02  0.00000000000E+00 0. -1.
         -5    1    3    3    0  503  0.51781992302E+02 -0.45121309768E+02 -0.12834227979E+03  0.14564044117E+03  0.47000000000E+01 0.  1.
         13    1    4    4    0    0 -0.81625907518E+02 -0.41132360715E+02 -0.18714230449E+03  0.20827122222E+03  0.00000000000E+00 0. -1.
        -14    1    4    4    0    0 -0.80648480150E+01 -0.24689474474E+01  0.80594677710E+01  0.11665868838E+02  0.00000000000E+00 0.  1.
</event>
<event>
12    1  0.8449700E-002  0.1842608E+03  0.7818608E-02  0.1164077E+00
         21   -1    0    0  501  502  0.00000000000E+00  0.00000000000E+00  0.50420600824E+02  0.50420600824E+02  0.00000000000E+00 0.  1.
         21   -1    0    0  502  503 -0.00000000000E+00 -0.00000000000E+00 -0.66819218313E+03  0.66819218313E+03  0.00000000000E+00 0.  1.
         -6    2    1    2    0  503 -0.30329321570E+01 -0.63906374895E+02 -0.31052164509E+03  0.36107578327E+03  0.17279700740E+03 0.  0.
        -24    2    3    3    0    0 -0.35405143262E+02 -0.50928579673E+01 -0.26499052796E+03  0.27982209134E+03  0.82467942392E+02 0.  0.
          6    2    1    2  501    0  0.30329321570E+01  0.63906374895E+02 -0.30724993722E+03  0.35753700068E+03  0.17128035353E+03 0.  0.
         24    2    5    5    0    0  0.62518503961E+02  0.99071890978E+01 -0.15888844872E+03  0.18875410289E+03  0.79848960453E+02 0.  0.
          5    1    5    5  501    0 -0.59485571804E+02  0.53999185797E+02 -0.14836148849E+03  0.16878289779E+03  0.47000000000E+01 0. -1.
        -11    1    6    6    0    0  0.85454647124E+01  0.19927210494E+02 -0.11884286169E+03  0.12080457136E+03  0.00000000000E+00 0.  1.
         12    1    6    6    0    0  0.53973039249E+02 -0.10020021396E+02 -0.40045587030E+02  0.67949531530E+02  0.00000000000E+00 0. -1.
         -5    1    3    3    0  503  0.32372211105E+02 -0.58813516928E+02 -0.45531117126E+02  0.81253691928E+02  0.47000000000E+01 0.  1.
         13    1    4    4    0    0 -0.47776705703E+02  0.27430296098E+02 -0.16123720360E+03  0.17038917388E+03  0.00000000000E+00 0. -1.
        -14    1    4    4    0    0  0.12371562441E+02 -0.32523154065E+02 -0.10375332436E+03  0.10943291746E+03  0.00000000000E+00 0.  1.
</event>
<event>
12    1  0.8449700E-002  0.1742372E+03  0.7818608E-02  0.1173515E+00
         21   -1    0    0  501  502  0.00000000000E+00  0.00000000000E+00  0.21915580119E+03  0.21915580119E+03  0.00000000000E+00 0. -1.
         21   -1    0    0  502  503 -0.00000000000E+00 -0.00000000000E+00 -0.18752220246E+03  0.18752220246E+03  0.00000000000E+00 0. -1.
         -6    2    1    2    0  503  0.15707258496E+02 -0.21936667826E+02 -0.88174456626E+02  0.19522455792E+03  0.17207544231E+03 0.  0.
        -24    2    3    3    0    0 -0.43616894133E+02 -0.55660150761E+02 -0.57923988589E+02  0.12043278562E+03  0.78411616243E+02 0.  0.
          6    2    1    2  501    0 -0.15707258496E+02  0.21936667826E+02  0.11980805536E+03  0.21145344574E+03  0.17213556930E+03 0.  0.
         24    2    5    5    0    0  0.61368234677E+01 -0.53368822358E+02  0.70453478171E+02  0.11868467374E+03  0.78971307395E+02 0.  0.
          5    1    5    5  501    0 -0.21844081964E+02  0.75305490184E+02  0.49354577189E+02  0.92768771999E+02  0.47000000000E+01 0. -1.
        -13    1    6    6    0    0 -0.22696306916E+02 -0.53697498713E+02  0.68260230606E+02  0.89766378996E+02  0.00000000000E+00 0.  1.
         14    1    6    6    0    0  0.28833130384E+02  0.32867635539E+00  0.21932475651E+01  0.28918294741E+02  0.00000000000E+00 0. -1.
         -5    1    3    3    0  503  0.59324152629E+02  0.33723482935E+02 -0.30250468037E+02  0.74791772294E+02  0.47000000000E+01 0.  1.
         13    1    4    4    0    0 -0.35620984358E+02 -0.44827828495E+02  0.36793496905E+01  0.57375311314E+02  0.00000000000E+00 0. -1.
        -14    1    4    4    0    0 -0.79959097746E+01 -0.10832322265E+02 -0.61603338280E+02  0.63057474307E+02  0.00000000000E+00 0.  1.
</event>
<event>
12    1  0.8449700E-002  0.2103207E+03  0.7818608E-02  0.1141444E+00
         21   -1    0    0  503  502  0.00000000000E+00  0.00000000000E+00  0.10199022940E+03  0.10199022940E+03  0.00000000000E+00 0.  1.
         21   -1    0    0  501  503 -0.00000000000E+00 -0.00000000000E+00 -0.48241633311E+03  0.48241633311E+03  0.00000000000E+00 0.  1.
          6    2    1    2  501    0 -0.11940291387E+03  0.16212385478E+02 -0.28462372487E+03  0.35390035924E+03  0.17238010973E+03 0.  0.
         24    2    3    3    0    0 -0.12636048037E+03 -0.38916271386E+02 -0.21946172357E+03  0.26813467291E+03  0.79065210580E+02 0.  0.
         -6    2    1    2    0  502  0.11940291387E+03 -0.16212385478E+02 -0.95802378838E+02  0.23050620327E+03  0.17156665372E+03 0.  0.
        -24    2    5    5    0    0  0.16141342211E+02 -0.21637059300E+02 -0.95866731310E+02  0.12699546272E+03  0.78795381307E+02 0.  0.
          5    1    3    3  501    0  0.69575664988E+01  0.55128656864E+02 -0.65162001303E+02  0.85765686338E+02  0.47000000000E+01 0. -1.
        -11    1    4    4    0    0 -0.10046862349E+03  0.18359180621E+01 -0.17840057023E+03  0.20475370170E+03  0.00000000000E+00 0.  1.
         12    1    4    4    0    0 -0.25891856885E+02 -0.40752189448E+02 -0.41061153339E+02  0.63380971208E+02  0.00000000000E+00 0. -1.
         -5    1    5    5    0  502  0.10326157166E+03  0.54246738219E+01  0.64352471675E-01  0.10351074055E+03  0.47000000000E+01 0.  1.
         11    1    6    6    0    0  0.47986292656E+02 -0.10491698894E+02 -0.63088963258E+02  0.79956096163E+02  0.00000000000E+00 0. -1.
        -12    1    6    6    0    0 -0.31844950445E+02 -0.11145360406E+02 -0.32777768052E+02  0.47039366555E+02  0.00000000000E+00 0.  1.
</event>
<event>
12    1  0.8449700E-002  0.1814662E+03  0.7818608E-02  0.1167025E+00
         21   -1    0    0  501  502  0.00000000000E+00  0.00000000000E+00  0.49861586786E+03  0.49861586786E+03  0.00000000000E+00 0. -1.
         21   -1    0    0  502  503 -0.00000000000E+00 -0.00000000000E+00 -0.17877294529E+03  0.17877294529E+03  0.00000000000E+00 0. -1.
         -6    2    1    2    0  503  0.41363645392E+02  0.44537205713E+02 -0.11058590125E+03  0.21027109127E+03  0.16819683830E+03 0.  0.
        -24    2    3    3    0    0  0.57041237448E+02  0.79350340350E+02 -0.44754494589E+02  0.13402408910E+03  0.80058181286E+02 0.  0.
          6    2    1    2  501    0 -0.41363645392E+02 -0.44537205713E+02  0.43042882383E+03  0.46711772189E+03  0.17098385849E+03 0.  0.
         24    2    5    5    0    0 -0.17222673370E+02  0.27349506968E+02  0.31585755090E+03  0.32964353315E+03  0.88624209292E+02 0.  0.
          5    1    5    5  501    0 -0.24140972022E+02 -0.71886712680E+02  0.11457127292E+03  0.13747418874E+03  0.47000000000E+01 0. -1.
        -13    1    6    6    0    0 -0.20713080717E+02  0.11696069914E+02  0.14497242301E+02  0.27856772939E+02  0.00000000000E+00 0.  1.
         14    1    6    6    0    0  0.34904073471E+01  0.15653437054E+02  0.30136030860E+03  0.30178676021E+03  0.00000000000E+00 0. -1.
         -5    1    3    3    0  503 -0.15677592056E+02 -0.34813134637E+02 -0.65831406660E+02  0.76247002162E+02  0.47000000000E+01 0.  1.
         11    1    4    4    0    0  0.16031032873E+02  0.50934839150E+01 -0.46216915708E+02  0.49182729600E+02  0.00000000000E+00 0. -1.
        -12    1    4    4    0    0  0.41010204575E+02  0.74256856435E+02  0.14624211183E+01  0.84841359504E+02  0.00000000000E+00 0.  1.
</event>
<event>
12    1  0.8449700E-002  0.2236005E+03  0.7818608E-02  0.1131735E+00
         21   -1    0    0  501  502  0.00000000000E+00  0.00000000000E+00  0.11159485437E+04  0.11159485437E+04  0.00000000000E+00 0. -1.
         21   -1    0    0  502  503 -0.00000000000E+00 -0.00000000000E+00 -0.61406077794E+02  0.61406077794E+02  0.00000000000E+00 0.  1.
         -6    2    1    2    0  503 -0.83746052837E+02 -0.11535413556E+03  0.21847955577E+03  0.31261877062E+03  0.17227072153E+03 0.  0.
        -24    2    3    3    0    0  0.56940920041E+01 -0.69457695798E+02  0.52361676805E+02  0.11839399773E+03  0.80116161358E+02 0.  0.
          6    2    1    2  501    0  0.83746052837E+02  0.11535413556E+03  0.83606291009E+03  0.86473585083E+03  0.16866215973E+03 0.  0.
         24    2    5    5    0    0  0.87530892538E+02  0.12103668331E+03  0.83842870258E+03  0.85611591263E+03  0.87522743893E+02 0.  0.
          5    1    5    5  501    0 -0.37848397009E+01 -0.56825477442E+01 -0.23657924900E+01  0.86199381977E+01  0.47000000000E+01 0. -1.
        -13    1    6    6    0    0  0.39513351438E+02  0.71161644524E+02  0.23435570207E+03  0.24808845134E+03  0.00000000000E+00 0.  1.
         14    1    6    6    0    0  0.48017541100E+02  0.49875038783E+02  0.60407300051E+03  0.60802746129E+03  0.00000000000E+00 0. -1.
         -5    1    3    3    0  503 -0.89440144841E+02 -0.45896439765E+02  0.16611787896E+03  0.19422477289E+03  0.47000000000E+01 0.  1.
         13    1    4    4    0    0 -0.44543610466E+01 -0.65836024006E+02  0.70960016415E+02  0.96899676567E+02  0.00000000000E+00 0. -1.
        -14    1    4    4    0    0  0.10148453051E+02 -0.36216717920E+01 -0.18598339610E+02  0.21494321160E+02  0.00000000000E+00 0.  1.
</event>
<event>
12    1  0.8449700E-002  0.1860967E+03  0.7818608E-02  0.1162337E+00
         21   -1    0    0  503  502  0.00000000000E+00  0.00000000000E+00  0.69780684032E+03  0.69780684032E+03  0.00000000000E+00 0.  1.
         21   -1    0    0  501  503 -0.00000000000E+00 -0.00000000000E+00 -0.49657757970E+02  0.49657757970E+02  0.00000000000E+00 0.  1.
          6    2    1    2  501    0 -0.35493840443E+02  0.58785507456E+02  0.29251581621E+03  0.34669511206E+03  0.17296372277E+03 0.  0.
         24    2    3    3    0    0  0.32621361761E+02 -0.10398471157E+02  0.15204872162E+03  0.17587591427E+03  0.81493815901E+02 0.  0.
         -6    2    1    2    0  502  0.35493840443E+02 -0.58785507456E+02  0.35563326613E+03  0.40076948623E+03  0.17153895335E+03 0.  0.
        -24    2    5    5    0    0  0.53733212539E+02 -0.81247576162E+02  0.34809808588E+03  0.37050253781E+03  0.81310678079E+02 0.  0.
          5    1    3    3  501    0 -0.68115202204E+02  0.69183978613E+02  0.14046709460E+03  0.17081919779E+03  0.47000000000E+01 0. -1.
        -11    1    4    4    0    0  0.95553047698E+01 -0.73457627411E+01  0.15213189683E+03  0.15260857811E+03  0.00000000000E+00 0.  1.
         12    1    4    4    0    0  0.23066056991E+02 -0.30527084160E+01 -0.83175217600E-01  0.23267336158E+02  0.00000000000E+00 0. -1.
         -5    1    5    5    0  502 -0.18239372096E+02  0.22462068706E+02  0.75351802539E+01  0.30266948417E+02  0.47000000000E+01 0.  1.
         11    1    6    6    0    0 -0.18709762567E+02 -0.21676614522E+02  0.12959136882E+03  0.13271719446E+03  0.00000000000E+00 0. -1.
        -12    1    6    6    0    0  0.72442975106E+02 -0.59570961640E+02  0.21850671706E+03  0.23778534335E+03  0.00000000000E+00 0.  1.
</event>
<event>
12    1  0.8449700E-002  0.3774378E+03  0.7818608E-02  0.1052152E+00
         21   -1    0    0  501  502  0.00000000000E+00  0.00000000000E+00  0.23208295394E+03  0.23208295394E+03  0.00000000000E+00 0. -1.
         21   -1    0    0  502  503 -0.00000000000E+00 -0.00000000000E+00 -0.64369061564E+03  0.64369061564E+03  0.00000000000E+00 0.  1.
         -6    2    1    2    0  503 -0.17407971611E+03  0.28141344546E+03 -0.30791604888E+03  0.48710530633E+03  0.18155443109E+03 0.  0.
        -24    2    3    3    0    0 -0.11552863796E+03  0.11668768752E+03 -0.78884204344E+02  0.19893785519E+03  0.79941665775E+02 0.  0.
          6    2    1    2  501    0  0.17407971611E+03 -0.28141344546E+03 -0.10369161283E+03  0.38866826325E+03  0.17553858106E+03 0.  0.
         24    2    5    5    0    0  0.26772784204E+02 -0.16954819950E+03 -0.31954008836E+02  0.19022043820E+03  0.75494254746E+02 0.  0.
          5    1    5    5  501    0  0.14730693190E+03 -0.11186524596E+03 -0.71737603991E+02  0.19844782505E+03  0.47000000000E+01 0. -1.
        -13    1    6    6    0    0  0.29410434112E+01  0.76665146830E+01 -0.43498831168E+01  0.92922907220E+01  0.00000000000E+00 0.  1.
         14    1    6    6    0    0  0.23831740792E+02 -0.17721471418E+03 -0.27604125719E+02  0.18092814748E+03  0.00000000000E+00 0. -1.
         -5    1    3    3    0  503 -0.58551078149E+02  0.16472575794E+03 -0.22903184454E+03  0.28816745114E+03  0.47000000000E+01 0.  1.
         11    1    4    4    0    0 -0.20106445919E+02 -0.11120777333E+02 -0.12678035402E+02  0.26242588242E+02  0.00000000000E+00 0. -1.
        -12    1    4    4    0    0 -0.95422192039E+02  0.12780846485E+03 -0.66206168942E+02  0.17269526695E+03  0.00000000000E+00 0.  1.
</event>
<event>
12    1  0.8449700E-002  0.2162911E+03  0.7818608E-02  0.1136762E+00
         21   -1    0    0  501  502  0.00000000000E+00  0.00000000000E+00  0.70750155592E+02  0.70750155592E+02  0.00000000000E+00 0. -1.
         21   -1    0    0  502  503 -0.00000000000E+00 -0.00000000000E+00 -0.92442822955E+03  0.92442822955E+03  0.00000000000E+00 0. -1.
         -6    2    1    2    0  503 -0.82184914874E+01  0.13005586075E+03 -0.69271308433E+03  0.72556462895E+03  0.17207714276E+03 0.  0.
        -24    2    3    3    0    0  0.32969373761E+02  0.11709869828E+02 -0.36505532885E+03  0.37473146555E+03  0.77033612776E+02 0.  0.
          6    2    1    2  501    0  0.82184914874E+01 -0.13005586075E+03 -0.16096498963E+03  0.26961375620E+03  0.17262612528E+03 0.  0.
         24    2    5    5    0    0 -0.27164834435E+02 -0.15125196620E+03 -0.12025169595E+03  0.21146810355E+03  0.81505846000E+02 0.  0.
          5    1    5    5  501    0  0.35383325923E+02  0.21196105450E+02 -0.40713293680E+02  0.58145652648E+02  0.47000000000E+01 0. -1.
        -13    1    6    6    0    0 -0.16875296035E+02 -0.57488448539E+01 -0.42689277317E+02  0.46262287354E+02  0.00000000000E+00 0.  1.
         14    1    6    6    0    0 -0.10289538400E+02 -0.14550312134E+03 -0.77562418636E+02  0.16520581620E+03  0.00000000000E+00 0. -1.
         -5    1    3    3    0  503 -0.41187865248E+02  0.11834599092E+03 -0.32765775548E+03  0.35083316339E+03  0.47000000000E+01 0.  1.
         13    1    4    4    0    0  0.12647332630E+02  0.25272382805E+02 -0.41229109534E+02  0.49984875995E+02  0.00000000000E+00 0. -1.
        -14    1    4    4    0    0  0.20322041131E+02 -0.13562512977E+02 -0.32382621932E+03  0.32474658956E+03  0.00000000000E+00 0.  1.
</event>
<event>
12    1  0.8449700E-002  0.1943209E+03  0.7818608E-02  0.1154811E+00
         21   -1    0    0  503  502  0.00000000000E+00  0.00000000000E+00  0.25374408263E+03  0.25374408263E+03  0.00000000000E+00 0. -1.
         21   -1    0    0  501  503 -0.00000000000E+00 -0.00000000000E+00 -0.43590111077E+03  0.43590111077E+03  0.00000000000E+00 0. -1.
          6    2    1    2  501    0  0.86332056763E+02 -0.30939190245E+02 -0.37130888405E+03  0.41908339392E+03  0.17131884358E+03 0.  0.
         24    2    3    3    0    0  0.50615369003E+02  0.46662419285E+02 -0.23537118950E+03  0.25846322587E+03  0.81635441595E+02 0.  0.
         -6    2    1    2    0  502 -0.86332056763E+02  0.30939190245E+02  0.18915185590E+03  0.27056179948E+03  0.17033732776E+03 0.  0.
        -24    2    5    5    0    0 -0.94090201246E+02 -0.19924257949E+02  0.17749302711E+03  0.21759674065E+03  0.81207295509E+02 0.  0.
          5    1    3    3  501    0  0.35716687761E+02 -0.77601609531E+02 -0.13593769454E+03  0.16062016805E+03  0.47000000000E+01 0. -1.
        -13    1    4    4    0    0 -0.20650448986E+02  0.21201459737E+02 -0.48060293166E+02  0.56442313183E+02  0.00000000000E+00 0.  1.
         14    1    4    4    0    0  0.71265817988E+02  0.25460959549E+02 -0.18731089634E+03  0.20202091268E+03  0.00000000000E+00 0. -1.
         -5    1    5    5    0  502  0.77581444830E+01  0.50863448195E+02  0.11658828793E+02  0.52965058830E+02  0.47000000000E+01 0.  1.
         13    1    6    6    0    0 -0.35874949192E+02 -0.38817766945E+02  0.12933042441E+03  0.13971467241E+03  0.00000000000E+00 0. -1.
        -14    1    6    6    0    0 -0.58215252055E+02  0.18893508996E+02  0.48162602704E+02  0.77882068239E+02  0.00000000000E+00 0.  1.
</event>
<event>
12    1  0.8449700E-002  0.2079608E+03  0.7818608E-02  0.1143376E+00
         21   -1    0    0  501  502  0.00000000000E+00  0.00000000000E+00  0.31391791294E+03  0.31391791294E+03  0.00000000000E+00 0.  1.
         21   -1    0    0  502  503 -0.00000000000E+00 -0.00000000000E+00 -0.14320023998E+03  0.14320023998E+03  0.00000000000E+00 0. -1.
         -6    2    1    2    0  503 -0.11684260027E+03  0.40165671199E+01  0.38588713905E+02  0.21151075321E+03  0.17198658039E+03 0.  0.
        -24    2    3    3    0    0 -0.30363817936E+02 -0.47207105622E+02 -0.12324488375E+02  0.98742457090E+02  0.80297618630E+02 0.  0.
          6    2    1    2  501    0  0.11684260027E+03 -0.40165671199E+01  0.13212895906E+03  0.24560739971E+03  0.17087014637E+03 0.  0.
         24    2    5    5    0    0  0.13263518229E+03  0.12644235102E+02  0.15015847860E+03  0.21604151477E+03  0.79839834356E+02 0.  0.
          5    1    5    5  501    0 -0.15792582013E+02 -0.16660802222E+02 -0.18029519536E+02  0.29565884935E+02  0.47000000000E+01 0. -1.
        -13    1    6    6    0    0  0.98726430407E+02 -0.17256910664E+02  0.64499804207E+02  0.11918445272E+03  0.00000000000E+00 0.  1.
         14    1    6    6    0    0  0.33908751878E+02  0.29901145766E+02  0.85658674392E+02  0.96857062059E+02  0.00000000000E+00 0. -1.
         -5    1    3    3    0  503 -0.86478782336E+02  0.51223672742E+02  0.50913202280E+02  0.11276829612E+03  0.47000000000E+01 0.  1.
         11    1    4    4    0    0 -0.17437369331E+02 -0.25737254794E+02 -0.46761121010E+02  0.56152208965E+02  0.00000000000E+00 0. -1.
        -12    1    4    4    0    0 -0.12926448605E+02 -0.21469850828E+02  0.34436632635E+02  0.42590248125E+02  0.00000000000E+00 0.  1.
</event>
<event>
12    1  0.8449700E-002  0.5688806E+03  0.7818608E-02  0.9972173E-01
         21   -1    0    0  503  502  0.00000000000E+00  0.00000000000E+00  0.46523653578E+03  0.46523653578E+03  0.00000000000E+00 0.  1.
         21   -1    0    0  501  503 -0.00000000000E+00 -0.00000000000E+00 -0.70150856896E+03  0.70150856896E+03  0.00000000000E+00 0. -1.
          6    2    1    2  501    0 -0.12625247189E+03 -0.52733825262E+03 -0.64512966541E+02  0.57250078114E+03  0.17195901320E+03 0.  0.
         24    2    3    3    0    0 -0.15174801113E+03 -0.37809918254E+03 -0.25048688612E+02  0.41597013944E+03  0.80107860951E+02 0.  0.
         -6    2    1    2    0  502  0.12625247189E+03  0.52733825262E+03 -0.17175906664E+03  0.59424432360E+03  0.17204598170E+03 0.  0.
        -24    2    5    5    0    0  0.68991712208E+02  0.13732570117E+03 -0.63911913631E+02  0.18553699152E+03  0.81981936792E+02 0.  0.
          5    1    3    3  501    0  0.25495539232E+02 -0.14923907008E+03 -0.39464277929E+02  0.15653064170E+03  0.47000000000E+01 0. -1.
        -13    1    4    4    0    0 -0.81732656067E+02 -0.12848021824E+03 -0.36054652700E+02  0.15648428524E+03  0.00000000000E+00 0.  1.
         14    1    4    4    0    0 -0.70015355059E+02 -0.24961896430E+03  0.11005964088E+02  0.25948585420E+03  0.00000000000E+00 0. -1.
         -5    1    5    5    0  502  0.57260759685E+02  0.39001255145E+03 -0.10784715301E+03  0.40870733208E+03  0.47000000000E+01 0.  1.
         11    1    6    6    0    0 -0.10320317518E+02  0.27043005304E+02  0.10328489602E+02  0.30732894218E+02  0.00000000000E+00 0. -1.
        -12    1    6    6    0    0  0.79312029727E+02  0.11028269587E+03 -0.74240403234E+02  0.15480409730E+03  0.00000000000E+00 0.  1.
</event>
<event>
12    1  0.8449700E-002  0.1995541E+03  0.7818608E-02  0.1150179E+00
         21   -1    0    0  503  502  0.00000000000E+00  0.00000000000E+00  0.25557102430E+03  0.25557102430E+03  0.00000000000E+00 0. -1.
         21   -1    0    0  501  503 -0.00000000000E+00 -0.00000000000E+00 -0.37185512673E+03  0.37185512673E+03  0.00000000000E+00 0. -1.
          6    2    1    2  501    0  0.97433549547E+02  0.26791045083E+02 -0.29737041884E+03  0.35795610252E+03  0.17173336500E+03 0.  0.
         24    2    3    3    0    0  0.73540119111E+02 -0.18115072927E+02 -0.82387981600E+02  0.13698779308E+03  0.79003613560E+02 0.  0.
         -6    2    1    2    0  502 -0.97433549547E+02 -0.26791045083E+02  0.18108631641E+03  0.26947004851E+03  0.17207787882E+03 0.  0.
        -24    2    5    5    0    0 -0.76560354874E+02 -0.65154858557E+02  0.18375656894E+03  0.22546217775E+03  0.83427054576E+02 0.  0.
          5    1    3    3  501    0  0.23893430436E+02  0.44906118010E+02 -0.21498243724E+03  0.22096830943E+03  0.47000000000E+01 0. -1.
        -13    1    4    4    0    0  0.29225365427E+02  0.14200895643E+02  0.59259223682E+01  0.33028835543E+02  0.00000000000E+00 0.  1.
         14    1    4    4    0    0  0.44314753684E+02 -0.32315968571E+02 -0.88313903968E+02  0.10395895754E+03  0.00000000000E+00 0. -1.
         -5    1    5    5    0  502 -0.20873194673E+02  0.38363813474E+02 -0.26702525331E+01  0.44007870758E+02  0.47000000000E+01 0.  1.
         11    1    6    6    0    0 -0.88931525544E+02 -0.31602625689E+02  0.14174961174E+03  0.17029531589E+03  0.00000000000E+00 0. -1.
        -12    1    6    6    0    0  0.12371170670E+02 -0.33552232868E+02  0.42006957205E+02  0.55166861863E+02  0.00000000000E+00 0.  1.
</event>
<event>
12    1  0.8449700E-002  0.2913484E+03  0.7818608E-02  0.1089666E+00
         21   -1    0    0  501  502  0.00000000000E+00  0.00000000000E+00  0.47218140387E+03  0.47218140387E+03  0.00000000000E+00 0.  1.
         21   -1    0    0  502  503 -0.00000000000E+00 -0.00000000000E+00 -0.19366370684E+03  0.19366370684E+03  0.00000000000E+00 0.  1.
         -6    2    1    2    0  503 -0.99310629422E+02 -0.21296547992E+03  0.22868928378E+03  0.37026641358E+03  0.17199282471E+03 0.  0.
        -24    2    3    3    0    0 -0.93393458658E+02 -0.15636046847E+03  0.24116385368E+03  0.31181262734E+03  0.76786561490E+02 0.  0.
          6    2    1    2  501    0  0.99310629422E+02  0.21296547992E+03  0.49828413245E+02  0.29557869713E+03  0.17224110624E+03 0.  0.
         24    2    5    5    0    0  0.60695371526E+02  0.62102967502E+02  0.72234761213E+02  0.13817866465E+03  0.79591305680E+02 0.  0.
          5    1    5    5  501    0  0.38615257896E+02  0.15086251242E+03 -0.22406347968E+02  0.15740003248E+03  0.47000000000E+01 0. -1.
        -11    1    6    6    0    0  0.11419236743E+02  0.64420040160E+02  0.56371569356E+02  0.86360259226E+02  0.00000000000E+00 0.  1.
         12    1    6    6    0    0  0.49276134783E+02 -0.23170726577E+01  0.15863191857E+02  0.51818405424E+02  0.00000000000E+00 0. -1.
         -5    1    3    3    0  503 -0.59171707638E+01 -0.56605011454E+02 -0.12474569897E+02  0.58453786239E+02  0.47000000000E+01 0.  1.
         11    1    4    4    0    0 -0.38519574356E+02 -0.13880636242E+02  0.27972687193E+02  0.49587305833E+02  0.00000000000E+00 0. -1.
        -12    1    4    4    0    0 -0.54873884302E+02 -0.14247983223E+03  0.21319116649E+03  0.26222532151E+03  0.00000000000E+00 0.  1.
</event>
<event>
12    1  0.8449700E-002  0.3586178E+03  0.7818608E-02  0.1059152E+00
         21   -1    0    0  503  502  0.00000000000E+00  0.00000000000E+00  0.10284330116E+04  0.10284330116E+04  0.00000000000E+00 0. -1.
         21   -1    0    0  501  503 -0.00000000000E+00 -0.00000000000E+00 -0.25274843889E+03  0.25274843889E+03  0.00000000000E+00 0. -1.
          6    2    1    2  501    0 -0.12199966674E+02  0.31454986737E+03 -0.67557117967E+02  0.36492556405E+03  0.17180292448E+03 0.  0.
         24    2    3    3    0    0  0.14415889397E+02  0.25098922848E+03 -0.10755138322E+03  0.28511334780E+03  0.80739769497E+02 0.  0.
         -6    2    1    2    0  502  0.12199966674E+02 -0.31454986737E+03  0.84324169066E+03  0.91625588642E+03  0.17139965663E+03 0.  0.
        -24    2    5    5    0    0  0.60420639645E+02 -0.20033887227E+03  0.42585906732E+03  0.48082537650E+03  0.77786760030E+02 0.  0.
          5    1    3    3  501    0 -0.26615856071E+02  0.63560638884E+02  0.39994265250E+02  0.79812216249E+02  0.47000000000E+01 0. -1.
        -13    1    4    4    0    0  0.21092678265E+00 -0.49714656176E+01 -0.93534973435E+01  0.10594709673E+02  0.00000000000E+00 0.  1.
         14    1    4    4    0    0  0.14204962614E+02  0.25596069410E+03 -0.98197885874E+02  0.27451863813E+03  0.00000000000E+00 0. -1.
         -5    1    5    5    0  502 -0.48220672970E+02 -0.11421099510E+03  0.41738262334E+03  0.43543050992E+03  0.47000000000E+01 0.  1.
         13    1    6    6    0    0  0.17851704930E+02 -0.16935859049E+03  0.33552306676E+03  0.37626685194E+03  0.00000000000E+00 0. -1.
        -14    1    6    6    0    0  0.42568934715E+02 -0.30980281775E+02  0.90336000562E+02  0.10455852457E+03  0.00000000000E+00 0.  1.
</event>
<event>
12    1  0.8449700E-002  0.2364185E+03  0.7818608E-02  0.1122278E+00
         21   -1    0    0  503  502  0.00000000000E+00  0.00000000000E+00  0.18269606371E+03  0.18269606371E+03  0.00000000000E+00 0.  1.
         21   -1    0    0  501  503 -0.00000000000E+00 -0.00000000000E+00 -0.50637723630E+03  0.50637723630E+03  0.00000000000E+00 0.  1.
          6    2    1    2  501    0  0.13948925230E+03 -0.83396237200E+02 -0.37901197803E+03  0.44670326523E+03  0.17170190385E+03 0.  0.
         24    2    3    3    0    0  0.85760201591E+02 -0.12309909378E+03 -0.27785831734E+03  0.32538846488E+03  0.78512479884E+02 0.  0.
         -6    2    1    2    0  502 -0.13948925230E+03  0.83396237200E+02  0.55330805445E+02  0.24237003479E+03  0.17108346455E+03 0.  0.
        -24    2    5    5    0    0 -0.14901788930E+03  0.84881122488E+02  0.86482092859E+02  0.20942322136E+03  0.83473330912E+02 0.  0.
          5    1    3    3  501    0  0.53729050713E+02  0.39702856580E+02 -0.10115366070E+03  0.12131480035E+03  0.47000000000E+01 0. -1.
        -11    1    4    4    0    0  0.92212086473E+02 -0.94866954481E+02 -0.18035668820E+03  0.22367687168E+03  0.00000000000E+00 0.  1.
         12    1    4    4    0    0 -0.64518848818E+01 -0.28232139300E+02 -0.97501629135E+02  0.10171159320E+03  0.00000000000E+00 0. -1.
         -5    1    5    5    0  502  0.95286369952E+01 -0.14848852874E+01 -0.31151287415E+02  0.32946813425E+02  0.47000000000E+01 0.  1.
         13    1    6    6    0    0  0.33972536313E+01 -0.98630016943E+01  0.96316001225E+01  0.14198163810E+02  0.00000000000E+00 0. -1.
        -14    1    6    6    0    0 -0.15241514293E+03  0.94744124182E+02  0.76850492737E+02  0.19522505755E+03  0.00000000000E+00 0.  1.
</event>
<event>
12    1  0.8449700E-002  0.2221881E+03  0.7818608E-02  0.1132646E+00
         21   -1    0    0  503  502  0.00000000000E+00  0.00000000000E+00  0.12614357184E+04  0.12614357184E+04  0.00000000000E+00 0. -1.
         21   -1    0    0  501  503 -0.00000000000E+00 -0.00000000000E+00 -0.70084285283E+02  0.70084285283E+02  0.00000000000E+00 0. -1.
          6    2    1    2  501    0  0.49201542071E+01 -0.13690932579E+03  0.15221550524E+03  0.26932712396E+03  0.17492617945E+03 0.  0.
         24    2    3    3    0    0  0.54602310590E+02 -0.40854929970E+02  0.11313798326E+03  0.15424495182E+03  0.79628916118E+02 0.  0.
         -6    2    1    2    0  502 -0.49201542071E+01  0.13690932579E+03  0.10391359279E+04  0.10621928797E+04  0.17228425850E+03 0.  0.
        -24    2    5    5    0    0 -0.67578927758E+02  0.99322647384E+02  0.79321950767E+03  0.80560789181E+03  0.73314311247E+02 0.  0.
          5    1    3    3  501    0 -0.49682156383E+02 -0.96054395819E+02  0.39077521977E+02  0.11508217213E+03  0.47000000000E+01 0. -1.
        -13    1    4    4    0    0  0.34749590871E+02 -0.63869509830E+02  0.66241914975E+02  0.98360762762E+02  0.00000000000E+00 0.  1.
         14    1    4    4    0    0  0.19852719719E+02  0.23014579860E+02  0.46896068284E+02  0.55884189060E+02  0.00000000000E+00 0. -1.
         -5    1    5    5    0  502  0.62658773551E+02  0.37586678405E+02  0.24591642018E+03  0.25658498789E+03  0.47000000000E+01 0.  1.
         11    1    6    6    0    0 -0.16982201675E+02  0.41590552352E+02  0.51612250031E+03  0.51807393733E+03  0.00000000000E+00 0. -1.
        -12    1    6    6    0    0 -0.50596726084E+02  0.57732095032E+02  0.27709700736E+03  0.28753395448E+03  0.00000000000E+00 0.  1.
</event>
<event>
12    1  0.8449700E-002  0.2183183E+03  0.7818608E-02  0.1135254E+00
         21   -1    0    0  503  502  0.00000000000E+00  0.00000000000E+00  0.14584294101E+03  0.14584294101E+03  0.00000000000E+00 0. -1.
         21   -1    0    0  501  503 -0.00000000000E+00 -0.00000000000E+00 -0.49266076033E+03  0.49266076033E+03  0.00000000000E+00 0.  1.
          6    2    1    2  501    0 -0.11368081021E+03 -0.71957822086E+02 -0.35928502441E+03  0.42041478610E+03  0.17193489709E+03 0.  0.
         24    2    3    3    0    0 -0.64047963010E+02 -0.67846117842E+02 -0.34696663391E+03  0.36889626149E+03  0.83626367984E+02 0.  0.
         -6    2    1    2    0  502  0.11368081021E+03  0.71957822086E+02  0.12467205082E+02  0.21808891524E+03  0.17119021285E+03 0.  0.
        -24    2    5    5    0    0  0.74591141567E+02  0.11508224993E+03  0.13383954041E+02  0.15968815411E+03  0.80705722759E+02 0.  0.
          5    1    3    3  501    0 -0.49632847204E+02 -0.41117042440E+01 -0.12318390497E+02  0.51518524608E+02  0.47000000000E+01 0. -1.
        -13    1    4    4    0    0 -0.83432631504E+01  0.19756488890E+02 -0.56197766597E+02  0.60150792711E+02  0.00000000000E+00 0.  1.
         14    1    4    4    0    0 -0.55704699860E+02 -0.87602606733E+02 -0.29076886731E+03  0.30874546878E+03  0.00000000000E+00 0. -1.
         -5    1    5    5    0  502  0.39089668648E+02 -0.43124427847E+02 -0.91674895846E+00  0.58400761132E+02  0.47000000000E+01 0.  1.
         11    1    6    6    0    0  0.86662397242E+02  0.82672866604E+02 -0.62221810455E+01  0.11993285415E+03  0.00000000000E+00 0. -1.
        -12    1    6    6    0    0 -0.12071255675E+02  0.32409383329E+02  0.19606135086E+02  0.39755299953E+02  0.00000000000E+00 0.  1.
</event>
<event>
12    1  0.8449700E-002  0.1808041E+03  0.7818608E-02  0.1172029E+00
         21   -1    0    0  501  502  0.00000000000E+00  0.00000000000E+00  0.89966735766E+02  0.89966735766E+02  0.00000000000E+00 0. -1.
         21   -1    0    0  502  503 -0.00000000000E+00 -0.00000000000E+00 -0.11822824895E+04  0.11822824895E+04  0.00000000000E+00 0. -1.
         -6    2    1    2    0  503  0.46012260168E+02 -0.19319471675E+02 -0.10789717234E+04  0.10909533751E+04  0.15332617719E+03 0.  0.
        -24    2    3    3    0    0  0.52069512260E+02 -0.63461039880E+02 -0.64714527785E+03  0.65680900113E+03  0.76567066262E+02 0.  0.
          6    2    1    2  501    0 -0.46012260168E+02  0.19319471675E+02 -0.13344030393E+02  0.18129585025E+03  0.17378075872E+03 0.  0.
         24    2    5    5    0    0 -0.94036804889E+02  0.77105367935E+01  0.14804869425E+02  0.12423820549E+03  0.79458004593E+02 0.  0.
          5    1    5    5  501    0  0.48024544720E+02  0.11608934882E+02 -0.28148899818E+02  0.57057644761E+02  0.47000000000E+01 0. -1.
        -11    1    6    6    0    0 -0.20639337216E+02 -0.33045787990E+02  0.95784524692E+01  0.40121728481E+02  0.00000000000E+00 0.  1.
         12    1    6    6    0    0 -0.73397467673E+02  0.40756324783E+02  0.52264169559E+01  0.84116477011E+02  0.00000000000E+00 0. -1.
         -5    1    3    3    0  503 -0.60572520922E+01  0.44141568205E+02 -0.43182644554E+03  0.43414437393E+03  0.47000000000E+01 0.  1.
         11    1    4    4    0    0  0.61145812766E+02 -0.37530359130E+02 -0.57752118817E+03  0.58196053222E+03  0.00000000000E+00 0. -1.
        -12    1    4    4    0    0 -0.90763005058E+01 -0.25930680749E+02 -0.69624089681E+02  0.74848468915E+02  0.00000000000E+00 0.  1.
</event>
<event>
12    1  0.8449700E-002  0.2171899E+03  0.7818608E-02  0.1136170E+00
         21   -1    0    0  503  502  0.00000000000E+00  0.00000000000E+00  0.17768493534E+03  0.17768493534E+03  0.00000000000E+00 0. -1.
         21   -1    0    0  501  503 -0.00000000000E+00 -0.00000000000E+00 -0.50345681410E+03  0.50345681410E+03  0.00000000000E+00 0. -1.
          6    2    1    2  501    0 -0.13064230373E+03 -0.20827460246E+02 -0.39740656876E+03  0.45244327017E+03  0.17108985127E+03 0.  0.
         24    2    3    3    0    0 -0.14741235191E+03 -0.22788202339E+02 -0.39998266640E+03  0.43472871952E+03  0.82177992796E+02 0.  0.
         -6    2    1    2    0  502  0.13064230373E+03  0.20827460246E+02  0.71634690008E+02  0.22869847927E+03  0.17225060518E+03 0.  0.
        -24    2    5    5    0    0  0.14725642422E+02  0.51726495498E+02  0.19158225360E+02  0.97674465862E+02  0.79251427754E+02 0.  0.
          5    1    3    3  501    0  0.16770048185E+02  0.19607420934E+01  0.25760976326E+01  0.17714550649E+02  0.47000000000E+01 0. -1.
        -13    1    4    4    0    0 -0.76649536291E+01  0.20606786036E+02 -0.33055373848E+02  0.39699482177E+02  0.00000000000E+00 0.  1.
         14    1    4    4    0    0 -0.13974739828E+03 -0.43394988375E+02 -0.36692729255E+03  0.39502923735E+03  0.00000000000E+00 0. -1.
         -5    1    5    5    0  502  0.11591666131E+03 -0.30899035253E+02  0.52476464648E+02  0.13102401341E+03  0.47000000000E+01 0.  1.
         13    1    6    6    0    0  0.34617639664E+02  0.20377467866E+02 -0.18997982817E+02  0.44435858534E+02  0.00000000000E+00 0. -1.
        -14    1    6    6    0    0 -0.19891997242E+02  0.31349027632E+02  0.38156208176E+02  0.53238607327E+02  0.00000000000E+00 0.  1.
</event>
<event>
12    1  0.8449700E-002  0.2045798E+03  0.7818608E-02  0.1146064E+00
         21   -1    0    0  501  502  0.00000000000E+00  0.00000000000E+00  0.54489811591E+03  0.54489811591E+03  0.00000000000E+00 0. -1.
         21   -1    0    0  502  503 -0.00000000000E+00 -0.00000000000E+00 -0.10738863743E+03  0.10738863743E+03  0.00000000000E+00 0.  1.
         -6    2    1    2    0  503 -0.97771963874E+02 -0.50562927341E+02  0.43778312291E+02  0.20857837425E+03  0.17167536526E+03 0.  0.
        -24    2    3    3    0    0 -0.96738563482E+02  0.23526105569E+02  0.39185366266E+02  0.13419129293E+03  0.80993721122E+02 0.  0.
          6    2    1    2  501    0  0.97771963874E+02  0.50562927341E+02  0.39373116618E+03  0.44370837909E+03  0.17244398485E+03 0.  0.
         24    2    5    5    0    0  0.47567425878E+02 -0.13836770898E+02  0.31793301984E+03  0.33219485633E+03  0.82570583355E+02 0.  0.
          5    1    5    5  501    0  0.50204537996E+02  0.64399698240E+02  0.75798146341E+02  0.11151352276E+03  0.47000000000E+01 0. -1.
        -11    1    6    6    0    0  0.18694513040E+02 -0.10272765411E+02  0.11213788969E+02  0.24099037119E+02  0.00000000000E+00 0.  1.
         12    1    6    6    0    0  0.28872912838E+02 -0.35640054869E+01  0.30671923087E+03  0.30809581922E+03  0.00000000000E+00 0. -1.
         -5    1    3    3    0  503 -0.10334003923E+01 -0.74089032910E+02  0.45929460246E+01  0.74387081319E+02  0.47000000000E+01 0.  1.
         13    1    4    4    0    0 -0.14325011917E+02  0.15772697192E+02  0.46441949872E+02  0.51096366319E+02  0.00000000000E+00 0. -1.
        -14    1    4    4    0    0 -0.82413551564E+02  0.77534083766E+01 -0.72565836054E+01  0.83094926611E+02  0.00000000000E+00 0.  1.
</event>
<event>
12    1  0.8449700E-002  0.2436532E+03  0.7818608E-02  0.1117697E+00
         21   -1    0    0  501  502  0.00000000000E+00  0.00000000000E+00  0.31796333639E+03  0.31796333639E+03  0.00000000000E+00 0.  1.
         21   -1    0    0  502  503 -0.00000000000E+00 -0.00000000000E+00 -0.24972864927E+03  0.24972864927E+03  0.00000000000E+00 0.  1.
         -6    2    1    2    0  503  0.92121521855E+02 -0.14444150171E+03 -0.11001719092E+03  0.26733993708E+03  0.17325454526E+03 0.  0.
        -24    2    3    3    0    0 -0.25890151585E+01 -0.19564675908E+02 -0.14886743491E+02  0.83938193707E+02  0.80215495312E+02 0.  0.
          6    2    1    2  501    0 -0.92121521855E+02  0.14444150171E+03  0.17825187805E+03  0.30035204858E+03  0.17055174830E+03 0.  0.
         24    2    5    5    0    0 -0.10940513739E+03  0.78830704061E+02  0.17133238915E+03  0.23198927025E+03  0.79249416067E+02 0.  0.
          5    1    5    5  501    0  0.17283615534E+02  0.65610797650E+02  0.69194888994E+01  0.68362778329E+02  0.47000000000E+01 0. -1.
        -11    1    6    6    0    0 -0.36873130020E+02  0.71902446048E+02  0.11153880770E+03  0.13773342038E+03  0.00000000000E+00 0.  1.
         12    1    6    6    0    0 -0.72532007369E+02  0.69282580130E+01  0.59793581454E+02  0.94255849872E+02  0.00000000000E+00 0. -1.
         -5    1    3    3    0  503  0.94710537014E+02 -0.12487682580E+03 -0.95130447434E+02  0.18340174338E+03  0.47000000000E+01 0.  1.
         13    1    4    4    0    0  0.18153870222E+02  0.26463032016E+02 -0.46771691773E+01  0.32430402080E+02  0.00000000000E+00 0. -1.
        -14    1    4    4    0    0 -0.20742885381E+02 -0.46027707924E+02 -0.10209574314E+02  0.51507791627E+02  0.00000000000E+00 0.  1.
</event>
<event>
12    1  0.8449700E-002  0.1843700E+03  0.7818608E-02  0.1163800E+00
         21   -1    0    0  503  502  0.00000000000E+00  0.00000000000E+00  0.50365792956E+03  0.50365792956E+03  0.00000000000E+00 0.  1.
         21   -1    0    0  501  503 -0.00000000000E+00 -0.00000000000E+00 -0.39113572697E+03  0.39113572697E+03  0.00000000000E+00 0.  1.
          6    2    1    2  501    0  0.50281814769E+02 -0.35877147317E+02 -0.35088456982E+03  0.39605711209E+03  0.17299082085E+03 0.  0.
         24    2    3    3    0    0  0.62049020438E+02 -0.83436717193E+02 -0.21647411671E+03  0.25291857876E+03  0.79341020692E+02 0.  0.
         -6    2    1    2    0  502 -0.50281814769E+02  0.35877147317E+02  0.46340677241E+03  0.49873654444E+03  0.17371492004E+03 0.  0.
        -24    2    5    5    0    0 -0.43068373903E+02 -0.44462918422E+02  0.29840531857E+03  0.31501357456E+03  0.79724413193E+02 0.  0.
          5    1    3    3  501    0 -0.11767205669E+02  0.47559569876E+02 -0.13441045312E+03  0.14313853333E+03  0.47000000000E+01 0. -1.
        -13    1    4    4    0    0  0.51745406081E+02 -0.21112225456E+02 -0.15502441208E+03  0.16479041676E+03  0.00000000000E+00 0.  1.
         14    1    4    4    0    0  0.10303614357E+02 -0.62324491737E+02 -0.61449704625E+02  0.88128162001E+02  0.00000000000E+00 0. -1.
         -5    1    5    5    0  502 -0.72134408655E+01  0.80340065739E+02  0.16500145384E+03  0.18372296988E+03  0.47000000000E+01 0.  1.
         11    1    6    6    0    0  0.56775166122E+01 -0.26391327150E+02  0.25278364322E+02  0.36982861523E+02  0.00000000000E+00 0. -1.
        -12    1    6    6    0    0 -0.48745890516E+02 -0.18071591272E+02  0.27312695425E+03  0.27803071304E+03  0.00000000000E+00 0.  1.
</event>
<event>
12    1  0.8449700E-002  0.3101133E+03  0.7818608E-02  0.1080339E+00
         21   -1    0    0  503  502  0.00000000000E+00  0.00000000000E+00  0.59320213629E+03  0.59320213629E+03  0.00000000000E+00 0.  1.
         21   -1    0    0  501  503 -0.00000000000E+00 -0.00000000000E+00 -0.17198112381E+03  0.17198112381E+03  0.00000000000E+00 0.  1.
          6    2    1    2  501    0  0.21303247179E+03 -0.14493078572E+03  0.30329657304E+03  0.43377305132E+03  0.17257601846E+03 0.  0.
         24    2    3    3    0    0  0.72861723179E+02 -0.22443805151E+02  0.52540544093E+02  0.12144057586E+03  0.78579574936E+02 0.  0.
         -6    2    1    2    0  502 -0.21303247179E+03  0.14493078572E+03  0.11792443944E+03  0.33141020878E+03  0.17186851481E+03 0.  0.
        -24    2    5    5    0    0 -0.89089385504E+02  0.50674074971E+02 -0.92296450422E+01  0.13032200088E+03  0.79961597543E+02 0.  0.
          5    1    3    3  501    0  0.14017074861E+03 -0.12248698057E+03  0.25075602895E+03  0.31233247546E+03  0.47000000000E+01 0. -1.
        -13    1    4    4    0    0  0.80460745703E+02 -0.18069751783E+02  0.16179129051E+02  0.84036966541E+02  0.00000000000E+00 0.  1.
         14    1    4    4    0    0 -0.75990225238E+01 -0.43740533675E+01  0.36361415042E+02  0.37403609318E+02  0.00000000000E+00 0. -1.
         -5    1    5    5    0  502 -0.12394308628E+03  0.94256710749E+02  0.12715408448E+03  0.20108820791E+03  0.47000000000E+01 0.  1.
         13    1    6    6    0    0 -0.61317102196E+02 -0.85552657322E+01  0.86324486857E+01  0.62509989312E+02  0.00000000000E+00 0. -1.
        -14    1    6    6    0    0 -0.27772283308E+02  0.59229340703E+02 -0.17862093728E+02  0.67812011566E+02  0.00000000000E+00 0.  1.
</event>
<event>
12    1  0.8449700E-002  0.2387444E+03  0.7818608E-02  0.1120756E+00
         21   -1    0    0  503  502  0.00000000000E+00  0.00000000000E+00  0.26353894160E+03  0.26353894160E+03  0.00000000000E+00 0.  1.
         21   -1    0    0  501  503 -0.00000000000E+00 -0.00000000000E+00 -0.14692229140E+04  0.14692229140E+04  0.00000000000E+00 0.  1.
          6    2    1    2  501    0  0.16421947026E+03 -0.19913952068E+02 -0.14029924074E+04  0.14230369895E+04  0.17111977800E+03 0.  0.
         24    2    3    3    0    0  0.17137895698E+03 -0.32028211301E+02 -0.92600830348E+03  0.94582221721E+03  0.81803026988E+02 0.  0.
         -6    2    1    2    0  502 -0.16421947026E+03  0.19913952068E+02  0.19730843493E+03  0.30972486615E+03  0.17214608425E+03 0.  0.
        -24    2    5    5    0    0 -0.12105738465E+03  0.29325553901E+02  0.51698371739E+02  0.15748845663E+03  0.81332735360E+02 0.  0.
          5    1    3    3  501    0 -0.71594867209E+01  0.12114259233E+02 -0.47698410388E+03  0.47721477228E+03  0.47000000000E+01 0. -1.
        -13    1    4    4    0    0  0.13858923421E+03 -0.27762184709E+02 -0.86460360254E+03  0.87608053526E+03  0.00000000000E+00 0.  1.
         14    1    4    4    0    0  0.32789722776E+02 -0.42660265921E+01 -0.61404700945E+02  0.69741681946E+02  0.00000000000E+00 0. -1.
         -5    1    5    5    0  502 -0.43162085610E+02 -0.94116018325E+01  0.14561006319E+03  0.15223640952E+03  0.47000000000E+01 0.  1.
         13    1    6    6    0    0 -0.49897176811E+02 -0.17149952133E+02  0.49682283199E+02  0.72471914392E+02  0.00000000000E+00 0. -1.
        -14    1    6    6    0    0 -0.71160207842E+02  0.46475506034E+02  0.20160885401E+01  0.85016542239E+02  0.00000000000E+00 0.  1.
</event>
<event>
12    1  0.8449700E-002  0.1860342E+03  0.7818608E-02  0.1162189E+00
         21   -1    0    0  503  502  0.00000000000E+00  0.00000000000E+00  0.39224993341E+03  0.39224993341E+03  0.00000000000E+00 0. -1.
         21   -1    0    0  501  503 -0.00000000000E+00 -0.00000000000E+00 -0.12233677908E+03  0.12233677908E+03  0.00000000000E+00 0. -1.
          6    2    1    2  501    0 -0.11928100644E+02 -0.70160720085E+02  0.27133215169E+03  0.32898308772E+03  0.17188347575E+03 0.  0.
         24    2    3    3    0    0  0.39949839242E+01  0.27452285737E+02  0.15079532687E+03  0.17299251215E+03  0.80109866844E+02 0.  0.
         -6    2    1    2    0  502  0.11928100644E+02  0.70160720085E+02 -0.14189973701E+01  0.18560362477E+03  0.17141145162E+03 0.  0.
        -24    2    5    5    0    0 -0.22799714157E+02 -0.24308172537E+02 -0.14082154668E+02  0.84051478824E+02  0.75865867125E+02 0.  0.
          5    1    3    3  501    0 -0.15923084568E+02 -0.97613005822E+02  0.12053682482E+03  0.15599057557E+03  0.47000000000E+01 0. -1.
        -11    1    4    4    0    0 -0.26187089278E+00  0.18668240984E+02  0.15909079028E+03  0.16018255632E+03  0.00000000000E+00 0.  1.
         12    1    4    4    0    0  0.42568548169E+01  0.87840447530E+01 -0.82954634099E+01  0.12809955829E+02  0.00000000000E+00 0. -1.
         -5    1    5    5    0  502  0.34727814802E+02  0.94468892622E+02  0.12663157298E+02  0.10155214595E+03  0.47000000000E+01 0.  1.
         13    1    6    6    0    0  0.68508721568E+00  0.20173687509E+02 -0.25449049916E+02  0.32482320635E+02  0.00000000000E+00 0. -1.
        -14    1    6    6    0    0 -0.23484801373E+02 -0.44481860046E+02  0.11366895248E+02  0.51569158188E+02  0.00000000000E+00 0.  1.
</event>
<event>
12    1  0.8449700E-002  0.1752799E+03  0.7818608E-02  0.1172725E+00
         21   -1    0    0  503  502  0.00000000000E+00  0.00000000000E+00  0.79446540169E+03  0.79446540169E+03  0.00000000000E+00 0.  1.
         21   -1    0    0  501  503 -0.00000000000E+00 -0.00000000000E+00 -0.80796955047E+03  0.80796955047E+03  0.00000000000E+00 0.  1.
          6    2    1    2  501    0 -0.32396170524E+02  0.46414887128E+01 -0.78868115433E+03  0.80768817669E+03  0.17108820028E+03 0.  0.
         24    2    3    3    0    0 -0.39135456355E+02  0.66483627649E+02 -0.38732249868E+03  0.40150997861E+03  0.72387072409E+02 0.  0.
         -6    2    1    2    0  502  0.32396170524E+02 -0.46414887128E+01  0.77517700555E+03  0.79474677547E+03  0.17219753743E+03 0.  0.
        -24    2    5    5    0    0  0.59243293110E+02 -0.55981117686E+02  0.44498047062E+03  0.45947320482E+03  0.80401202714E+02 0.  0.
          5    1    3    3  501    0  0.67392858305E+01 -0.61842138937E+02 -0.40135865566E+03  0.40617819808E+03  0.47000000000E+01 0. -1.
        -13    1    4    4    0    0 -0.41406131378E+02  0.33094477418E+02 -0.33655923801E+03  0.34070784088E+03  0.00000000000E+00 0.  1.
         14    1    4    4    0    0  0.22706750231E+01  0.33389150232E+02 -0.50763260670E+02  0.60802137727E+02  0.00000000000E+00 0. -1.
         -5    1    5    5    0  502 -0.26847122586E+02  0.51339628973E+02  0.33019653493E+03  0.33527357065E+03  0.47000000000E+01 0.  1.
         11    1    6    6    0    0  0.18699373703E+02 -0.68962591481E+02  0.25835166103E+03  0.26805052949E+03  0.00000000000E+00 0. -1.
        -12    1    6    6    0    0  0.40543919407E+02  0.12981473796E+02  0.18662880959E+03  0.19142267534E+03  0.00000000000E+00 0.  1.
</event>
<event>
12    1  0.8449700E-002  0.2182321E+03  0.7818608E-02  0.1135403E+00
         21   -1    0    0  503  502  0.00000000000E+00  0.00000000000E+00  0.23702510935E+03  0.23702510935E+03  0.00000000000E+00 0.  1.
         21   -1    0    0  501  503 -0.00000000000E+00 -0.00000000000E+00 -0.31642029840E+03  0.31642029840E+03  0.00000000000E+00 0. -1.
          6    2    1    2  501    0 -0.37545950588E+02  0.12901132634E+03 -0.20762520218E+03  0.30121999281E+03  0.17196406240E+03 0.  0.
         24    2    3    3    0    0 -0.88124116013E+02  0.85341432777E+02 -0.16943400206E+03  0.22411053691E+03  0.80427804470E+02 0.  0.
         -6    2    1    2    0  502  0.37545950588E+02 -0.12901132634E+03  0.12823001313E+03  0.25222541495E+03  0.17064906372E+03 0.  0.
        -24    2    5    5    0    0  0.20528366490E+02 -0.58809567816E+02 -0.29868918566E+01  0.10236597673E+03  0.81178153289E+02 0.  0.
          5    1    3    3  501    0  0.50578165425E+02  0.43669893563E+02 -0.38191200123E+02  0.77109455895E+02  0.47000000000E+01 0. -1.
        -13    1    4    4    0    0 -0.23057247772E+02 -0.14169579346E+02 -0.23236731897E+02  0.35670146662E+02  0.00000000000E+00 0.  1.
         14    1    4    4    0    0 -0.65066868241E+02  0.99511012123E+02 -0.14619727016E+03  0.18844039025E+03  0.00000000000E+00 0. -1.
         -5    1    5    5    0  502  0.17017584098E+02 -0.70201758524E+02  0.13121690499E+03  0.14985943822E+03  0.47000000000E+01 0.  1.
         11    1    6    6    0    0 -0.25433102690E+02 -0.27504059541E+02 -0.22182588253E+02  0.43535999188E+02  0.00000000000E+00 0. -1.
        -12    1    6    6    0    0  0.45961469180E+02 -0.31305508275E+02  0.19195696396E+02  0.58829977543E+02  0.00000000000E+00 0.  1.
</event>
<event>
12    1  0.8449700E-002  0.1746086E+03  0.7818608E-02  0.1175367E+00
         21   -1    0    0  501  502  0.00000000000E+00  0.00000000000E+00  0.24875604878E+03  0.24875604878E+03  0.00000000000E+00 0. -1.
         21   -1    0    0  502  503 -0.00000000000E+00 -0.00000000000E+00 -0.15742914521E+03  0.15742914521E+03  0.00000000000E+00 0. -1.
         -6    2    1    2    0  503 -0.17765087288E+02  0.21580847674E+02 -0.56933918118E+02  0.18365627654E+03  0.17235668123E+03 0.  0.
        -24    2    3    3    0    0  0.21166075453E+01 -0.48202439037E+02 -0.61047624114E+02  0.11082770061E+03  0.78917752482E+02 0.  0.
          6    2    1    2  501    0  0.17765087288E+02 -0.21580847674E+02  0.14826082169E+03  0.22252891746E+03  0.16357419278E+03 0.  0.
         24    2    5    5    0    0  0.15662206091E+02  0.47707272906E+02  0.93473987099E+02  0.13404754649E+03  0.81915016136E+02 0.  0.
          5    1    5    5  501    0  0.21028811969E+01 -0.69288120580E+02  0.54786834595E+02  0.88481370965E+02  0.47000000000E+01 0. -1.
        -13    1    6    6    0    0 -0.39463948591E+01 -0.21858329201E+02  0.33157337025E+02  0.39909517492E+02  0.00000000000E+00 0.  1.
         14    1    6    6    0    0  0.19608600950E+02  0.69565602107E+02  0.60316650073E+02  0.94138028999E+02  0.00000000000E+00 0. -1.
         -5    1    3    3    0  503 -0.19881694833E+02  0.69783286712E+02  0.41137059958E+01  0.72828575921E+02  0.47000000000E+01 0.  1.
         13    1    4    4    0    0 -0.24773823519E+02 -0.18144376199E+02 -0.63382340806E+02  0.70429268387E+02  0.00000000000E+00 0. -1.
        -14    1    4    4    0    0  0.26890431065E+02 -0.30058062838E+02  0.23347166922E+01  0.40398432228E+02  0.00000000000E+00 0.  1.
</event>
<event>
12    1  0.8449700E-002  0.2598935E+03  0.7818608E-02  0.1107250E+00
         21   -1    0    0  501  502  0.00000000000E+00  0.00000000000E+00  0.10225988954E+04  0.10225988954E+04  0.00000000000E+00 0.  1.
         21   -1    0    0  502  503 -0.00000000000E+00 -0.00000000000E+00 -0.68848756715E+02  0.68848756715E+02  0.00000000000E+00 0.  1.
         -6    2    1    2    0  503  0.73263793641E+02  0.18016300307E+03  0.36522065504E+03  0.44808805299E+03  0.17196070840E+03 0.  0.
        -24    2    3    3    0    0 -0.17062929121E+01  0.68495401348E+02  0.78306300506E+02  0.13117780704E+03  0.79882469412E+02 0.  0.
          6    2    1    2  501    0 -0.73263793641E+02 -0.18016300307E+03  0.58852948369E+03  0.64335959917E+03  0.17239005058E+03 0.  0.
         24    2    5    5    0    0 -0.62081022760E+02 -0.10449909295E+03  0.52253506705E+03  0.54222881905E+03  0.78708843862E+02 0.  0.
          5    1    5    5  501    0 -0.11182770881E+02 -0.75663910120E+02  0.65994416643E+02  0.10113078012E+03  0.47000000000E+01 0. -1.
        -11    1    6    6    0    0  0.14937792256E+02 -0.28793530318E+02  0.18546906437E+03  0.18828430329E+03  0.00000000000E+00 0.  1.
         12    1    6    6    0    0 -0.77018815016E+02 -0.75705562628E+02  0.33706600268E+03  0.35394451577E+03  0.00000000000E+00 0. -1.
         -5    1    3    3    0  503  0.74970086553E+02  0.11166760172E+03  0.28691435454E+03  0.31691024595E+03  0.47000000000E+01 0.  1.
         13    1    4    4    0    0 -0.36695870971E+02  0.48790953671E+02  0.64256974612E+02  0.88634659658E+02  0.00000000000E+00 0. -1.
        -14    1    4    4    0    0  0.34989578059E+02  0.19704447676E+02  0.14049325894E+02  0.42543147381E+02  0.00000000000E+00 0.  1.
</event>
<event>
12    1  0.8449700E-002  0.2301884E+03  0.7818608E-02  0.1126675E+00
         21   -1    0    0  503  502  0.00000000000E+00  0.00000000000E+00  0.24710245378E+03  0.24710245378E+03  0.00000000000E+00 0.  1.
         21   -1    0    0  501  503 -0.00000000000E+00 -0.00000000000E+00 -0.23063664324E+03  0.23063664324E+03  0.00000000000E+00 0. -1.
          6    2    1    2  501    0  0.13481623205E+03 -0.71753912563E+02 -0.56805415435E+02  0.23617049658E+03  0.17095498776E+03 0.  0.
         24    2    3    3    0    0  0.14267916520E+03 -0.57591728264E+02  0.48053455549E+01  0.17229273009E+03  0.77379210072E+02 0.  0.
         -6    2    1    2    0  502 -0.13481623205E+03  0.71753912563E+02  0.73271225969E+02  0.24156860044E+03  0.17222855678E+03 0.  0.
        -24    2    5    5    0    0 -0.18224368869E+02 -0.10339149119E+01 -0.29792613755E+01  0.84317345408E+02  0.82263856812E+02 0.  0.
          5    1    3    3  501    0 -0.78629331421E+01 -0.14162184299E+02 -0.61610760990E+02  0.63877766488E+02  0.47000000000E+01 0. -1.
        -11    1    4    4    0    0  0.30057259273E+02  0.15781027646E+02  0.15769064750E+02  0.37431845689E+02  0.00000000000E+00 0.  1.
         12    1    4    4    0    0  0.11262190592E+03 -0.73372755911E+02 -0.10963719195E+02  0.13486088440E+03  0.00000000000E+00 0. -1.
         -5    1    5    5    0  502 -0.11659186319E+03  0.72787827475E+02  0.76250487345E+02  0.15725125503E+03  0.47000000000E+01 0.  1.
         11    1    6    6    0    0 -0.23472199652E+02  0.38110111177E+02 -0.22911246964E+01  0.44817117074E+02  0.00000000000E+00 0. -1.
        -12    1    6    6    0    0  0.52478307826E+01 -0.39144026089E+02 -0.68813667913E+00  0.39500228335E+02  0.00000000000E+00 0.  1.
</event>
<event>
12    1  0.8449700E-002  0.2543454E+03  0.7818608E-02  0.1110617E+00
         21   -1    0    0  503  502  0.00000000000E+00  0.00000000000E+00  0.45748241580E+02  0.45748241580E+02  0.00000000000E+00 0. -1.
         21   -1    0    0  501  503 -0.00000000000E+00 -0.00000000000E+00 -0.23267403383E+04  0.23267403383E+04  0.00000000000E+00 0.  1.
          6    2    1    2  501    0  0.14705315666E+03 -0.11572801220E+03 -0.18840848900E+04  0.19011752806E+04  0.17226134558E+03 0.  0.
         24    2    3    3    0    0  0.82014561409E+02 -0.59403852067E+01 -0.61519933433E+03  0.62588081057E+03  0.80590890463E+02 0.  0.
         -6    2    1    2    0  502 -0.14705315666E+03  0.11572801220E+03 -0.39690720672E+03  0.47131329927E+03  0.17199794077E+03 0.  0.
        -24    2    5    5    0    0 -0.15583216776E+03  0.43003148584E+02 -0.26235027057E+03  0.31803696094E+03  0.78656905371E+02 0.  0.
          5    1    3    3  501    0  0.65038595255E+02 -0.10978762700E+03 -0.12688855557E+04  0.12752944701E+04  0.47000000000E+01 0. -1.
        -13    1    4    4    0    0 -0.60758508540E+01 -0.24272201090E+02 -0.12160474422E+03  0.12415220307E+03  0.00000000000E+00 0.  1.
         14    1    4    4    0    0  0.88090412263E+02  0.18331815883E+02 -0.49359459011E+03  0.50172860751E+03  0.00000000000E+00 0. -1.
         -5    1    5    5    0  502  0.87790110930E+01  0.72724863620E+02 -0.13455693615E+03  0.15327633833E+03  0.47000000000E+01 0.  1.
         13    1    6    6    0    0 -0.11551902479E+03  0.65592717163E+02 -0.18163718302E+03  0.22503136645E+03  0.00000000000E+00 0. -1.
        -14    1    6    6    0    0 -0.40313142971E+02 -0.22589568579E+02 -0.80713087550E+02  0.93005594491E+02  0.00000000000E+00 0.  1.
</event>
<event>
12    1  0.8449700E-002  0.2690248E+03  0.7818608E-02  0.1102165E+00
         21   -1    0    0  501  502  0.00000000000E+00  0.00000000000E+00  0.14291327550E+03  0.14291327550E+03  0.00000000000E+00 0. -1.
         21   -1    0    0  502  503 -0.00000000000E+00 -0.00000000000E+00 -0.84828421842E+03  0.84828421842E+03  0.00000000000E+00 0. -1.
         -6    2    1    2    0  503  0.20400643396E+03 -0.59149082607E+01 -0.67012986857E+03  0.72211381980E+03  0.17527326310E+03 0.  0.
        -24    2    3    3    0    0  0.16211910884E+03  0.45527389345E+02 -0.58563526293E+03  0.61458574732E+03  0.79947676571E+02 0.  0.
          6    2    1    2  501    0 -0.20400643396E+03  0.59149082607E+01 -0.35241074354E+02  0.26908367413E+03  0.17178614357E+03 0.  0.
         24    2    5    5    0    0 -0.20469575600E+02  0.30189088399E+02 -0.30887947923E+02  0.83837745945E+02  0.68879007939E+02 0.  0.
          5    1    5    5  501    0 -0.18353685836E+03 -0.24274180138E+02 -0.43531264312E+01  0.18524592818E+03  0.47000000000E+01 0. -1.
        -11    1    6    6    0    0  0.22819287923E+00  0.47640861564E+02 -0.30862606800E+02  0.56764463012E+02  0.00000000000E+00 0.  1.
         12    1    6    6    0    0 -0.20697768479E+02 -0.17451773165E+02 -0.25341123261E-01  0.27073282933E+02  0.00000000000E+00 0. -1.
         -5    1    3    3    0  503  0.41887325125E+02 -0.51442297606E+02 -0.84494605638E+02  0.10752807248E+03  0.47000000000E+01 0.  1.
         11    1    4    4    0    0  0.15355519211E+03  0.15696271077E+02 -0.46147850255E+03  0.48660865001E+03  0.00000000000E+00 0. -1.
        -12    1    4    4    0    0  0.85639167215E+01  0.29831118268E+02 -0.12415676038E+03  0.12797709731E+03  0.00000000000E+00 0.  1.
</event>
<event>
12    1  0.8449700E-002  0.1988503E+03  0.7818608E-02  0.1150773E+00
         21   -1    0    0  503  502  0.00000000000E+00  0.00000000000E+00  0.10974766193E+04  0.10974766193E+04  0.00000000000E+00 0.  1.
         21   -1    0    0  501  503 -0.00000000000E+00 -0.00000000000E+00 -0.47738653924E+02  0.47738653924E+02  0.00000000000E+00 0.  1.
          6    2    1    2  501    0 -0.77315379658E+02  0.62573588504E+02  0.24094334986E+03  0.31240222801E+03  0.17218691099E+03 0.  0.
         24    2    3    3    0    0 -0.48398723926E+02  0.55147993274E+02  0.52684677101E+02  0.12173306346E+03  0.81605918275E+02 0.  0.
         -6    2    1    2    0  502  0.77315379658E+02 -0.62573588504E+02  0.80879461553E+03  0.83281304522E+03  0.17185958303E+03 0.  0.
        -24    2    5    5    0    0  0.64679898734E+02  0.21195337799E+02  0.30668531389E+03  0.32358546429E+03  0.77581823256E+02 0.  0.
          5    1    3    3  501    0 -0.28916655732E+02  0.74255952302E+01  0.18825867276E+03  0.19066916456E+03  0.47000000000E+01 0. -1.
        -13    1    4    4    0    0 -0.56609307431E+02  0.45716207893E+02  0.69604034277E+02  0.10069412565E+03  0.00000000000E+00 0.  1.
         14    1    4    4    0    0  0.82105835058E+01  0.94317853807E+01 -0.16919357176E+02  0.21038937811E+02  0.00000000000E+00 0. -1.
         -5    1    5    5    0  502  0.12635480924E+02 -0.83768926303E+02  0.50210930163E+03  0.50922758093E+03  0.47000000000E+01 0.  1.
         11    1    6    6    0    0  0.41735142504E+02  0.24918336658E+02  0.66998028213E+02  0.82773675804E+02  0.00000000000E+00 0. -1.
        -12    1    6    6    0    0  0.22944756230E+02 -0.37229988589E+01  0.23968728568E+03  0.24081178849E+03  0.00000000000E+00 0.  1.
</event>
<event>
12    1  0.8449700E-002  0.1841177E+03  0.7818608E-02  0.1164541E+00
         21   -1    0    0  503  502  0.00000000000E+00  0.00000000000E+00  0.97545477438E+03  0.97545477438E+03  0.00000000000E+00 0. -1.
         21   -1    0    0  501  503 -0.00000000000E+00 -0.00000000000E+00 -0.39558395465E+02  0.39558395465E+02  0.00000000000E+00 0. -1.
          6    2    1    2  501    0 -0.52488585285E+02 -0.33562790785E+02  0.28471248641E+03  0.33905830596E+03  0.17325652200E+03 0.  0.
         24    2    3    3    0    0 -0.48323482571E+02  0.44690981970E+02  0.19201956412E+03  0.21758786152E+03  0.78361480580E+02 0.  0.
         -6    2    1    2    0  502  0.52488585285E+02  0.33562790785E+02  0.65118389251E+03  0.67595486388E+03  0.17027332038E+03 0.  0.
        -24    2    5    5    0    0  0.16162350643E+02  0.45996256105E+02  0.16876494850E+03  0.19198759854E+03  0.77464527349E+02 0.  0.
          5    1    3    3  501    0 -0.41651027144E+01 -0.78253772756E+02  0.92692922283E+02  0.12147044444E+03  0.47000000000E+01 0. -1.
        -11    1    4    4    0    0  0.41007188758E+01 -0.47740276054E+01  0.10234075467E+03  0.10253407873E+03  0.00000000000E+00 0.  1.
         12    1    4    4    0    0 -0.52424201447E+02  0.49465009576E+02  0.89678809453E+02  0.11505378279E+03  0.00000000000E+00 0. -1.
         -5    1    5    5    0  502  0.36326234642E+02 -0.12433465320E+02  0.48241894401E+03  0.48396726534E+03  0.47000000000E+01 0.  1.
         13    1    6    6    0    0  0.30357732412E+02  0.11174347624E+02  0.14248363590E+03  0.14610970010E+03  0.00000000000E+00 0. -1.
        -14    1    6    6    0    0 -0.14195381768E+02  0.34821908481E+02  0.26281312592E+02  0.45877898441E+02  0.00000000000E+00 0.  1.
</event>
<event>
12    1  0.8449700E-002  0.5259410E+03  0.7818608E-02  0.1007387E+00
         21   -1    0    0  501  502  0.00000000000E+00  0.00000000000E+00  0.91294888233E+03  0.91294888233E+03  0.00000000000E+00 0. -1.
         21   -1    0    0  502  503 -0.00000000000E+00 -0.00000000000E+00 -0.10454847151E+04  0.10454847151E+04  0.00000000000E+00 0.  1.
         -6    2    1    2    0  503 -0.46150958795E+02 -0.49202137819E+03 -0.89229743825E+03  0.10343926962E+04  0.17192610025E+03 0.  0.
        -24    2    3    3    0    0 -0.17227432961E+01 -0.38739079441E+03 -0.57997530943E+03  0.70199439960E+03  0.79688029795E+02 0.  0.
          6    2    1    2  501    0  0.46150958795E+02  0.49202137819E+03  0.75976160546E+03  0.92404090131E+03  0.17999706270E+03 0.  0.
         24    2    5    5    0    0  0.46914464308E+01  0.38334587708E+03  0.47078098976E+03  0.61249452923E+03  0.80862456547E+02 0.  0.
          5    1    5    5  501    0  0.41459512364E+02  0.10867550111E+03  0.28898061570E+03  0.31154637208E+03  0.47000000000E+01 0. -1.
        -13    1    6    6    0    0  0.19998426776E+02  0.84080810186E+02  0.65391551711E+02  0.10837700287E+03  0.00000000000E+00 0.  1.
         14    1    6    6    0    0 -0.15306980345E+02  0.29926506690E+03  0.40538943804E+03  0.50411752637E+03  0.00000000000E+00 0. -1.
         -5    1    3    3    0  503 -0.44428215499E+02 -0.10463058378E+03 -0.31232212883E+03  0.33239829655E+03  0.47000000000E+01 0.  1.
         13    1    4    4    0    0 -0.86525018254E+01 -0.86635340021E+02 -0.78634819549E+02  0.11732000159E+03  0.00000000000E+00 0. -1.
        -14    1    4    4    0    0  0.69297585294E+01 -0.30075545439E+03 -0.50134048988E+03  0.58467439801E+03  0.00000000000E+00 0.  1.
</event>
<event>
12    1  0.8449700E-002  0.1977037E+03  0.7818608E-02  0.1151918E+00
         21   -1    0    0  503  502  0.00000000000E+00  0.00000000000E+00  0.26441889637E+03  0.26441889637E+03  0.00000000000E+00 0. -1.
         21   -1    0    0  501  503 -0.00000000000E+00 -0.00000000000E+00 -0.18509895091E+03  0.18509895091E+03  0.00000000000E+00 0. -1.
          6    2    1    2  501    0  0.54834339799E+02 -0.80665586816E+02 -0.62351318820E+02  0.20629470092E+03  0.17075150059E+03 0.  0.
         24    2    3    3    0    0 -0.18437752249E+01  0.37251289633E+01 -0.69472225335E+02  0.10428000129E+03  0.77657275785E+02 0.  0.
         -6    2    1    2    0  502 -0.54834339799E+02  0.80665586816E+02  0.14167126428E+03  0.24322314637E+03  0.17196804961E+03 0.  0.
        -24    2    5    5    0    0 -0.21294759769E+02  0.45943909951E+02  0.64735678177E+01  0.99588173600E+02  0.85507821779E+02 0.  0.
          5    1    3    3  501    0  0.56678115024E+02 -0.84390715779E+02  0.71209065143E+01  0.10201469964E+03  0.47000000000E+01 0. -1.
        -13    1    4    4    0    0  0.21245244320E+02  0.71147143005E+01  0.76730038197E+01  0.23682367986E+02  0.00000000000E+00 0.  1.
         14    1    4    4    0    0 -0.23089019545E+02 -0.33895853371E+01 -0.77145229154E+02  0.80597633300E+02  0.00000000000E+00 0. -1.
         -5    1    5    5    0  502 -0.33539580030E+02  0.34721676864E+02  0.13519769646E+03  0.14363497277E+03  0.47000000000E+01 0.  1.
         13    1    6    6    0    0 -0.11388792081E+02  0.68949996881E+02  0.17773770511E+02  0.72109039469E+02  0.00000000000E+00 0. -1.
        -14    1    6    6    0    0 -0.99059676884E+01 -0.23006086930E+02 -0.11300202693E+02  0.27479134131E+02  0.00000000000E+00 0.  1.
</event>
<event>
12    1  0.8449700E-002  0.1816519E+03  0.7818608E-02  0.1167862E+00
         21   -1    0    0  501  502  0.00000000000E+00  0.00000000000E+00  0.66715421241E+02  0.66715421241E+02  0.00000000000E+00 0. -1.
         21   -1    0    0  502  503 -0.00000000000E+00 -0.00000000000E+00 -0.48341000245E+03  0.48341000245E+03  0.00000000000E+00 0. -1.
         -6    2    1    2    0  503  0.14802161251E+02 -0.24327010067E+02 -0.17906571601E+03  0.25507239466E+03  0.17940593209E+03 0.  0.
        -24    2    3    3    0    0 -0.16969983426E+02  0.52018053048E+02 -0.79566531012E+02  0.12561114310E+03  0.80333481397E+02 0.  0.
          6    2    1    2  501    0 -0.14802161251E+02  0.24327010067E+02 -0.23762886520E+03  0.29505302903E+03  0.17256275661E+03 0.  0.
         24    2    5    5    0    0 -0.10237563592E+02 -0.38371273024E+02 -0.20586561640E+03  0.22446333978E+03  0.80162189265E+02 0.  0.
          5    1    5    5  501    0 -0.45645976589E+01  0.62698283091E+02 -0.31763248794E+02  0.70589689249E+02  0.47000000000E+01 0. -1.
        -11    1    6    6    0    0  0.34151698501E+02 -0.26966978231E+02 -0.10594437823E+03  0.11453282370E+03  0.00000000000E+00 0.  1.
         12    1    6    6    0    0 -0.44389262093E+02 -0.11404294793E+02 -0.99921238175E+02  0.10993051609E+03  0.00000000000E+00 0. -1.
         -5    1    3    3    0  503  0.31772144676E+02 -0.76345063115E+02 -0.99499184996E+02  0.12946125156E+03  0.47000000000E+01 0.  1.
         11    1    4    4    0    0  0.28671534856E+02  0.25862658020E+01 -0.15446593684E+02  0.32670214849E+02  0.00000000000E+00 0. -1.
        -12    1    4    4    0    0 -0.45641518282E+02  0.49431787246E+02 -0.64119937328E+02  0.92940928252E+02  0.00000000000E+00 0.  1.
</event>
<event>
12    1  0.8449700E-002  0.2008444E+03  0.7818608E-02  0.1149252E+00
         21   -1    0    0  503  502  0.00000000000E+00  0.00000000000E+00  0.20697959820E+03  0.20697959820E+03  0.00000000000E+00 0. -1.
         21   -1    0    0  501  503 -0.00000000000E+00 -0.00000000000E+00 -0.68041064121E+03  0.68041064121E+03  0.00000000000E+00 0. -1.
          6    2    1    2  501    0 -0.10114685392E+03 -0.16669161074E+02 -0.61209365561E+03  0.64420268369E+03  0.17271336789E+03 0.  0.
         24    2    3    3    0    0 -0.46408334030E+02  0.19618259055E+02 -0.14986928801E+03  0.17731239848E+03  0.80251315322E+02 0.  0.
         -6    2    1    2    0  502  0.10114685392E+03  0.16669161074E+02  0.13866261260E+03  0.24318755572E+03  0.17147687930E+03 0.  0.
        -24    2    5    5    0    0  0.11702039208E+03 -0.34630458615E+02  0.10459474481E+03  0.17941977538E+03  0.79739289745E+02 0.  0.
          5    1    3    3  501    0 -0.54738519893E+02 -0.36287420128E+02 -0.46222436760E+03  0.46689028521E+03  0.47000000000E+01 0. -1.
        -11    1    4    4    0    0  0.15906909929E+02 -0.15838866885E+02 -0.27640761936E+02  0.35607740846E+02  0.00000000000E+00 0.  1.
         12    1    4    4    0    0 -0.62315243959E+02  0.35457125940E+02 -0.12222852607E+03  0.14170465763E+03  0.00000000000E+00 0. -1.
         -5    1    5    5    0  502 -0.15873538158E+02  0.51299619689E+02  0.34067867789E+02  0.63767780340E+02  0.47000000000E+01 0.  1.
         13    1    6    6    0    0  0.25461877519E+02  0.56594007394E+00  0.71494114099E+02  0.75894899999E+02  0.00000000000E+00 0. -1.
        -14    1    6    6    0    0  0.91558514561E+02 -0.35196398689E+02  0.33100630711E+02  0.10352487538E+03  0.00000000000E+00 0.  1.
</event>
<event>
12    1  0.8449700E-002  0.1835323E+03  0.7818608E-02  0.1165315E+00
         21   -1    0    0  503  502  0.00000000000E+00  0.00000000000E+00  0.16955416890E+02  0.16955416890E+02  0.00000000000E+00 0.  1.
         21   -1    0    0  501  503 -0.00000000000E+00 -0.00000000000E+00 -0.20790100853E+04  0.20790100853E+04  0.00000000000E+00 0.  1.
          6    2    1    2  501    0 -0.35695988130E+02 -0.38933023824E+02 -0.13054270762E+04  0.13182655120E+04  0.17576724683E+03 0.  0.
         24    2    3    3    0    0 -0.53552441445E+02 -0.71897932407E+01 -0.37055155906E+03  0.38266901346E+03  0.78788062742E+02 0.  0.
         -6    2    1    2    0  502  0.35695988130E+02  0.38933023824E+02 -0.75662759227E+03  0.77769999021E+03  0.17187779806E+03 0.  0.
        -24    2    5    5    0    0 -0.83930779159E+01 -0.39339990697E+02 -0.36929538213E+03  0.38005839082E+03  0.80294598495E+02 0.  0.
          5    1    3    3  501    0  0.17856453315E+02 -0.31743230583E+02 -0.93487551713E+03  0.93559649857E+03  0.47000000000E+01 0. -1.
        -11    1    4    4    0    0 -0.40216754642E+02 -0.23563312818E+02 -0.35037693551E+03  0.35346373789E+03  0.00000000000E+00 0.  1.
         12    1    4    4    0    0 -0.13335686803E+02  0.16373519577E+02 -0.20174623545E+02  0.29205275569E+02  0.00000000000E+00 0. -1.
         -5    1    5    5    0  502  0.44089066046E+02  0.78273014521E+02 -0.38733221014E+03  0.39764159938E+03  0.47000000000E+01 0.  1.
         13    1    6    6    0    0 -0.35126375239E+02  0.22231732018E+01 -0.21997122755E+03  0.22276926558E+03  0.00000000000E+00 0. -1.
        -14    1    6    6    0    0  0.26733297323E+02 -0.41563163899E+02 -0.14932415458E+03  0.15728912524E+03  0.00000000000E+00 0.  1.
</event>
<event>
12    1  0.8449700E-002  0.2087086E+03  0.7818608E-02  0.1143804E+00
         21   -1    0    0  501  502  0.00000000000E+00  0.00000000000E+00  0.95328048564E+03  0.95328048564E+03  0.00000000000E+00 0. -1.
         21   -1    0    0  502  503 -0.00000000000E+00 -0.00000000000E+00 -0.54974181519E+02  0.54974181519E+02  0.00000000000E+00 0.  1.
         -6    2    1    2    0  503  0.14861588454E+02  0.10666149044E+03  0.67554733270E+03  0.70705267171E+03  0.17877847045E+03 0.  0.
        -24    2    3    3    0    0 -0.30791712794E+02  0.10834058607E+03  0.61802152238E+03  0.63344321491E+03  0.81325839824E+02 0.  0.
          6    2    1    2  501    0 -0.14861588454E+02 -0.10666149044E+03  0.22275897142E+03  0.30120199545E+03  0.17176595228E+03 0.  0.
         24    2    5    5    0    0 -0.13722911850E+02 -0.14350966981E+03  0.18991995879E+03  0.25160788635E+03  0.80334264711E+02 0.  0.
          5    1    5    5  501    0 -0.11386766033E+01  0.36848179372E+02  0.32839012633E+02  0.49594109107E+02  0.47000000000E+01 0. -1.
        -13    1    6    6    0    0 -0.18472956235E+02 -0.60327213458E+02  0.27014736580E+02  0.68632490762E+02  0.00000000000E+00 0.  1.
         14    1    6    6    0    0  0.47500443849E+01 -0.83182456354E+02  0.16290522221E+03  0.18297539559E+03  0.00000000000E+00 0. -1.
         -5    1    3    3    0  503  0.45653301248E+02 -0.16790956276E+01  0.57525810317E+02  0.73609456795E+02  0.47000000000E+01 0.  1.
         13    1    4    4    0    0 -0.20812565948E+01  0.11013696559E+03  0.48967454302E+03  0.50191198521E+03  0.00000000000E+00 0. -1.
        -14    1    4    4    0    0 -0.28710456199E+02 -0.17963795222E+01  0.12834697936E+03  0.13153122970E+03  0.00000000000E+00 0.  1.
</event>
<event>
12    1  0.8449700E-002  0.2071781E+03  0.7818608E-02  0.1144158E+00
         21   -1    0    0  503  502  0.00000000000E+00  0.00000000000E+00  0.17159966631E+04  0.17159966631E+04  0.00000000000E+00 0.  1.
         21   -1    0    0  501  503 -0.00000000000E+00 -0.00000000000E+00 -0.43691610741E+02  0.43691610741E+02  0.00000000000E+00 0.  1.
          6    2    1    2  501    0 -0.10502272728E+03  0.41796684049E+02  0.25587027120E+03  0.32818198255E+03  0.17163065562E+03 0.  0.
         24    2    3    3    0    0 -0.10416004459E+03  0.64277241045E+02  0.11745847752E+03  0.18787505367E+03  0.80744431653E+02 0.  0.
         -6    2    1    2    0  502  0.10502272728E+03 -0.41796684049E+02  0.14164347811E+04  0.14315062912E+04  0.17362614052E+03 0.  0.
        -24    2    5    5    0    0  0.44660293839E+02 -0.93194678753E+02  0.10130909451E+04  0.10204178370E+04  0.64957746695E+02 0.  0.
          5    1    3    3  501    0 -0.86268268118E+00 -0.22480556996E+02  0.13841179368E+03  0.14030692888E+03  0.47000000000E+01 0. -1.
        -13    1    4    4    0    0  0.15222552178E+01  0.30408378368E+02  0.68852552333E+01  0.31215276317E+02  0.00000000000E+00 0.  1.
         14    1    4    4    0    0 -0.10568229981E+03  0.33868862677E+02  0.11057322229E+03  0.15665977735E+03  0.00000000000E+00 0. -1.
         -5    1    5    5    0  502  0.60362433437E+02  0.51397994705E+02  0.40334383598E+03  0.41108845430E+03  0.47000000000E+01 0.  1.
         11    1    6    6    0    0  0.57787855461E+02 -0.83386794616E+02  0.75194252254E+03  0.75875579138E+03  0.00000000000E+00 0. -1.
        -12    1    6    6    0    0 -0.13127561622E+02 -0.98078841373E+01  0.26114842260E+03  0.26166204557E+03  0.00000000000E+00 0.  1.
</event>
<event>
12    1  0.8449700E-002  0.2468253E+03  0.7818608E-02  0.1115333E+00
         21   -1    0    0  503  502  0.00000000000E+00  0.00000000000E+00  0.11122621950E+03  0.11122621950E+03  0.00000000000E+00 0. -1.
         21   -1    0    0  501  503 -0.00000000000E+00 -0.00000000000E+00 -0.54772658280E+03  0.54772658280E+03  0.00000000000E+00 0.  1.
          6    2    1    2  501    0  0.34627416466E+02 -0.17283873831E+03 -0.22158119074E+03  0.33169406295E+03  0.17277279842E+03 0.  0.
         24    2    3    3    0    0  0.29673911843E+01 -0.14112422508E+03 -0.75726558894E+02  0.17903813879E+03  0.79970563992E+02 0.  0.
         -6    2    1    2    0  502 -0.34627416466E+02  0.17283873831E+03 -0.21491917256E+03  0.32725873934E+03  0.17273026460E+03 0.  0.
        -24    2    5    5    0    0  0.23811630281E+02  0.22256739556E+02 -0.77735765790E+02  0.11528836965E+03  0.78652417008E+02 0.  0.
          5    1    3    3  501    0  0.31660025282E+02 -0.31714513238E+02 -0.14585463185E+03  0.15265592416E+03  0.47000000000E+01 0. -1.
        -11    1    4    4    0    0 -0.25744950239E+02 -0.26332310285E+02 -0.42288651982E+02  0.56076047598E+02  0.00000000000E+00 0.  1.
         12    1    4    4    0    0  0.28712341423E+02 -0.11479191479E+03 -0.33437906913E+02  0.12296209119E+03  0.00000000000E+00 0. -1.
         -5    1    5    5    0  502 -0.58439046747E+02  0.15058199876E+03 -0.13718340677E+03  0.21197036969E+03  0.47000000000E+01 0.  1.
         11    1    6    6    0    0  0.74634302849E+01  0.23081525357E+02  0.98532446168E+01  0.26182934020E+02  0.00000000000E+00 0. -1.
        -12    1    6    6    0    0  0.16348199996E+02 -0.82478580026E+00 -0.87589010407E+02  0.89105435630E+02  0.00000000000E+00 0.  1.
</event>
<event>
12    1  0.8449700E-002  0.1931299E+03  0.7818608E-02  0.1155695E+00
         21   -1    0    0  503  502  0.00000000000E+00  0.00000000000E+00  0.31324383018E+03  0.31324383018E+03  0.00000000000E+00 0. -1.
         21   -1    0    0  501  503 -0.00000000000E+00 -0.00000000000E+00 -0.13178459295E+03  0.13178459295E+03  0.00000000000E+00 0.  1.
          6    2    1    2  501    0  0.62297580888E+02 -0.59584868904E+02  0.21396463593E+02  0.19419133589E+03  0.17268792978E+03 0.  0.
         24    2    3    3    0    0 -0.15421904891E+02 -0.65986831978E+02  0.41898703051E+02  0.11342169169E+03  0.80727205349E+02 0.  0.
         -6    2    1    2    0  502 -0.62297580888E+02  0.59584868904E+02  0.16006277363E+03  0.25083708724E+03  0.17282305299E+03 0.  0.
        -24    2    5    5    0    0  0.11054883779E+02  0.34015352151E+02  0.14609423466E+03  0.17177006288E+03  0.82958872124E+02 0.  0.
          5    1    3    3  501    0  0.77719485779E+02  0.64019630734E+01 -0.20502239458E+02  0.80769644197E+02  0.47000000000E+01 0. -1.
        -11    1    4    4    0    0  0.69310768695E+01 -0.65750281304E+02  0.20674559795E+00  0.66114915578E+02  0.00000000000E+00 0.  1.
         12    1    4    4    0    0 -0.22352981761E+02 -0.23655067410E+00  0.41691957453E+02  0.47306776112E+02  0.00000000000E+00 0. -1.
         -5    1    5    5    0  502 -0.73352464667E+02  0.25569516753E+02  0.13968538967E+02  0.79067024357E+02  0.47000000000E+01 0.  1.
         11    1    6    6    0    0  0.12892579993E+02  0.61473295390E+02  0.10278780676E+03  0.12045961101E+03  0.00000000000E+00 0. -1.
        -12    1    6    6    0    0 -0.18376962140E+01 -0.27457943239E+02  0.43306427901E+02  0.51310451877E+02  0.00000000000E+00 0.  1.
</event>
<event>
12    1  0.8449700E-002  0.2192480E+03  0.7818608E-02  0.1134567E+00
         21   -1    0    0  501  502  0.00000000000E+00  0.00000000000E+00  0.44221050295E+03  0.44221050295E+03  0.00000000000E+00 0.  1.
         21   -1    0    0  502  503 -0.00000000000E+00 -0.00000000000E+00 -0.16490150808E+03  0.16490150808E+03  0.00000000000E+00 0. -1.
         -6    2    1    2    0  503  0.12918569857E+03 -0.39303830468E+02 -0.39199284643E+02  0.22208321930E+03  0.17190298594E+03 0.  0.
        -24    2    3    3    0    0  0.14727590006E+03 -0.18538230492E+02 -0.67697522189E+02  0.18217451003E+03  0.81060106493E+02 0.  0.
          6    2    1    2  501    0 -0.12918569857E+03  0.39303830468E+02  0.31650827951E+03  0.38502879173E+03  0.17273084165E+03 0.  0.
         24    2    5    5    0    0 -0.68401048175E+02  0.88336408254E+02  0.23253708719E+03  0.27025850573E+03  0.80524149092E+02 0.  0.
          5    1    5    5  501    0 -0.60784650391E+02 -0.49032577787E+02  0.83971192326E+02  0.11477028600E+03  0.47000000000E+01 0. -1.
        -11    1    6    6    0    0 -0.24746739974E+02 -0.65423111936E+01  0.89901553377E+02  0.93474554156E+02  0.00000000000E+00 0.  1.
         12    1    6    6    0    0 -0.43654308202E+02  0.94878719448E+02  0.14263553381E+03  0.17678395157E+03  0.00000000000E+00 0. -1.
         -5    1    3    3    0  503 -0.18090201495E+02 -0.20765599975E+02  0.28498237546E+02  0.39908709271E+02  0.47000000000E+01 0.  1.
         11    1    4    4    0    0  0.72045385046E+02  0.31323395501E+02 -0.37053161244E+02  0.86859825986E+02  0.00000000000E+00 0. -1.
        -12    1    4    4    0    0  0.75230515015E+02 -0.49861625994E+02 -0.30644360945E+02  0.95314684041E+02  0.00000000000E+00 0.  1.
</event>
<event>
12    1  0.8449700E-002  0.1828936E+03  0.7818608E-02  0.1165087E+00
         21   -1    0    0  501  502  0.00000000000E+00  0.00000000000E+00  0.96838077224E+03  0.96838077224E+03  0.00000000000E+00 0. -1.
         21   -1    0    0  502  503 -0.00000000000E+00 -0.00000000000E+00 -0.56281081223E+02  0.56281081223E+02  0.00000000000E+00 0. -1.
         -6    2    1    2    0  503 -0.47110682645E+02  0.41237122337E+02  0.77460555966E+03  0.79585038170E+03  0.17159294949E+03 0.  0.
        -24    2    3    3    0    0 -0.27305106007E+02  0.36022179066E+01  0.72657567598E+03  0.73152615124E+03  0.80372583863E+02 0.  0.
          6    2    1    2  501    0  0.47110682645E+02 -0.41237122337E+02  0.13749413135E+03  0.22881147176E+03  0.17184334952E+03 0.  0.
         24    2    5    5    0    0 -0.41723362133E+02 -0.29754657302E+02  0.77928877688E+02  0.12113861558E+03  0.77301200686E+02 0.  0.
          5    1    5    5  501    0  0.88834044778E+02 -0.11482465036E+02  0.59565253667E+02  0.10767285619E+03  0.47000000000E+01 0. -1.
        -11    1    6    6    0    0 -0.52258359405E+01 -0.45798525716E+02  0.64072749480E+02  0.78931182336E+02  0.00000000000E+00 0.  1.
         12    1    6    6    0    0 -0.36497526193E+02  0.16043868415E+02  0.13856128207E+02  0.42207433241E+02  0.00000000000E+00 0. -1.
         -5    1    3    3    0  503 -0.19805576637E+02  0.37634904431E+02  0.48029883682E+02  0.64324230458E+02  0.47000000000E+01 0.  1.
         13    1    4    4    0    0 -0.65171929441E+01  0.20584506444E+02  0.65041955759E+03  0.65077783967E+03  0.00000000000E+00 0. -1.
        -14    1    4    4    0    0 -0.20787913063E+02 -0.16982288538E+02  0.76156118388E+02  0.80748311571E+02  0.00000000000E+00 0.  1.
</event>
<event>
12    1  0.8449700E-002  0.1751087E+03  0.7818608E-02  0.1173169E+00
         21   -1    0    0  503  502  0.00000000000E+00  0.00000000000E+00  0.29906804570E+03  0.29906804570E+03  0.00000000000E+00 0.  1.
         21   -1    0    0  501  503 -0.00000000000E+00 -0.00000000000E+00 -0.29814754899E+03  0.29814754899E+03  0.00000000000E+00 0.  1.
          6    2    1    2  501    0  0.16118087509E+02  0.16136873261E+01 -0.24219114061E+03  0.29886387322E+03  0.17435787734E+03 0.  0.
         24    2    3    3    0    0  0.37056302150E+02  0.43243813514E+01 -0.42400730433E+02  0.97906030137E+02  0.79974364597E+02 0.  0.
         -6    2    1    2    0  502 -0.16118087509E+02 -0.16136873261E+01  0.24311163732E+03  0.29835172147E+03  0.17218619216E+03 0.  0.
        -24    2    5    5    0    0  0.90794350109E+01 -0.60858659909E+02  0.19493950226E+03  0.21780653841E+03  0.75180223517E+02 0.  0.
          5    1    3    3  501    0 -0.20938214640E+02 -0.27106940254E+01 -0.19979041018E+03  0.20095784308E+03  0.47000000000E+01 0. -1.
        -13    1    4    4    0    0 -0.16746728422E+02  0.25264344063E+02 -0.11470748612E+02  0.32408611008E+02  0.00000000000E+00 0.  1.
         14    1    4    4    0    0  0.53803030571E+02 -0.20939962712E+02 -0.30929981821E+02  0.65497419128E+02  0.00000000000E+00 0. -1.
         -5    1    5    5    0  502 -0.25197522520E+02  0.59244972583E+02  0.48172135069E+02  0.80545183062E+02  0.47000000000E+01 0.  1.
         13    1    6    6    0    0  0.11728078528E+02 -0.11061064873E+02 -0.47620814906E+00  0.16128290557E+02  0.00000000000E+00 0. -1.
        -14    1    6    6    0    0 -0.26486435167E+01 -0.49797595035E+02  0.19541571040E+03  0.20167824785E+03  0.00000000000E+00 0.  1.
</event>
<event>
12    1  0.8449700E-002  0.2152829E+03  0.7818608E-02  0.1137872E+00
         21   -1    0    0  503  502  0.00000000000E+00  0.00000000000E+00  0.37124684308E+03  0.37124684308E+03  0.00000000000E+00 0.  1.
         21   -1    0    0  501  503 -0.00000000000E+00 -0.00000000000E+00 -0.13643737282E+03  0.13643737282E+03  0.00000000000E+00 0. -1.
          6    2    1    2  501    0 -0.96898135775E+02  0.82555889869E+02  0.38911754103E+02  0.21661265561E+03  0.17088649535E+03 0.  0.
         24    2    3    3    0    0  0.31749561272E+01  0.68369501329E+01  0.44449307714E+02  0.90911676865E+02  0.78945346922E+02 0.  0.
         -6    2    1    2    0  502  0.96898135775E+02 -0.82555889869E+02  0.19589771615E+03  0.29107156028E+03  0.17361455683E+03 0.  0.
        -24    2    5    5    0    0  0.16928621827E+02  0.19581110265E+02  0.96519280244E+02  0.12759295776E+03  0.79334691631E+02 0.  0.
          5    1    3    3  501    0 -0.10007309190E+03  0.75718939736E+02 -0.55375536112E+01  0.12570097875E+03  0.47000000000E+01 0. -1.
        -11    1    4    4    0    0 -0.89548060616E+01  0.37616447192E+02  0.43274000092E+01  0.38909022627E+02  0.00000000000E+00 0.  1.
         12    1    4    4    0    0  0.12129762189E+02 -0.30779497059E+02  0.40121907705E+02  0.52002654238E+02  0.00000000000E+00 0. -1.
         -5    1    5    5    0  502  0.79969513949E+02 -0.10213700013E+03  0.99378435911E+02  0.16347860252E+03  0.47000000000E+01 0.  1.
         13    1    6    6    0    0 -0.13053036532E+02  0.36018105361E+02  0.81879750768E+02  0.90399000339E+02  0.00000000000E+00 0. -1.
        -14    1    6    6    0    0  0.29981658358E+02 -0.16436995096E+02  0.14639529475E+02  0.37193957425E+02  0.00000000000E+00 0.  1.
</event>
<event>
12    1  0.8449700E-002  0.2900949E+03  0.7818608E-02  0.1090383E+00
         21   -1    0    0  503  502  0.00000000000E+00  0.00000000000E+00  0.91558269757E+03  0.91558269757E+03  0.00000000000E+00 0.  1.
         21   -1    0    0  501  503 -0.00000000000E+00 -0.00000000000E+00 -0.99517316835E+02  0.99517316835E+02  0.00000000000E+00 0. -1.
          6    2    1    2  501    0  0.22197447930E+03  0.69884122265E+02  0.26546929791E+03  0.39275679656E+03  0.17212638702E+03 0.  0.
         24    2    3    3    0    0  0.91782772953E+02  0.97369244218E+02  0.15474997829E+03  0.21959164398E+03  0.79800295714E+02 0.  0.
         -6    2    1    2    0  502 -0.22197447930E+03 -0.69884122265E+02  0.55059608283E+03  0.62234321784E+03  0.17320096525E+03 0.  0.
        -24    2    5    5    0    0 -0.23997744963E+03 -0.66122013143E+02  0.45448442852E+03  0.52437485305E+03  0.80321813936E+02 0.  0.
          5    1    3    3  501    0  0.13019170635E+03 -0.27485121952E+02  0.11071931962E+03  0.17316515258E+03  0.47000000000E+01 0. -1.
        -11    1    4    4    0    0 -0.95440651878E+01  0.30044987080E+02  0.49719068584E+02  0.58870843461E+02  0.00000000000E+00 0.  1.
         12    1    4    4    0    0  0.10132683814E+03  0.67324257138E+02  0.10503090970E+03  0.16072080052E+03  0.00000000000E+00 0. -1.
         -5    1    5    5    0  502  0.18002970329E+02 -0.37621091220E+01  0.96111654310E+02  0.97968364792E+02  0.47000000000E+01 0.  1.
         13    1    6    6    0    0 -0.14627725550E+03 -0.75969677735E+02  0.25308383913E+03  0.30202625223E+03  0.00000000000E+00 0. -1.
        -14    1    6    6    0    0 -0.93700194132E+02  0.98476645917E+01  0.20140058939E+03  0.22234860082E+03  0.00000000000E+00 0.  1.
</event>
<event>
12    1  0.8449700E-002  0.2268053E+03  0.7818608E-02  0.1129700E+00
         21   -1    0    0  503  502  0.00000000000E+00  0.00000000000E+00  0.15184125987E+04  0.15184125987E+04  0.00000000000E+00 0. -1.
         21   -1    0    0  501  503 -0.00000000000E+00 -0.00000000000E+00 -0.74550613135E+02  0.74550613135E+02  0.00000000000E+00 0.  1.
          6    2    1    2  501    0  0.28730478937E+02 -0.14414100935E+03  0.13209062322E+03  0.26246630917E+03  0.17273841411E+03 0.  0.
         24    2    3    3    0    0  0.58627266668E+02 -0.50865893474E+02  0.21081155130E+02  0.11434724502E+03  0.81279651976E+02 0.  0.
         -6    2    1    2    0  502 -0.28730478937E+02  0.14414100935E+03  0.13117713623E+04  0.13304969027E+04  0.16696056407E+03 0.  0.
        -24    2    5    5    0    0  0.73799464551E+01  0.12501396617E+02  0.62789748179E+03  0.63311714603E+03  0.79820576529E+02 0.  0.
          5    1    3    3  501    0 -0.29896787731E+02 -0.93275115876E+02  0.11100946809E+03  0.14811906415E+03  0.47000000000E+01 0. -1.
        -13    1    4    4    0    0  0.95838115183E+01 -0.69879091220E+00 -0.27421562205E+02  0.29056493693E+02  0.00000000000E+00 0.  1.
         14    1    4    4    0    0  0.49043455150E+02 -0.50167102561E+02  0.48502717335E+02  0.85290751323E+02  0.00000000000E+00 0. -1.
         -5    1    5    5    0  502 -0.36110425392E+02  0.13163961273E+03  0.68387388056E+03  0.69737975664E+03  0.47000000000E+01 0.  1.
         13    1    6    6    0    0  0.49073225355E+01  0.17800120433E+00  0.61530734167E+03  0.61532693604E+03  0.00000000000E+00 0. -1.
        -14    1    6    6    0    0  0.24726239196E+01  0.12323395413E+02  0.12590140121E+02  0.17790209999E+02  0.00000000000E+00 0.  1.
</event>
<event>
12    1  0.8449700E-002  0.1879443E+03  0.7818608E-02  0.1160705E+00
         21   -1    0    0  503  502  0.00000000000E+00  0.00000000000E+00  0.64044206882E+02  0.64044206882E+02  0.00000000000E+00 0.  1.
         21   -1    0    0  501  503 -0.00000000000E+00 -0.00000000000E+00 -0.58511918410E+03  0.58511918410E+03  0.00000000000E+00 0.  1.
          6    2    1    2  501    0 -0.32923308821E+02  0.64618315226E+02 -0.17634959386E+03  0.25653298120E+03  0.17161153884E+03 0.  0.
         24    2    3    3    0    0 -0.42514501231E+01  0.90595773996E+02 -0.18142592130E+03  0.21722950876E+03  0.77766480333E+02 0.  0.
         -6    2    1    2    0  502  0.32923308821E+02 -0.64618315226E+02 -0.34472538336E+03  0.39263040978E+03  0.17338851699E+03 0.  0.
        -24    2    5    5    0    0  0.54093527718E+02 -0.83014956599E+02 -0.34110138500E+03  0.36396269368E+03  0.79379435535E+02 0.  0.
          5    1    3    3  501    0 -0.28671858698E+02 -0.25977458769E+02  0.50763274448E+01  0.39303472437E+02  0.47000000000E+01 0. -1.
        -11    1    4    4    0    0 -0.15297134277E+02  0.67619268512E+02 -0.55662791989E+02  0.88908459683E+02  0.00000000000E+00 0.  1.
         12    1    4    4    0    0  0.11045684154E+02  0.22976505483E+02 -0.12576312931E+03  0.12832104908E+03  0.00000000000E+00 0. -1.
         -5    1    5    5    0  502 -0.21170218898E+02  0.18396641373E+02 -0.36239983605E+01  0.28667716095E+02  0.47000000000E+01 0.  1.
         11    1    6    6    0    0 -0.10190633413E+02 -0.36703615163E+02 -0.18528546880E+03  0.18916053849E+03  0.00000000000E+00 0. -1.
        -12    1    6    6    0    0  0.64284161132E+02 -0.46311341436E+02 -0.15581591620E+03  0.17480215519E+03  0.00000000000E+00 0.  1.
</event>
<event>
12    1  0.8449700E-002  0.2023857E+03  0.7818608E-02  0.1150628E+00
         21   -1    0    0  503  502  0.00000000000E+00  0.00000000000E+00  0.34910366436E+03  0.34910366436E+03  0.00000000000E+00 0.  1.
         21   -1    0    0  501  503 -0.00000000000E+00 -0.00000000000E+00 -0.16277381783E+03  0.16277381783E+03  0.00000000000E+00 0. -1.
          6    2    1    2  501    0  0.80795876553E+02 -0.22527458150E+01 -0.50785247068E+02  0.20866024630E+03  0.18554489627E+03 0.  0.
         24    2    3    3    0    0  0.36721602234E+02 -0.55396587074E+02  0.24286202229E+02  0.10655920801E+03  0.79673002091E+02 0.  0.
         -6    2    1    2    0  502 -0.80795876553E+02  0.22527458150E+01  0.23711509360E+03  0.30321723588E+03  0.17083347446E+03 0.  0.
        -24    2    5    5    0    0 -0.57249149334E+02 -0.43613399709E+02  0.72863334506E+02  0.13099969313E+03  0.81683905095E+02 0.  0.
          5    1    3    3  501    0  0.44074274319E+02  0.53143841259E+02 -0.75071449297E+02  0.10210103829E+03  0.47000000000E+01 0. -1.
        -13    1    4    4    0    0  0.13670085551E+01  0.18560174410E+02  0.15305642413E+02  0.24095880897E+02  0.00000000000E+00 0.  1.
         14    1    4    4    0    0  0.35354593679E+02 -0.73956761484E+02  0.89805598159E+01  0.82463327109E+02  0.00000000000E+00 0. -1.
         -5    1    5    5    0  502 -0.23546727219E+02  0.45866145524E+02  0.16425175909E+03  0.17221754275E+03  0.47000000000E+01 0.  1.
         11    1    6    6    0    0 -0.61083492860E+02 -0.51138710658E+01  0.18035822790E+02  0.63895505953E+02  0.00000000000E+00 0. -1.
        -12    1    6    6    0    0  0.38343435257E+01 -0.38499528643E+02  0.54827511716E+02  0.67104187179E+02  0.00000000000E+00 0.  1.
</event>
<event>
12    1  0.8449700E-002  0.1795041E+03  0.7818608E-02  0.1168993E+00
         21   -1    0    0  503  502  0.00000000000E+00  0.00000000000E+00  0.80571034922E+02  0.80571034922E+02  0.00000000000E+00 0.  1.
         21   -1    0    0  501  503 -0.00000000000E+00 -0.00000000000E+00 -0.41829189353E+03  0.41829189353E+03  0.00000000000E+00 0. -1.
          6    2    1    2  501    0  0.40103009293E+02  0.26358358744E+02 -0.23087907200E+03  0.29244976859E+03  0.17297024839E+03 0.  0.
         24    2    3    3    0    0 -0.24961755660E+02 -0.12415731634E+02 -0.62307264973E+02  0.10758387707E+03  0.83155611351E+02 0.  0.
         -6    2    1    2    0  502 -0.40103009293E+02 -0.26358358744E+02 -0.10684178662E+03  0.20641315987E+03  0.16996532226E+03 0.  0.
        -24    2    5    5    0    0  0.35101558835E+02 -0.23589102621E+02 -0.10657734024E+03  0.13101053539E+03  0.63375592587E+02 0.  0.
          5    1    3    3  501    0  0.65064764954E+02  0.38774090378E+02 -0.16857180702E+03  0.18486589152E+03  0.47000000000E+01 0. -1.
        -13    1    4    4    0    0 -0.71134143602E+01 -0.39269579660E+02 -0.29294745248E+01  0.40016026434E+02  0.00000000000E+00 0.  1.
         14    1    4    4    0    0 -0.17848341300E+02  0.26853848026E+02 -0.59377790449E+02  0.67567850636E+02  0.00000000000E+00 0. -1.
         -5    1    5    5    0  502 -0.75204568128E+02 -0.27692561230E+01 -0.26444637936E+00  0.75402624482E+02  0.47000000000E+01 0.  1.
         13    1    6    6    0    0  0.65127524769E+01  0.15139802503E+02 -0.66077849921E+02  0.68102215932E+02  0.00000000000E+00 0. -1.
        -14    1    6    6    0    0  0.28588806358E+02 -0.38728905124E+02 -0.40499490317E+02  0.62908319458E+02  0.00000000000E+00 0.  1.
</event>
<event>
12    1  0.8449700E-002  0.3936668E+03  0.7818608E-02  0.1046002E+00
         21   -1    0    0  503  502  0.00000000000E+00  0.00000000000E+00  0.58511732034E+03  0.58511732034E+03  0.00000000000E+00 0. -1.
         21   -1    0    0  501  503 -0.00000000000E+00 -0.00000000000E+00 -0.28597986268E+03  0.28597986268E+03  0.00000000000E+00 0.  1.
          6    2    1    2  501    0  0.16890978657E+03 -0.31108436030E+03  0.26810656077E+03  0.47629265634E+03  0.17224857424E+03 0.  0.
         24    2    3    3    0    0  0.19014394580E+02 -0.11235524030E+03  0.13791604698E+03  0.19534150122E+03  0.78436081378E+02 0.  0.
         -6    2    1    2    0  502 -0.16890978657E+03  0.31108436030E+03  0.31030896884E+02  0.39480452669E+03  0.17205726519E+03 0.  0.
        -24    2    5    5    0    0 -0.39473726955E+02  0.55710676116E+02  0.24226979533E+02  0.10838211940E+03  0.80609445571E+02 0.  0.
          5    1    3    3  501    0  0.14989539199E+03 -0.19872912001E+03  0.13019051379E+03  0.28095115511E+03  0.47000000000E+01 0. -1.
        -11    1    4    4    0    0 -0.66685217645E+01 -0.19889251200E+02 -0.64874953056E+01  0.21957665886E+02  0.00000000000E+00 0.  1.
         12    1    4    4    0    0  0.25682916344E+02 -0.92465989100E+02  0.14440354228E+03  0.17338383534E+03  0.00000000000E+00 0. -1.
         -5    1    5    5    0  502 -0.12943605961E+03  0.25537368419E+03  0.68039173515E+01  0.28642240729E+03  0.47000000000E+01 0.  1.
         13    1    6    6    0    0 -0.47459600933E+02 -0.61291994567E+00  0.19452748844E+02  0.51295212536E+02  0.00000000000E+00 0. -1.
        -14    1    6    6    0    0  0.79858739781E+01  0.56323596062E+02  0.47742306892E+01  0.57086906863E+02  0.00000000000E+00 0.  1.
</event>
<event>
12    1  0.8449700E-002  0.1924176E+03  0.7818608E-02  0.1159184E+00
         21   -1    0    0  501  502  0.00000000000E+00  0.00000000000E+00  0.11291585792E+04  0.11291585792E+04  0.00000000000E+00 0. -1.
         21   -1    0    0  502  503 -0.00000000000E+00 -0.00000000000E+00 -0.31865180882E+02  0.31865180882E+02  0.00000000000E+00 0.  1.
         -6    2    1    2    0  503 -0.42358346959E+02  0.38529694798E+02  0.64245433834E+03  0.66715829488E+03  0.17051054699E+03 0.  0.
        -24    2    3    3    0    0  0.24553441735E+02  0.58391074944E+02  0.40806698085E+03  0.42255415502E+03  0.89559834337E+02 0.  0.
          6    2    1    2  501    0  0.42358346959E+02 -0.38529694798E+02  0.45483905994E+03  0.49386546516E+03  0.18370019134E+03 0.  0.
         24    2    5    5    0    0  0.98829864992E+02 -0.43207756176E+02  0.34632023477E+03  0.37135284531E+03  0.79567444989E+02 0.  0.
          5    1    5    5  501    0 -0.56471518033E+02  0.46780613773E+01  0.10851882517E+03  0.12251261985E+03  0.47000000000E+01 0. -1.
        -11    1    6    6    0    0  0.51733072353E+02 -0.59440526509E+02  0.26011453476E+03  0.27178862773E+03  0.00000000000E+00 0.  1.
         12    1    6    6    0    0  0.47096792639E+02  0.16232770333E+02  0.86205700004E+02  0.99564217582E+02  0.00000000000E+00 0. -1.
         -5    1    3    3    0  503 -0.66911788694E+02 -0.19861380146E+02  0.23438735749E+03  0.24460413987E+03  0.47000000000E+01 0.  1.
         13    1    4    4    0    0 -0.16443952868E+02  0.30394509004E+02  0.31662233897E+03  0.31850264567E+03  0.00000000000E+00 0. -1.
        -14    1    4    4    0    0  0.40997394602E+02  0.27996565941E+02  0.91444641882E+02  0.10405150935E+03  0.00000000000E+00 0.  1.
</event>
<event>
12    1  0.8449700E-002  0.1965062E+03  0.7818608E-02  0.1153090E+00
         21   -1    0    0  501  502  0.00000000000E+00  0.00000000000E+00  0.19514209470E+03  0.19514209470E+03  0.00000000000E+00 0.  1.
         21   -1    0    0  502  503 -0.00000000000E+00 -0.00000000000E+00 -0.21203556866E+03  0.21203556866E+03  0.00000000000E+00 0.  1.
         -6    2    1    2    0  503 -0.27626324803E+02 -0.89678738405E+02 -0.64104821447E+02  0.20507965901E+03  0.17071247307E+03 0.  0.
        -24    2    3    3    0    0 -0.12322525695E+02  0.36831174045E+02 -0.25456159708E+01  0.63479553096E+02  0.50147716594E+02 0.  0.
          6    2    1    2  501    0  0.27626324803E+02  0.89678738405E+02  0.47211347486E+02  0.20209800435E+03  0.17265341609E+03 0.  0.
         24    2    5    5    0    0  0.19960815936E+02  0.74302147122E+02 -0.36786892748E+02  0.11623186464E+03  0.78976753796E+02 0.  0.
          5    1    5    5  501    0  0.76655088673E+01  0.15376591282E+02  0.83998240234E+02  0.85866139706E+02  0.47000000000E+01 0. -1.
        -11    1    6    6    0    0 -0.22852705768E+02  0.19390407851E+02  0.10841266402E+02  0.31871101875E+02  0.00000000000E+00 0.  1.
         12    1    6    6    0    0  0.42813521704E+02  0.54911739272E+02 -0.47628159150E+02  0.84360762766E+02  0.00000000000E+00 0. -1.
         -5    1    3    3    0  503 -0.15303799108E+02 -0.12650991245E+03 -0.61559205476E+02  0.14160010591E+03  0.47000000000E+01 0.  1.
         13    1    4    4    0    0 -0.63913605015E+00  0.11520451995E+02  0.22959296784E+02  0.25695498008E+02  0.00000000000E+00 0. -1.
        -14    1    4    4    0    0 -0.11683389645E+02  0.25310722049E+02 -0.25504912755E+02  0.37784055088E+02  0.00000000000E+00 0.  1.
</event>
<event>
12    1  0.8449700E-002  0.3433579E+03  0.7818608E-02  0.1065406E+00
         21   -1    0    0  501  502  0.00000000000E+00  0.00000000000E+00  0.93137688945E+03  0.93137688945E+03  0.00000000000E+00 0.  1.
         21   -1    0    0  502  503 -0.00000000000E+00 -0.00000000000E+00 -0.12957156948E+03  0.12957156948E+03  0.00000000000E+00 0. -1.
         -6    2    1    2    0  503  0.25034679287E+03  0.16033704323E+03  0.31903737217E+03  0.46869978610E+03  0.17179394784E+03 0.  0.
        -24    2    3    3    0    0  0.80915295590E+02  0.23569680222E+02  0.16962935109E+03  0.20458392020E+03  0.77315255725E+02 0.  0.
          6    2    1    2  501    0 -0.25034679287E+03 -0.16033704323E+03  0.48276794780E+03  0.59224867283E+03  0.17120781208E+03 0.  0.
         24    2    5    5    0    0 -0.90122629850E+02 -0.32098250083E+02  0.26299567720E+03  0.29151804352E+03  0.81631228095E+02 0.  0.
          5    1    5    5  501    0 -0.16022416302E+03 -0.12823879315E+03  0.21977227060E+03  0.30073062932E+03  0.47000000000E+01 0. -1.
        -11    1    6    6    0    0 -0.93733895669E+02 -0.10902851143E+02  0.15550065499E+03  0.18189384009E+03  0.00000000000E+00 0.  1.
         12    1    6    6    0    0  0.36112658190E+01 -0.21195398940E+02  0.10749502221E+03  0.10962420342E+03  0.00000000000E+00 0. -1.
         -5    1    3    3    0  503  0.16943149728E+03  0.13676736301E+03  0.14940802109E+03  0.26411586590E+03  0.47000000000E+01 0.  1.
         11    1    4    4    0    0 -0.24569826174E+01  0.25825733530E+02  0.18147444285E+02  0.31659674825E+02  0.00000000000E+00 0. -1.
        -12    1    4    4    0    0  0.83372278208E+02 -0.22560533080E+01  0.15148190680E+03  0.17292424537E+03  0.00000000000E+00 0.  1.
</event>
<event>
12    1  0.8449700E-002  0.2550026E+03  0.7818608E-02  0.1111601E+00
         21   -1    0    0  503  502  0.00000000000E+00  0.00000000000E+00  0.15140846664E+04  0.15140846664E+04  0.00000000000E+00 0.  1.
         21   -1    0    0  501  503 -0.00000000000E+00 -0.00000000000E+00 -0.92801855019E+02  0.92801855019E+02  0.00000000000E+00 0. -1.
          6    2    1    2  501    0 -0.14630225614E+03  0.97203294625E+02  0.11868810219E+03  0.28127068035E+03  0.18486075675E+03 0.  0.
         24    2    3    3    0    0 -0.10883858019E+03 -0.10462707487E+01  0.11250557063E+03  0.17583435925E+03  0.80083002237E+02 0.  0.
         -6    2    1    2    0  502  0.14630225614E+03 -0.97203294625E+02  0.13025947092E+04  0.13256158410E+04  0.17219625732E+03 0.  0.
        -24    2    5    5    0    0  0.46641274684E+01 -0.28721851352E+02  0.36109971999E+03  0.37105522368E+03  0.80263767765E+02 0.  0.
          5    1    3    3  501    0 -0.37463675950E+02  0.98249565374E+02  0.61825315561E+01  0.10543632111E+03  0.47000000000E+01 0. -1.
        -13    1    4    4    0    0 -0.39955334193E+02  0.30649401469E+02  0.77249031301E+02  0.92212945826E+02  0.00000000000E+00 0.  1.
         14    1    4    4    0    0 -0.68883246001E+02 -0.31695672218E+02  0.35256539332E+02  0.83621413422E+02  0.00000000000E+00 0. -1.
         -5    1    5    5    0  502  0.14163812868E+03 -0.68481443272E+02  0.94149498918E+03  0.95456061737E+03  0.47000000000E+01 0.  1.
         11    1    6    6    0    0  0.43038465354E+01  0.21698637269E+01  0.31794797960E+03  0.31798451084E+03  0.00000000000E+00 0. -1.
        -12    1    6    6    0    0  0.36028093299E+00 -0.30891715079E+02  0.43151740392E+02  0.53070712844E+02  0.00000000000E+00 0.  1.
</event>
<event>
12    1  0.8449700E-002  0.2095195E+03  0.7818608E-02  0.1142008E+00
         21   -1    0    0  501  502  0.00000000000E+00  0.00000000000E+00  0.14748815777E+04  0.14748815777E+04  0.00000000000E+00 0. -1.
         21   -1    0    0  502  503 -0.00000000000E+00 -0.00000000000E+00 -0.43342626699E+02  0.43342626699E+02  0.00000000000E+00 0.  1.
         -6    2    1    2    0  503 -0.70592855870E+02  0.96470217572E+02  0.28983450694E+03  0.35745401023E+03  0.17169587601E+03 0.  0.
        -24    2    3    3    0    0 -0.25345017091E+02  0.39338700421E+02  0.26313954086E+03  0.27969741321E+03  0.82451935992E+02 0.  0.
          6    2    1    2  501    0  0.70592855870E+02 -0.96470217572E+02  0.11417044441E+04  0.11607701942E+04  0.17207135700E+03 0.  0.
         24    2    5    5    0    0  0.85417040077E+02 -0.21401667927E+02  0.47230104228E+03  0.48699126314E+03  0.79612271092E+02 0.  0.
          5    1    5    5  501    0 -0.14824184207E+02 -0.75068549645E+02  0.66940340179E+03  0.67377893103E+03  0.47000000000E+01 0. -1.
        -11    1    6    6    0    0  0.15923129365E+02  0.18933918936E+02  0.38164850841E+02  0.45481811472E+02  0.00000000000E+00 0.  1.
         12    1    6    6    0    0  0.69493910712E+02 -0.40335586863E+02  0.43413619144E+03  0.44150945166E+03  0.00000000000E+00 0. -1.
         -5    1    3    3    0  503 -0.45247838779E+02  0.57131517151E+02  0.26694966075E+02  0.77756597018E+02  0.47000000000E+01 0.  1.
         11    1    4    4    0    0  0.27161092844E+02 -0.24595500624E+01  0.64563558800E+02  0.70087284694E+02  0.00000000000E+00 0. -1.
        -12    1    4    4    0    0 -0.52506109935E+02  0.41798250484E+02  0.19857598206E+03  0.20961012851E+03  0.00000000000E+00 0.  1.
</event>
<event>
12    1  0.8449700E-002  0.1984271E+03  0.7818608E-02  0.1151324E+00
         21   -1    0    0  503  502  0.00000000000E+00  0.00000000000E+00  0.38053685895E+03  0.38053685895E+03  0.00000000000E+00 0. -1.
         21   -1    0    0  501  503 -0.00000000000E+00 -0.00000000000E+00 -0.10285955948E+03  0.10285955948E+03  0.00000000000E+00 0. -1.
          6    2    1    2  501    0 -0.28604491975E+01  0.10166695311E+03  0.13778284278E+03  0.24157278641E+03  0.17037883626E+03 0.  0.
         24    2    3    3    0    0  0.50156557589E+02  0.52224545940E+02  0.12980196866E+03  0.16848968995E+03  0.79354527814E+02 0.  0.
         -6    2    1    2    0  502  0.28604491975E+01 -0.10166695311E+03  0.13989445669E+03  0.24182363203E+03  0.16900845680E+03 0.  0.
        -24    2    5    5    0    0 -0.27707990186E+02 -0.39844921376E+02  0.10127967375E+02  0.94793618618E+02  0.80795444970E+02 0.  0.
          5    1    3    3  501    0 -0.53017006786E+02  0.49442407174E+02  0.79808741175E+01  0.73083096455E+02  0.47000000000E+01 0. -1.
        -13    1    4    4    0    0 -0.13363963922E+02 -0.45793152762E+00  0.56661884445E+02  0.58218333726E+02  0.00000000000E+00 0.  1.
         14    1    4    4    0    0  0.63520521510E+02  0.52682477467E+02  0.73140084215E+02  0.11027135623E+03  0.00000000000E+00 0. -1.
         -5    1    5    5    0  502  0.30568439384E+02 -0.61822031739E+02  0.12976648931E+03  0.14703001341E+03  0.47000000000E+01 0.  1.
         11    1    6    6    0    0 -0.52130324237E+02 -0.11807079747E+02  0.18714299194E+02  0.56632171347E+02  0.00000000000E+00 0. -1.
        -12    1    6    6    0    0  0.24422334051E+02 -0.28037841628E+02 -0.85863318195E+01  0.38161447270E+02  0.00000000000E+00 0.  1.
</event>
<event>
12    1  0.8449700E-002  0.2039641E+03  0.7818608E-02  0.1146476E+00
         21   -1    0    0  503  502  0.00000000000E+00  0.00000000000E+00  0.14435501867E+04  0.14435501867E+04  0.00000000000E+00 0.  1.
         21   -1    0    0  501  503 -0.00000000000E+00 -0.00000000000E+00 -0.33290557706E+02  0.33290557706E+02  0.00000000000E+00 0. -1.
          6    2    1    2  501    0 -0.10941820446E+03  0.50427580855E+01  0.43397276279E+03  0.47951403009E+03  0.17205688984E+03 0.  0.
         24    2    3    3    0    0 -0.12147478221E+03  0.48133169025E+02  0.27300048184E+03  0.31237244396E+03  0.77293958286E+02 0.  0.
         -6    2    1    2    0  502  0.10941820446E+03 -0.50427580855E+01  0.97628686617E+03  0.99732671427E+03  0.17183351559E+03 0.  0.
        -24    2    5    5    0    0  0.47684948966E+01  0.15008533472E+02  0.61633338196E+03  0.62190399680E+03  0.81545992513E+02 0.  0.
          5    1    3    3  501    0  0.12056577752E+02 -0.43090410939E+02  0.16097228095E+03  0.16714158613E+03  0.47000000000E+01 0. -1.
        -13    1    4    4    0    0 -0.24470425078E+02  0.31232336116E+02  0.14812064356E+03  0.15334270629E+03  0.00000000000E+00 0.  1.
         14    1    4    4    0    0 -0.97004357129E+02  0.16900832909E+02  0.12487983828E+03  0.15902973767E+03  0.00000000000E+00 0. -1.
         -5    1    5    5    0  502  0.10464970956E+03 -0.20051291558E+02  0.35995348421E+03  0.37542271748E+03  0.47000000000E+01 0.  1.
         11    1    6    6    0    0 -0.82269675649E+01 -0.27959541876E+02  0.11772751202E+03  0.12128143331E+03  0.00000000000E+00 0. -1.
        -12    1    6    6    0    0  0.12995462461E+02  0.42968075348E+02  0.49860586994E+03  0.50062256349E+03  0.00000000000E+00 0.  1.
</event>
<event>
12    1  0.8449700E-002  0.3250118E+03  0.7818608E-02  0.1074156E+00
         21   -1    0    0  501  502  0.00000000000E+00  0.00000000000E+00  0.14567167811E+03  0.14567167811E+03  0.00000000000E+00 0. -1.
         21   -1    0    0  502  503 -0.00000000000E+00 -0.00000000000E+00 -0.72321948500E+03  0.72321948500E+03  0.00000000000E+00 0.  1.
         -6    2    1    2    0  503 -0.24763382574E+03  0.95447542779E+02 -0.35105701035E+03  0.47840746719E+03  0.18761645735E+03 0.  0.
        -24    2    3    3    0    0 -0.63238162102E+02 -0.21642031858E+02 -0.89918775519E+02  0.13792692891E+03  0.80442580997E+02 0.  0.
          6    2    1    2  501    0  0.24763382574E+03 -0.95447542779E+02 -0.22649079653E+03  0.39048369592E+03  0.17534734329E+03 0.  0.
         24    2    5    5    0    0  0.14066888928E+03 -0.25029570125E+02 -0.20540490446E+03  0.26061109162E+03  0.72888617128E+02 0.  0.
          5    1    5    5  501    0  0.10696493646E+03 -0.70417972654E+02 -0.21085892070E+02  0.12987260431E+03  0.47000000000E+01 0. -1.
        -13    1    6    6    0    0  0.11640525090E+03 -0.23871844395E+02 -0.10918909376E+03  0.16137628570E+03  0.00000000000E+00 0.  1.
         14    1    6    6    0    0  0.24263638379E+02 -0.11577257296E+01 -0.96215810699E+02  0.99234805914E+02  0.00000000000E+00 0. -1.
         -5    1    3    3    0  503 -0.18439566363E+03  0.11708957464E+03 -0.26113823483E+03  0.34048053828E+03  0.47000000000E+01 0.  1.
         13    1    4    4    0    0  0.13458928759E+02 -0.22772070549E+01  0.48464892540E+01  0.14485057591E+02  0.00000000000E+00 0. -1.
        -14    1    4    4    0    0 -0.76697090861E+02 -0.19364824803E+02 -0.94765264773E+02  0.12344187132E+03  0.00000000000E+00 0.  1.
</event>
<event>
12    1  0.8449700E-002  0.2267250E+03  0.7818608E-02  0.1129441E+00
         21   -1    0    0  503  502  0.00000000000E+00  0.00000000000E+00  0.13466441261E+03  0.13466441261E+03  0.00000000000E+00 0. -1.
         21   -1    0    0  501  503 -0.00000000000E+00 -0.00000000000E+00 -0.38852649286E+03  0.38852649286E+03  0.00000000000E+00 0. -1.
          6    2    1    2  501    0 -0.87477800521E+02 -0.11877742808E+03 -0.83193749757E+02  0.24150653381E+03  0.17217364162E+03 0.  0.
         24    2    3    3    0    0 -0.85184058779E+02 -0.12088623453E+02 -0.54540784267E+02  0.13091338431E+03  0.82226263179E+02 0.  0.
         -6    2    1    2    0  502  0.87477800521E+02  0.11877742808E+03 -0.17066833049E+03  0.28168437167E+03  0.16869488198E+03 0.  0.
        -24    2    5    5    0    0  0.18473562664E+01  0.84721830004E+02 -0.44451337952E+02  0.12533484033E+03  0.80942569463E+02 0.  0.
          5    1    3    3  501    0 -0.22937417416E+01 -0.10668880463E+03 -0.28652965490E+02  0.11059314949E+03  0.47000000000E+01 0. -1.
        -13    1    4    4    0    0 -0.21539705055E+02 -0.10025220067E+02  0.21283356906E+02  0.31897417018E+02  0.00000000000E+00 0.  1.
         14    1    4    4    0    0 -0.63644353724E+02 -0.20634033862E+01 -0.75824141172E+02  0.99015967293E+02  0.00000000000E+00 0. -1.
         -5    1    5    5    0  502  0.85630444254E+02  0.34055598076E+02 -0.12621699254E+03  0.15634953134E+03  0.47000000000E+01 0.  1.
         11    1    6    6    0    0  0.19507655462E+02  0.48584225039E+02  0.14173120503E+02  0.54238850366E+02  0.00000000000E+00 0. -1.
        -12    1    6    6    0    0 -0.17660299195E+02  0.36137604965E+02 -0.58624458455E+02  0.71095989967E+02  0.00000000000E+00 0.  1.
</event>
<event>
12    1  0.8449700E-002  0.2079640E+03  0.7818608E-02  0.1144141E+00
         21   -1    0    0  503  502  0.00000000000E+00  0.00000000000E+00  0.36132968844E+03  0.36132968844E+03  0.00000000000E+00 0. -1.
         21   -1    0    0  501  503 -0.00000000000E+00 -0.00000000000E+00 -0.13381785292E+03  0.13381785292E+03  0.00000000000E+00 0. -1.
          6    2    1    2  501    0 -0.74825958432E+02 -0.81897700971E+02  0.27152674691E+02  0.20972910907E+03  0.17590586678E+03 0.  0.
         24    2    3    3    0    0 -0.98077073114E+02 -0.44673762851E+02 -0.27846339500E+02  0.13920806636E+03  0.83597905226E+02 0.  0.
         -6    2    1    2    0  502  0.74825958432E+02  0.81897700971E+02  0.20035916083E+03  0.28541843229E+03  0.17033417357E+03 0.  0.
        -24    2    5    5    0    0  0.99561884047E+02  0.10682461874E+03  0.16530424109E+03  0.23557713774E+03  0.82746768985E+02 0.  0.
          5    1    3    3  501    0  0.23251114681E+02 -0.37223938119E+02  0.54999014192E+02  0.70521042711E+02  0.47000000000E+01 0. -1.
        -13    1    4    4    0    0 -0.92299443562E+02 -0.54919469284E+02  0.16897715548E+01  0.10741597049E+03  0.00000000000E+00 0.  1.
         14    1    4    4    0    0 -0.57776295516E+01  0.10245706433E+02 -0.29536111055E+02  0.31792095870E+02  0.00000000000E+00 0. -1.
         -5    1    5    5    0  502 -0.24735925614E+02 -0.24926917771E+02  0.35054919733E+02  0.49841294556E+02  0.47000000000E+01 0.  1.
         13    1    6    6    0    0  0.71012802370E+02  0.52813693145E+02  0.14738034470E+03  0.17191006454E+03  0.00000000000E+00 0. -1.
        -14    1    6    6    0    0  0.28549081677E+02  0.54010925597E+02  0.17923896391E+02  0.63667073203E+02  0.00000000000E+00 0.  1.
</event>
<event>
12    1  0.8449700E-002  0.2509592E+03  0.7818608E-02  0.1112982E+00
         21   -1    0    0  501  502  0.00000000000E+00  0.00000000000E+00  0.13462317569E+03  0.13462317569E+03  0.00000000000E+00 0.  1.
         21   -1    0    0  502  503 -0.00000000000E+00 -0.00000000000E+00 -0.50026018774E+03  0.50026018774E+03  0.00000000000E+00 0.  1.
         -6    2    1    2    0  503  0.10085980870E+03  0.15157376688E+03 -0.26707772030E+03  0.36526428618E+03  0.17011814205E+03 0.  0.
        -24    2    3    3    0    0 -0.93266552220E+00  0.46475725612E+02 -0.56109453689E+02  0.10848226654E+03  0.80369574001E+02 0.  0.
          6    2    1    2  501    0 -0.10085980870E+03 -0.15157376688E+03 -0.98559291747E+02  0.26961907726E+03  0.17272291398E+03 0.  0.
         24    2    5    5    0    0 -0.10793987454E+03 -0.12715353560E+03 -0.19441305493E+02  0.18638314285E+03  0.80880612321E+02 0.  0.
          5    1    5    5  501    0  0.70800658334E+01 -0.24420231288E+02 -0.79117986254E+02  0.83235934411E+02  0.47000000000E+01 0. -1.
        -11    1    6    6    0    0 -0.12538066285E+02 -0.70156930698E+02  0.85542924154E+01  0.71780038659E+02  0.00000000000E+00 0.  1.
         12    1    6    6    0    0 -0.95401808253E+02 -0.56996604897E+02 -0.27995597908E+02  0.11460310419E+03  0.00000000000E+00 0. -1.
         -5    1    3    3    0  503  0.10179247423E+03  0.10509804127E+03 -0.21096826662E+03  0.25678201963E+03  0.47000000000E+01 0.  1.
         11    1    4    4    0    0 -0.39156002270E+02  0.10953951509E+02 -0.24033122016E+02  0.47231054628E+02  0.00000000000E+00 0. -1.
        -12    1    4    4    0    0  0.38223336748E+02  0.35521774103E+02 -0.32076331672E+02  0.61251211916E+02  0.00000000000E+00 0.  1.
</event>
<event>
12    1  0.8449700E-002  0.2267678E+03  0.7818608E-02  0.1129116E+00
         21   -1    0    0  501  502  0.00000000000E+00  0.00000000000E+00  0.25332735813E+03  0.25332735813E+03  0.00000000000E+00 0. -1.
         21   -1    0    0  502  503 -0.00000000000E+00 -0.00000000000E+00 -0.25719952102E+03  0.25719952102E+03  0.00000000000E+00 0.  1.
         -6    2    1    2    0  503  0.23575152142E+02 -0.14553478307E+03 -0.12008586375E+03  0.25571466328E+03  0.17097723083E+03 0.  0.
        -24    2    3    3    0    0 -0.33613424621E+02 -0.10251187843E+03 -0.21859337780E+02  0.13409211587E+03  0.76578830985E+02 0.  0.
          6    2    1    2  501    0 -0.23575152142E+02  0.14553478307E+03  0.11621370086E+03  0.25481221587E+03  0.17230055196E+03 0.  0.
         24    2    5    5    0    0  0.20391233904E+02  0.31751436707E+02  0.98979112342E+02  0.13152874555E+03  0.77967878476E+02 0.  0.
          5    1    5    5  501    0 -0.43966386046E+02  0.11378334637E+03  0.17234588522E+02  0.12328347032E+03  0.47000000000E+01 0.  1.
        -13    1    6    6    0    0 -0.29162296179E+01 -0.19391434500E+02  0.23589074251E+01  0.19750862548E+02  0.00000000000E+00 0.  1.
         14    1    6    6    0    0  0.23307463522E+02  0.51142871208E+02  0.96620204917E+02  0.11177788301E+03  0.00000000000E+00 0. -1.
         -5    1    3    3    0  503  0.57188576763E+02 -0.43022904642E+02 -0.98226525970E+02  0.12162254742E+03  0.47000000000E+01 0.  1.
         11    1    4    4    0    0 -0.39944942044E+02 -0.69585579834E+02  0.17771690194E+02  0.82180194013E+02  0.00000000000E+00 0. -1.
        -12    1    4    4    0    0  0.63315174235E+01 -0.32926298598E+02 -0.39631027974E+02  0.51911921853E+02  0.00000000000E+00 0.  1.
</event>
<event>
12    1  0.8449700E-002  0.1826084E+03  0.7818608E-02  0.1165467E+00
         21   -1    0    0  503  502  0.00000000000E+00  0.00000000000E+00  0.34869608903E+02  0.34869608903E+02  0.00000000000E+00 0. -1.
         21   -1    0    0  501  503 -0.00000000000E+00 -0.00000000000E+00 -0.18613246539E+04  0.18613246539E+04  0.00000000000E+00 0. -1.
          6    2    1    2  501    0  0.60382890619E+02  0.31376924461E+01 -0.15765393305E+04  0.15870797328E+04  0.17230751323E+03 0.  0.
         24    2    3    3    0    0  0.18168822809E+02  0.31120806935E+02 -0.40095760247E+03  0.41039813974E+03  0.79756024068E+02 0.  0.
         -6    2    1    2    0  502 -0.60382890619E+02 -0.31376924461E+01 -0.24991571455E+03  0.30911453003E+03  0.17157502647E+03 0.  0.
        -24    2    5    5    0    0 -0.93766184403E+02 -0.89261480646E+01 -0.88964021434E+02  0.14456822033E+03  0.64137350754E+02 0.  0.
          5    1    3    3  501    0  0.42214067810E+02 -0.27983114489E+02 -0.11755817280E+04  0.11766815931E+04  0.47000000000E+01 0. -1.
        -11    1    4    4    0    0 -0.20754888112E+02  0.17929384926E+02 -0.30203733782E+03  0.30328003835E+03  0.00000000000E+00 0.  1.
         12    1    4    4    0    0  0.38923710921E+02  0.13191422009E+02 -0.98920264654E+02  0.10711810139E+03  0.00000000000E+00 0. -1.
         -5    1    5    5    0  502  0.33383293784E+02  0.57884556185E+01 -0.16095169311E+03  0.16454630971E+03  0.47000000000E+01 0.  1.
         11    1    6    6    0    0 -0.64583562593E+02  0.53641256898E+01 -0.19171390983E+02  0.67582191691E+02  0.00000000000E+00 0. -1.
        -12    1    6    6    0    0 -0.29182621810E+02 -0.14290273754E+02 -0.69792630451E+02  0.76986028635E+02  0.00000000000E+00 0.  1.
</event>
<event>
12    1  0.8449700E-002  0.1741774E+03  0.7818608E-02  0.1174548E+00
         21   -1    0    0  501  502  0.00000000000E+00  0.00000000000E+00  0.57347288711E+03  0.57347288711E+03  0.00000000000E+00 0.  1.
         21   -1    0    0  502  503 -0.00000000000E+00 -0.00000000000E+00 -0.52550799841E+02  0.52550799841E+02  0.00000000000E+00 0.  1.
         -6    2    1    2    0  503 -0.87376809037E+01 -0.10872743835E+02  0.22433464791E+03  0.28401370540E+03  0.17361793392E+03 0.  0.
        -24    2    3    3    0    0 -0.46602105248E+02  0.10104455551E+02  0.21804934248E+03  0.24002106296E+03  0.88265161143E+02 0.  0.
          6    2    1    2  501    0  0.87376809037E+01  0.10872743835E+02  0.29658743936E+03  0.34200998155E+03  0.16974143474E+03 0.  0.
         24    2    5    5    0    0  0.69643436690E+02 -0.81950840871E+01  0.17697042633E+03  0.20635080215E+03  0.79653964587E+02 0.  0.
          5    1    5    5  501    0 -0.60905755786E+02  0.19067827922E+02  0.11961701304E+03  0.13565917941E+03  0.47000000000E+01 0. -1.
        -13    1    6    6    0    0  0.13267499806E+02 -0.39351930065E+02  0.63536975820E+02  0.75904863133E+02  0.00000000000E+00 0.  1.
         14    1    6    6    0    0  0.56375936884E+02  0.31156845978E+02  0.11343345051E+03  0.13044593901E+03  0.00000000000E+00 0. -1.
         -5    1    3    3    0  503  0.37864424344E+02 -0.20977199386E+02  0.62853054286E+01  0.43992642445E+02  0.47000000000E+01 0.  1.
         13    1    4    4    0    0 -0.14356216947E+02 -0.38259449893E+02  0.71324459999E+02  0.82201368999E+02  0.00000000000E+00 0. -1.
        -14    1    4    4    0    0 -0.32245888301E+02  0.48363905444E+02  0.14672488248E+03  0.15781969396E+03  0.00000000000E+00 0.  1.
</event>
<event>
12    1  0.8449700E-002  0.2526928E+03  0.7818608E-02  0.1111711E+00
         21   -1    0    0  501  502  0.00000000000E+00  0.00000000000E+00  0.11267078223E+03  0.11267078223E+03  0.00000000000E+00 0.  1.
         21   -1    0    0  502  503 -0.00000000000E+00 -0.00000000000E+00 -0.66659092879E+03  0.66659092879E+03  0.00000000000E+00 0.  1.
         -6    2    1    2    0  503 -0.13746003876E+03  0.12298766020E+03 -0.42909921028E+03  0.49797569810E+03  0.17272069019E+03 0.  0.
        -24    2    3    3    0    0 -0.51417604794E+02  0.85091829875E+02 -0.35650072456E+03  0.37909750612E+03  0.82083877494E+02 0.  0.
          6    2    1    2  501    0  0.13746003876E+03 -0.12298766020E+03 -0.12482093627E+03  0.28128601292E+03  0.17181480761E+03 0.  0.
         24    2    5    5    0    0  0.22378777513E+02 -0.34054058624E+02  0.57637733817E+00  0.89193695422E+02  0.79339110787E+02 0.  0.
          5    1    5    5  501    0  0.11508126125E+03 -0.88933601576E+02 -0.12539731361E+03  0.19209231750E+03  0.47000000000E+01 0. -1.
        -11    1    6    6    0    0  0.33566263573E+02 -0.69518164750E+01 -0.30919047142E+02  0.46162856050E+02  0.00000000000E+00 0.  1.
         12    1    6    6    0    0 -0.11187486060E+02 -0.27102242149E+02  0.31495424480E+02  0.43030839371E+02  0.00000000000E+00 0. -1.
         -5    1    3    3    0  503 -0.86042433969E+02  0.37895830325E+02 -0.72598485720E+02  0.11887819198E+03  0.47000000000E+01 0.  1.
         11    1    4    4    0    0 -0.11587156429E+02 -0.38217149692E+01 -0.32060922228E+01  0.12615336966E+02  0.00000000000E+00 0. -1.
        -12    1    4    4    0    0 -0.39830448365E+02  0.88913544844E+02 -0.35329463233E+03  0.36648216916E+03  0.00000000000E+00 0.  1.
</event>
<event>
12    1  0.8449700E-002  0.1860952E+03  0.7818608E-02  0.1162204E+00
         21   -1    0    0  503  502  0.00000000000E+00  0.00000000000E+00  0.34547918385E+02  0.34547918385E+02  0.00000000000E+00 0. -1.
         21   -1    0    0  501  503 -0.00000000000E+00 -0.00000000000E+00 -0.10762826508E+04  0.10762826508E+04  0.00000000000E+00 0.  1.
          6    2    1    2  501    0 -0.43371594151E+02  0.51909027373E+02 -0.37050379766E+03  0.41428021116E+03  0.17256705068E+03 0.  0.
         24    2    3    3    0    0  0.19364016827E+02  0.48524978990E+02 -0.31928372930E+03  0.33308418866E+03  0.79204407740E+02 0.  0.
         -6    2    1    2    0  502  0.43371594151E+02 -0.51909027373E+02 -0.67123093478E+03  0.69655035805E+03  0.17336606122E+03 0.  0.
        -24    2    5    5    0    0  0.37921501774E+02  0.26456509562E+02 -0.23107329571E+03  0.24941313289E+03  0.81694893799E+02 0.  0.
          5    1    3    3  501    0 -0.62735610978E+02  0.33840483829E+01 -0.51220068359E+02  0.81196022507E+02  0.47000000000E+01 0. -1.
        -11    1    4    4    0    0 -0.30789245726E+02  0.19191760841E+02 -0.10647880760E+03  0.11249016759E+03  0.00000000000E+00 0.  1.
         12    1    4    4    0    0  0.50153262553E+02  0.29333218149E+02 -0.21280492169E+03  0.22059402106E+03  0.00000000000E+00 0. -1.
         -5    1    5    5    0  502  0.54500923769E+01 -0.78365536935E+02 -0.44015763907E+03  0.44713722516E+03  0.47000000000E+01 0.  1.
         13    1    6    6    0    0  0.10526189988E+02 -0.28865213726E+02 -0.57589452640E+02  0.65272860321E+02  0.00000000000E+00 0. -1.
        -14    1    6    6    0    0  0.27395311786E+02  0.55321723288E+02 -0.17348384307E+03  0.18414027257E+03  0.00000000000E+00 0.  1.
</event>
<event>
12    1  0.8449700E-002  0.1966008E+03  0.7818608E-02  0.1152800E+00
         21   -1    0    0  503  502  0.00000000000E+00  0.00000000000E+00  0.21971898889E+03  0.21971898889E+03  0.00000000000E+00 0.  1.
         21   -1    0    0  501  503 -0.00000000000E+00 -0.00000000000E+00 -0.23045371608E+03  0.23045371608E+03  0.00000000000E+00 0.  1.
          6    2    1    2  501    0  0.61215383142E+02 -0.74076851770E+02 -0.11552551196E+03  0.22738811776E+03  0.17065904337E+03 0.  0.
         24    2    3    3    0    0  0.58821396006E+02 -0.38475801169E+02 -0.14589097559E+03  0.18029971834E+03  0.79268327670E+02 0.  0.
         -6    2    1    2    0  502 -0.61215383142E+02  0.74076851770E+02  0.10479078477E+03  0.22278458722E+03  0.17151431610E+03 0.  0.
        -24    2    5    5    0    0  0.27338668913E+02  0.30163129042E+02  0.81153848904E+02  0.12104457583E+03  0.80053887947E+02 0.  0.
          5    1    3    3  501    0  0.23939871360E+01 -0.35601050601E+02  0.30365463633E+02  0.47088399420E+02  0.47000000000E+01 0. -1.
        -13    1    4    4    0    0  0.66181822201E+02 -0.51119331981E+01 -0.66932666398E+02  0.94266363471E+02  0.00000000000E+00 0.  1.
         14    1    4    4    0    0 -0.73604261956E+01 -0.33363867971E+02 -0.78958309191E+02  0.86033354869E+02  0.00000000000E+00 0. -1.
         -5    1    5    5    0  502 -0.88554052055E+02  0.43913722728E+02  0.23636935861E+02  0.10174001138E+03  0.47000000000E+01 0.  1.
         13    1    6    6    0    0 -0.14281245619E+02 -0.14332259095E+02  0.85891555377E+00  0.20251058321E+02  0.00000000000E+00 0. -1.
        -14    1    6    6    0    0  0.41619914532E+02  0.44495388137E+02  0.80294933350E+02  0.10079351751E+03  0.00000000000E+00 0.  1.
</event>
<event>
12    1  0.8449700E-002  0.1755406E+03  0.7818608E-02  0.1172310E+00
         21   -1    0    0  503  502  0.00000000000E+00  0.00000000000E+00  0.72551808420E+03  0.72551808420E+03  0.00000000000E+00 0. -1.
         21   -1    0    0  501  503 -0.00000000000E+00 -0.00000000000E+00 -0.16245558973E+03  0.16245558973E+03  0.00000000000E+00 0. -1.
          6    2    1    2  501    0 -0.24175650358E+02 -0.25640662968E+02 -0.10011279078E+03  0.20208181330E+03  0.17196680703E+03 0.  0.
         24    2    3    3    0    0  0.44683955031E+02 -0.34181135840E+02 -0.25397039729E+02  0.10000773046E+03  0.78686279878E+02 0.  0.
         -6    2    1    2    0  502  0.24175650358E+02  0.25640662968E+02  0.66317528525E+03  0.68589186064E+03  0.17147676188E+03 0.  0.
        -24    2    5    5    0    0 -0.11735257071E+02 -0.49278801524E+02  0.34512173181E+03  0.35713256832E+03  0.76606429566E+02 0.  0.
          5    1    3    3  501    0 -0.68859605389E+02  0.85404728720E+01 -0.74715751048E+02  0.10207408283E+03  0.47000000000E+01 0. -1.
        -13    1    4    4    0    0  0.51622327940E+01  0.21400591156E+02  0.88072072865E+01  0.23710774965E+02  0.00000000000E+00 0.  1.
         14    1    4    4    0    0  0.39521722237E+02 -0.55581726996E+02 -0.34204247015E+02  0.76296955499E+02  0.00000000000E+00 0. -1.
         -5    1    5    5    0  502  0.35910907429E+02  0.74919464492E+02  0.31805355344E+03  0.32875929232E+03  0.47000000000E+01 0.  1.
         11    1    6    6    0    0 -0.72502204434E+01 -0.63032348488E+01  0.27220790620E+03  0.27237738648E+03  0.00000000000E+00 0. -1.
        -12    1    6    6    0    0 -0.44850366274E+01 -0.42975566675E+02  0.72913825608E+02  0.84755181843E+02  0.00000000000E+00 0.  1.
</event>
<event>
12    1  0.8449700E-002  0.1763843E+03  0.7818608E-02  0.1171941E+00
         21   -1    0    0  501  502  0.00000000000E+00  0.00000000000E+00  0.16255631865E+03  0.16255631865E+03  0.00000000000E+00 0. -1.
         21   -1    0    0  502  503 -0.00000000000E+00 -0.00000000000E+00 -0.20575770666E+03  0.20575770666E+03  0.00000000000E+00 0. -1.
         -6    2    1    2    0  503  0.27127738361E+02  0.15884991063E+02 -0.74552851005E+02  0.19149295097E+03  0.17356029370E+03 0.  0.
        -24    2    3    3    0    0 -0.42271805197E+02 -0.20455653392E+02 -0.59577731031E+02  0.11159749864E+03  0.81848374428E+02 0.  0.
          6    2    1    2  501    0 -0.27127738361E+02 -0.15884991063E+02  0.31351463000E+02  0.17682107434E+03  0.17115645173E+03 0.  0.
         24    2    5    5    0    0  0.20973517881E+02  0.28472095174E+02  0.58900197939E+02  0.10567119909E+03  0.80290848448E+02 0.  0.
          5    1    5    5  501    0 -0.48101256242E+02 -0.44357086238E+02 -0.27548734939E+02  0.71149875251E+02  0.47000000000E+01 0. -1.
        -13    1    6    6    0    0  0.14351221168E+02  0.36320607323E+02 -0.63951673300E+01  0.39573251452E+02  0.00000000000E+00 0.  1.
         14    1    6    6    0    0  0.66222967130E+01 -0.78485121483E+01  0.65295365269E+02  0.66097947640E+02  0.00000000000E+00 0. -1.
         -5    1    3    3    0  503  0.69399543558E+02  0.36340644456E+02 -0.14975119974E+02  0.79895452334E+02  0.47000000000E+01 0.  1.
         13    1    4    4    0    0 -0.53356350729E+02  0.15605189014E+02 -0.43501650491E+02  0.70589062062E+02  0.00000000000E+00 0. -1.
        -14    1    4    4    0    0  0.11084545532E+02 -0.36060842406E+02 -0.16076080540E+02  0.41008436573E+02  0.00000000000E+00 0.  1.
</event>
<event>
12    1  0.8449700E-002  0.2062843E+03  0.7818608E-02  0.1145708E+00
         21   -1    0    0  503  502  0.00000000000E+00  0.00000000000E+00  0.38011022212E+02  0.38011022212E+02  0.00000000000E+00 0. -1.
         21   -1    0    0  501  503 -0.00000000000E+00 -0.00000000000E+00 -0.10945606150E+04  0.10945606150E+04  0.00000000000E+00 0. -1.
          6    2    1    2  501    0  0.36682190873E+01 -0.10816090742E+03 -0.56151062901E+03  0.59627248746E+03  0.16892144650E+03 0.  0.
         24    2    3    3    0    0 -0.18527325828E+02 -0.13335880314E+03 -0.36219904118E+03  0.39409737721E+03  0.77438783024E+02 0.  0.
         -6    2    1    2    0  502 -0.36682190873E+01  0.10816090742E+03 -0.49503896381E+03  0.53629914978E+03  0.17561595781E+03 0.  0.
        -24    2    5    5    0    0  0.49115432352E+02  0.41799974654E+02 -0.15590107292E+03  0.18669010199E+03  0.79928005531E+02 0.  0.
          5    1    3    3  501    0  0.22195544915E+02  0.25197895713E+02 -0.19931158783E+03  0.20217511025E+03  0.47000000000E+01 0. -1.
        -11    1    4    4    0    0  0.16479604815E+02 -0.10630653404E+03 -0.21528309285E+03  0.24066463517E+03  0.00000000000E+00 0.  1.
         12    1    4    4    0    0 -0.35006930643E+02 -0.27052269094E+02 -0.14691594833E+03  0.15343274204E+03  0.00000000000E+00 0. -1.
         -5    1    5    5    0  502 -0.52783651439E+02  0.66360932769E+02 -0.33913789090E+03  0.34960904779E+03  0.47000000000E+01 0.  1.
         11    1    6    6    0    0  0.94107216828E+01  0.58275951237E+02 -0.10067941698E+03  0.11670901070E+03  0.00000000000E+00 0. -1.
        -12    1    6    6    0    0  0.39704710669E+02 -0.16475976583E+02 -0.55221655939E+02  0.69981091291E+02  0.00000000000E+00 0.  1.
</event>
<event>
12    1  0.8449700E-002  0.1808126E+03  0.7818608E-02  0.1167272E+00
         21   -1    0    0  501  502  0.00000000000E+00  0.00000000000E+00  0.58190316543E+03  0.58190316543E+03  0.00000000000E+00 0. -1.
         21   -1    0    0  502  503 -0.00000000000E+00 -0.00000000000E+00 -0.70097690877E+02  0.70097690877E+02  0.00000000000E+00 0. -1.
         -6    2    1    2    0  503 -0.39635259159E+01  0.52592485306E+02  0.10837898047E+03  0.20990796300E+03  0.17185363097E+03 0.  0.
        -24    2    3    3    0    0  0.16683128818E+02  0.69032881443E+02  0.11120600055E+02  0.10902261452E+03  0.81965829615E+02 0.  0.
          6    2    1    2  501    0  0.39635259159E+01 -0.52592485306E+02  0.40342649408E+03  0.44209289330E+03  0.17294944676E+03 0.  0.
         24    2    5    5    0    0  0.37453710255E+02  0.28260086524E+02  0.19150792839E+03  0.21276714398E+03  0.79957226179E+02 0.  0.
          5    1    5    5  501    0 -0.33490184339E+02 -0.80852571830E+02  0.21191856569E+03  0.22932574932E+03  0.47000000000E+01 0. -1.
        -13    1    6    6    0    0  0.35930574642E+02  0.23273333415E+02  0.19904815697E+03  0.20359966365E+03  0.00000000000E+00 0.  1.
         14    1    6    6    0    0  0.15231356123E+01  0.49867531094E+01 -0.75402285797E+01  0.91674803355E+01  0.00000000000E+00 0. -1.
         -5    1    3    3    0  503 -0.20646654734E+02 -0.16440396137E+02  0.97258380415E+02  0.10088534848E+03  0.47000000000E+01 0.  1.
         11    1    4    4    0    0  0.27288927541E+02  0.40813510425E+02  0.42914937179E+02  0.65208281933E+02  0.00000000000E+00 0. -1.
        -12    1    4    4    0    0 -0.10605798722E+02  0.28219371017E+02 -0.31794337124E+02  0.43814332590E+02  0.00000000000E+00 0.  1.
</event>
<event>
12    1  0.8449700E-002  0.1869462E+03  0.7818608E-02  0.1161542E+00
         21   -1    0    0  503  502  0.00000000000E+00  0.00000000000E+00  0.25419265344E+03  0.25419265344E+03  0.00000000000E+00 0.  1.
         21   -1    0    0  501  503 -0.00000000000E+00 -0.00000000000E+00 -0.14391839586E+03  0.14391839586E+03  0.00000000000E+00 0.  1.
          6    2    1    2  501    0 -0.72076157437E+02 -0.50044542452E+01  0.10000677264E+03  0.21088313957E+03  0.17102726960E+03 0.  0.
         24    2    3    3    0    0 -0.10588674324E+03  0.63481343961E+01  0.37718590694E+02  0.13895300269E+03  0.81442885919E+02 0.  0.
         -6    2    1    2    0  502  0.72076157437E+02  0.50044542452E+01  0.10267484942E+02  0.18722790973E+03  0.17242056693E+03 0.  0.
        -24    2    5    5    0    0  0.94228626373E+02 -0.36122833079E+02  0.31977575803E+02  0.13550167183E+03  0.84582767840E+02 0.  0.
          5    1    3    3  501    0  0.33810585808E+02 -0.11352588641E+02  0.62288181943E+02  0.71930136878E+02  0.47000000000E+01 0. -1.
        -11    1    4    4    0    0 -0.10124841530E+02 -0.26272326950E+02  0.23736004610E+02  0.36825880767E+02  0.00000000000E+00 0.  1.
         12    1    4    4    0    0 -0.95761901715E+02  0.32620461346E+02  0.13982586083E+02  0.10212712192E+03  0.00000000000E+00 0. -1.
         -5    1    5    5    0  502 -0.22152468936E+02  0.41127287324E+02 -0.21710090861E+02  0.51726237905E+02  0.47000000000E+01 0.  1.
         11    1    6    6    0    0 -0.78788808951E+01 -0.24010402486E+02  0.19509979126E+02  0.31925154302E+02  0.00000000000E+00 0. -1.
        -12    1    6    6    0    0  0.10210750727E+03 -0.12112430593E+02  0.12467596677E+02  0.10357651752E+03  0.00000000000E+00 0.  1.
</event>
<event>
12    1  0.8449700E-002  0.1786453E+03  0.7818608E-02  0.1169238E+00
         21   -1    0    0  503  502  0.00000000000E+00  0.00000000000E+00  0.17074741842E+04  0.17074741842E+04  0.00000000000E+00 0. -1.
         21   -1    0    0  501  503 -0.00000000000E+00 -0.00000000000E+00 -0.28681923019E+02  0.28681923019E+02  0.00000000000E+00 0.  1.
          6    2    1    2  501    0 -0.29809317318E+02  0.39343604712E+02  0.32503241937E+03  0.37065991601E+03  0.17119049351E+03 0.  0.
         24    2    3    3    0    0  0.20885155473E+02  0.61658204862E+02  0.29230179297E+03  0.30615212690E+03  0.63646387853E+02 0.  0.
         -6    2    1    2    0  502  0.29809317318E+02 -0.39343604712E+02  0.13537598418E+04  0.13654961912E+04  0.17169048973E+03 0.  0.
        -24    2    5    5    0    0  0.44154512609E+02 -0.87544037141E+02  0.10488769860E+04  0.10564578246E+04  0.79665700333E+02 0.  0.
          5    1    3    3  501    0 -0.50694472791E+02 -0.22314600150E+02  0.32730626396E+02  0.64507789109E+02  0.47000000000E+01 0. -1.
        -13    1    4    4    0    0 -0.19511717900E+02  0.28425767057E+02  0.16421868595E+03  0.16779901127E+03  0.00000000000E+00 0.  1.
         14    1    4    4    0    0  0.40396873373E+02  0.33232437805E+02  0.12808310702E+03  0.13835311563E+03  0.00000000000E+00 0. -1.
         -5    1    5    5    0  502 -0.14345195292E+02  0.48200432429E+02  0.30488285577E+03  0.30903836664E+03  0.47000000000E+01 0.  1.
         11    1    6    6    0    0 -0.43224581652E-01 -0.72257634556E+01  0.49443027164E+03  0.49448307053E+03  0.00000000000E+00 0. -1.
        -12    1    6    6    0    0  0.44197737191E+02 -0.80318273685E+02  0.55444671441E+03  0.56197475404E+03  0.00000000000E+00 0.  1.
</event>
<event>
12    1  0.8449700E-002  0.2404414E+03  0.7818608E-02  0.1121079E+00
         21   -1    0    0  501  502  0.00000000000E+00  0.00000000000E+00  0.16374337243E+03  0.16374337243E+03  0.00000000000E+00 0. -1.
         21   -1    0    0  502  503 -0.00000000000E+00 -0.00000000000E+00 -0.47095407693E+03  0.47095407693E+03  0.00000000000E+00 0.  1.
         -6    2    1    2    0  503 -0.11393901682E+03 -0.10440713757E+03 -0.32341479708E+03  0.40300025449E+03  0.18419859994E+03 0.  0.
        -24    2    3    3    0    0 -0.74956291900E+02 -0.39128820219E+02 -0.64046520887E+02  0.13267655177E+03  0.79696927696E+02 0.  0.
          6    2    1    2  501    0  0.11393901682E+03  0.10440713757E+03  0.16204092576E+02  0.23169719487E+03  0.17186642361E+03 0.  0.
         24    2    5    5    0    0  0.31036748464E+02  0.10954955307E+03 -0.21335798908E+02  0.14042527154E+03  0.79370373815E+02 0.  0.
          5    1    5    5  501    0  0.82902268353E+02 -0.51424155007E+01  0.37539891484E+02  0.91271923327E+02  0.47000000000E+01 0. -1.
        -13    1    6    6    0    0  0.34563313075E+02  0.40897332136E+02  0.23370164113E+02  0.58424129923E+02  0.00000000000E+00 0.  1.
         14    1    6    6    0    0 -0.35265646112E+01  0.68652220933E+02 -0.44705963021E+02  0.82001141618E+02  0.00000000000E+00 0. -1.
         -5    1    3    3    0  503 -0.38982724917E+02 -0.65278317349E+02 -0.25936827619E+03  0.27032370272E+03  0.47000000000E+01 0.  1.
         13    1    4    4    0    0 -0.71574450316E+02 -0.13369727923E+02 -0.74955785204E+02  0.10449890573E+03  0.00000000000E+00 0. -1.
        -14    1    4    4    0    0 -0.33818415840E+01 -0.25759092296E+02  0.10909264317E+02  0.28177646040E+02  0.00000000000E+00 0.  1.
</event>
<event>
12    1  0.8449700E-002  0.2191855E+03  0.7818608E-02  0.1134628E+00
         21   -1    0    0  503  502  0.00000000000E+00  0.00000000000E+00  0.44459572012E+03  0.44459572012E+03  0.00000000000E+00 0.  1.
         21   -1    0    0  501  503 -0.00000000000E+00 -0.00000000000E+00 -0.14489035129E+03  0.14489035129E+03  0.00000000000E+00 0. -1.
          6    2    1    2  501    0  0.36658958166E+02  0.12957644395E+03  0.29899442877E+03  0.37029944810E+03  0.17201766999E+03 0.  0.
         24    2    3    3    0    0 -0.36693406503E+02  0.96946918198E+02  0.13800300295E+03  0.19033949550E+03  0.80244524388E+02 0.  0.
         -6    2    1    2    0  502 -0.36658958166E+02 -0.12957644395E+03  0.71094006373E+00  0.21918662331E+03  0.17294026818E+03 0.  0.
        -24    2    5    5    0    0 -0.49653328336E+02 -0.87422589714E+02  0.58457808969E+02  0.14636772499E+03  0.88870879835E+02 0.  0.
          5    1    3    3  501    0  0.73352364669E+02  0.32629525757E+02  0.16099142582E+03  0.17995995261E+03  0.47000000000E+01 0. -1.
        -11    1    4    4    0    0 -0.46644325751E+02  0.21376584741E+02  0.34625994970E+02  0.61900008301E+02  0.00000000000E+00 0.  1.
         12    1    4    4    0    0  0.99509192481E+01  0.75570333456E+02  0.10337700798E+03  0.12843948719E+03  0.00000000000E+00 0. -1.
         -5    1    5    5    0  502  0.12994370169E+02 -0.42153854241E+02 -0.57746868906E+02  0.72818898316E+02  0.47000000000E+01 0.  1.
         11    1    6    6    0    0  0.42668109042E+01 -0.12803208799E+02 -0.20862913391E+02  0.24847313457E+02  0.00000000000E+00 0. -1.
        -12    1    6    6    0    0 -0.53920139240E+02 -0.74619380915E+02  0.79320722361E+02  0.12152041154E+03  0.00000000000E+00 0.  1.
</event>
<event>
12    1  0.8449700E-002  0.2633373E+03  0.7818608E-02  0.1105203E+00
         21   -1    0    0  501  502  0.00000000000E+00  0.00000000000E+00  0.22248257481E+03  0.22248257481E+03  0.00000000000E+00 0. -1.
         21   -1    0    0  502  503 -0.00000000000E+00 -0.00000000000E+00 -0.10127307601E+04  0.10127307601E+04  0.00000000000E+00 0.  1.
         -6    2    1    2    0  503  0.18074155249E+03  0.81869487222E+02 -0.90903912233E+03  0.94632269029E+03  0.17263946971E+03 0.  0.
        -24    2    3    3    0    0  0.58465027153E+02  0.68829801374E+02 -0.27079264527E+03  0.29632096911E+03  0.79509490296E+02 0.  0.
          6    2    1    2  501    0 -0.18074155249E+03 -0.81869487222E+02  0.11879093702E+03  0.28889064464E+03  0.17313692878E+03 0.  0.
         24    2    5    5    0    0 -0.15817309620E+03 -0.12853844355E+02  0.39660954208E+02  0.18139116390E+03  0.78395238214E+02 0.  0.
          5    1    5    5  501    0 -0.22568456288E+02 -0.69015642867E+02  0.79129982814E+02  0.10749948074E+03  0.47000000000E+01 0. -1.
        -11    1    6    6    0    0 -0.66139679685E+02  0.22372691539E+02  0.44382675398E+02  0.82733405774E+02  0.00000000000E+00 0.  1.
         12    1    6    6    0    0 -0.92033416518E+02 -0.35226535894E+02 -0.47217211905E+01  0.98657758124E+02  0.00000000000E+00 0. -1.
         -5    1    3    3    0  503  0.12227652534E+03  0.13039685849E+02 -0.63824647706E+03  0.65000172118E+03  0.47000000000E+01 0.  1.
         13    1    4    4    0    0 -0.21822713670E+01  0.17047706685E+01 -0.12305547917E+03  0.12308663414E+03  0.00000000000E+00 0. -1.
        -14    1    4    4    0    0  0.60647298520E+02  0.67125030705E+02 -0.14773716610E+03  0.17323433497E+03  0.00000000000E+00 0.  1.
</event>
<event>
12    1  0.8449700E-002  0.2189145E+03  0.7818608E-02  0.1134843E+00
         21   -1    0    0  501  502  0.00000000000E+00  0.00000000000E+00  0.49023730434E+02  0.49023730434E+02  0.00000000000E+00 0.  1.
         21   -1    0    0  502  503 -0.00000000000E+00 -0.00000000000E+00 -0.13505694019E+04  0.13505694019E+04  0.00000000000E+00 0. -1.
         -6    2    1    2    0  503 -0.13767306392E+03  0.23398433659E+01 -0.10194237436E+04  0.10424988382E+04  0.16917361270E+03 0.  0.
        -24    2    3    3    0    0 -0.41120043984E+02 -0.56192788776E+02 -0.48361922295E+03  0.49490671898E+03  0.78718613774E+02 0.  0.
          6    2    1    2  501    0  0.13767306392E+03 -0.23398433659E+01 -0.28212192787E+03  0.35709429414E+03  0.17018873443E+03 0.  0.
         24    2    5    5    0    0  0.11685067885E+03 -0.61354839936E+02 -0.17903852875E+03  0.23641033201E+03  0.80103388041E+02 0.  0.
          5    1    5    5  501    0  0.20822385072E+02  0.59014996570E+02 -0.10308339912E+03  0.12068396213E+03  0.47000000000E+01 0. -1.
        -11    1    6    6    0    0  0.73652369675E+02 -0.15233375433E+02 -0.43550363602E+02  0.86910076836E+02  0.00000000000E+00 0.  1.
         12    1    6    6    0    0  0.43198309173E+02 -0.46121464503E+02 -0.13548816515E+03  0.14950025518E+03  0.00000000000E+00 0. -1.
         -5    1    3    3    0  503 -0.96553019936E+02  0.58532632142E+02 -0.53580452068E+03  0.54759211925E+03  0.47000000000E+01 0.  1.
         11    1    4    4    0    0 -0.48920833794E+02 -0.15143911909E+02 -0.37581799990E+03  0.37929112182E+03  0.00000000000E+00 0. -1.
        -12    1    4    4    0    0  0.78007898103E+01 -0.41048876867E+02 -0.10780122305E+03  0.11561559715E+03  0.00000000000E+00 0.  1.
</event>
<event>
12    1  0.8449700E-002  0.2012802E+03  0.7818608E-02  0.1149173E+00
         21   -1    0    0  503  502  0.00000000000E+00  0.00000000000E+00  0.27382777864E+02  0.27382777864E+02  0.00000000000E+00 0. -1.
         21   -1    0    0  501  503 -0.00000000000E+00 -0.00000000000E+00 -0.15018006388E+04  0.15018006388E+04  0.00000000000E+00 0. -1.
          6    2    1    2  501    0  0.79225481954E+02 -0.62130952229E+02 -0.61675110620E+03  0.64876469637E+03  0.17428933427E+03 0.  0.
         24    2    3    3    0    0  0.81094715317E+02 -0.43528125247E+02 -0.61760209617E+03  0.62946771761E+03  0.79537461479E+02 0.  0.
         -6    2    1    2    0  502 -0.79225481954E+02  0.62130952229E+02 -0.85766675476E+03  0.88041872032E+03  0.17148740086E+03 0.  0.
        -24    2    5    5    0    0 -0.39273849312E+02 -0.64447540082E+01 -0.21955881302E+03  0.23737704535E+03  0.80980362991E+02 0.  0.
          5    1    3    3  501    0 -0.18692333624E+01 -0.18602826982E+02  0.85098997530E+00  0.19296978754E+02  0.47000000000E+01 0. -1.
        -13    1    4    4    0    0 -0.15835494142E+02 -0.40150664312E+01 -0.63672634079E+02  0.65734982800E+02  0.00000000000E+00 0.  1.
         14    1    4    4    0    0  0.96930209459E+02 -0.39513058816E+02 -0.55392946209E+03  0.56373273481E+03  0.00000000000E+00 0. -1.
         -5    1    5    5    0  502 -0.39951632642E+02  0.68575706237E+02 -0.63810794175E+03  0.64304167498E+03  0.47000000000E+01 0.  1.
         13    1    6    6    0    0 -0.34434078804E+02  0.34640728306E+02 -0.12128648442E+03  0.13075204451E+03  0.00000000000E+00 0. -1.
        -14    1    6    6    0    0 -0.48397705082E+01 -0.41085482314E+02 -0.98272328593E+02  0.10662500083E+03  0.00000000000E+00 0.  1.
</event>
<event>
12    1  0.8449700E-002  0.2068313E+03  0.7818608E-02  0.1144456E+00
         21   -1    0    0  501  502  0.00000000000E+00  0.00000000000E+00  0.10489682825E+03  0.10489682825E+03  0.00000000000E+00 0.  1.
         21   -1    0    0  502  503 -0.00000000000E+00 -0.00000000000E+00 -0.42420399761E+03  0.42420399761E+03  0.00000000000E+00 0.  1.
         -6    2    1    2    0  503  0.10467026922E+03 -0.47482735677E+02 -0.21621296332E+03  0.29800001002E+03  0.16983958614E+03 0.  0.
        -24    2    3    3    0    0  0.20161950751E+02  0.16617973244E+02 -0.15135837173E+03  0.17358632579E+03  0.80871469100E+02 0.  0.
          6    2    1    2  501    0 -0.10467026922E+03  0.47482735677E+02 -0.10309420605E+03  0.23110081584E+03  0.17195550680E+03 0.  0.
         24    2    5    5    0    0 -0.77052716794E+02  0.58187295738E+02 -0.34199652197E+01  0.12701257880E+03  0.82447658908E+02 0.  0.
          5    1    5    5  501    0 -0.27617552422E+02 -0.10704560061E+02 -0.99674240825E+02  0.10408823705E+03  0.47000000000E+01 0. -1.
        -13    1    6    6    0    0 -0.14435894558E+02  0.56612446175E+02 -0.20788795547E+02  0.62012403065E+02  0.00000000000E+00 0.  1.
         14    1    6    6    0    0 -0.62616822235E+02  0.15748495630E+01  0.17368830327E+02  0.65000175730E+02  0.00000000000E+00 0. -1.
         -5    1    3    3    0  503  0.84508318465E+02 -0.64100708921E+02 -0.64854591586E+02  0.12441368423E+03  0.47000000000E+01 0.  1.
         13    1    4    4    0    0  0.25409864717E+02  0.46012136429E+02 -0.11568374917E+03  0.12706497450E+03  0.00000000000E+00 0. -1.
        -14    1    4    4    0    0 -0.52479139659E+01 -0.29394163185E+02 -0.35674622561E+02  0.46521351283E+02  0.00000000000E+00 0.  1.
</event>
<event>
12    1  0.8449700E-002  0.1890396E+03  0.7818608E-02  0.1161904E+00
         21   -1    0    0  503  502  0.00000000000E+00  0.00000000000E+00  0.36338667811E+02  0.36338667811E+02  0.00000000000E+00 0. -1.
         21   -1    0    0  501  503 -0.00000000000E+00 -0.00000000000E+00 -0.92885041310E+03  0.92885041310E+03  0.00000000000E+00 0. -1.
          6    2    1    2  501    0 -0.67758871921E+01  0.41718196456E+02 -0.48035297542E+03  0.51621210582E+03  0.18425427170E+03 0.  0.
         24    2    3    3    0    0 -0.31855649239E+02  0.47247429492E+02 -0.47920557069E+03  0.49007834566E+03  0.85391474544E+02 0.  0.
         -6    2    1    2    0  502  0.67758871921E+01 -0.41718196456E+02 -0.41215876988E+03  0.44897697509E+03  0.17297153528E+03 0.  0.
        -24    2    5    5    0    0 -0.52768464285E+02  0.15216997858E+02 -0.22457190795E+03  0.24404267608E+03  0.78155089805E+02 0.  0.
          5    1    3    3  501    0  0.25079762047E+02 -0.55292330361E+01 -0.11474047266E+01  0.26133760156E+02  0.47000000000E+01 0. -1.
        -13    1    4    4    0    0 -0.22438645284E+02  0.56036262198E+02 -0.16643827818E+03  0.17704591474E+03  0.00000000000E+00 0.  1.
         14    1    4    4    0    0 -0.94170039551E+01 -0.87888327059E+01 -0.31276729251E+03  0.31303243092E+03  0.00000000000E+00 0. -1.
         -5    1    5    5    0  502  0.59544351478E+02 -0.56935194314E+02 -0.18758686193E+03  0.20493429901E+03  0.47000000000E+01 0.  1.
         11    1    6    6    0    0 -0.45031410360E+02  0.19816727741E+02 -0.22884852266E+03  0.23407728839E+03  0.00000000000E+00 0. -1.
        -12    1    6    6    0    0 -0.77370539254E+01 -0.45997298833E+01  0.42766147100E+01  0.99653876905E+01  0.00000000000E+00 0.  1.
</event>
<event>
12    1  0.8449700E-002  0.1995820E+03  0.7818608E-02  0.1152662E+00
         21   -1    0    0  501  502  0.00000000000E+00  0.00000000000E+00  0.14949303404E+03  0.14949303404E+03  0.00000000000E+00 0. -1.
         21   -1    0    0  502  503 -0.00000000000E+00 -0.00000000000E+00 -0.31037541331E+03  0.31037541331E+03  0.00000000000E+00 0. -1.
         -6    2    1    2    0  503  0.66383092481E+02 -0.33660918733E+02 -0.18296521870E+03  0.27075680745E+03  0.18518424638E+03 0.  0.
        -24    2    3    3    0    0  0.77454163276E+02  0.13972194218E+01 -0.32337883250E+02  0.11563644823E+03  0.79529553218E+02 0.  0.
          6    2    1    2  501    0 -0.66383092481E+02  0.33660918733E+02  0.22082839430E+02  0.18911163990E+03  0.17244068003E+03 0.  0.
         24    2    5    5    0    0 -0.82538058275E+02  0.28169085753E+02 -0.40226799136E+02  0.12433722977E+03  0.78965327085E+02 0.  0.
          5    1    5    5  501    0  0.16154965794E+02  0.54918329798E+01  0.62309638566E+02  0.64774410128E+02  0.47000000000E+01 0. -1.
        -11    1    6    6    0    0 -0.19811780059E+02  0.46317497900E+02 -0.28855316922E+02  0.58055547155E+02  0.00000000000E+00 0.  1.
         12    1    6    6    0    0 -0.62726278216E+02 -0.18148412147E+02 -0.11371482215E+02  0.66281682613E+02  0.00000000000E+00 0. -1.
         -5    1    3    3    0  503 -0.11071070795E+02 -0.35058138155E+02 -0.15062733545E+03  0.15512035922E+03  0.47000000000E+01 0.  1.
         13    1    4    4    0    0  0.19670334342E+02  0.88758936141E+01 -0.50243103829E+02  0.54681560173E+02  0.00000000000E+00 0. -1.
        -14    1    4    4    0    0  0.57783828934E+02 -0.74786741922E+01  0.17905220579E+02  0.60954888056E+02  0.00000000000E+00 0.  1.
</event>
<event>
12    1  0.8449700E-002  0.2110117E+03  0.7818608E-02  0.1140849E+00
         21   -1    0    0  503  502  0.00000000000E+00  0.00000000000E+00  0.27827615251E+03  0.27827615251E+03  0.00000000000E+00 0. -1.
         21   -1    0    0  501  503 -0.00000000000E+00 -0.00000000000E+00 -0.16693143656E+03  0.16693143656E+03  0.00000000000E+00 0.  1.
          6    2    1    2  501    0  0.86229171359E+02 -0.85609118885E+02  0.10207661419E+03  0.23440471378E+03  0.17251534264E+03 0.  0.
         24    2    3    3    0    0 -0.14565438504E+02 -0.24447313306E+02  0.74896182139E+02  0.11332133042E+03  0.80140268920E+02 0.  0.
         -6    2    1    2    0  502 -0.86229171359E+02  0.85609118885E+02  0.92681017655E+01  0.21080287529E+03  0.17201035809E+03 0.  0.
        -24    2    5    5    0    0 -0.12342334632E+03  0.76783189838E+02  0.25994817792E+02  0.16881267758E+03  0.81810811636E+02 0.  0.
          5    1    3    3  501    0  0.10079460986E+03 -0.61161805579E+02  0.27180432055E+02  0.12108338336E+03  0.47000000000E+01 0. -1.
        -13    1    4    4    0    0 -0.17764017322E+02 -0.46862869393E+02  0.20038334205E+02  0.53974287182E+02  0.00000000000E+00 0.  1.
         14    1    4    4    0    0  0.31985788178E+01  0.22415556087E+02  0.54857847934E+02  0.59347043238E+02  0.00000000000E+00 0. -1.
         -5    1    5    5    0  502  0.37194174962E+02  0.88259290470E+01 -0.16726716027E+02  0.41990197710E+02  0.47000000000E+01 0.  1.
         11    1    6    6    0    0 -0.10056617130E+03  0.87332761930E+02  0.79967014617E+00  0.13319611702E+03  0.00000000000E+00 0. -1.
        -12    1    6    6    0    0 -0.22857175020E+02 -0.10549572092E+02  0.25195147646E+02  0.35616560560E+02  0.00000000000E+00 0.  1.
</event>
<event>
12    1  0.8449700E-002  0.2360553E+03  0.7818608E-02  0.1122476E+00
         21   -1    0    0  503  502  0.00000000000E+00  0.00000000000E+00  0.38523905088E+03  0.38523905088E+03  0.00000000000E+00 0.  1.
         21   -1    0    0  501  503 -0.00000000000E+00 -0.00000000000E+00 -0.14536820299E+03  0.14536820299E+03  0.00000000000E+00 0. -1.
          6    2    1    2  501    0 -0.16119677572E+03 -0.54310238185E+01  0.13985310469E+03  0.27423706305E+03  0.17214290383E+03 0.  0.
         24    2    3    3    0    0 -0.16924671129E+03 -0.13912550654E+02  0.16262821571E+03  0.24820759048E+03  0.79505113568E+02 0.  0.
         -6    2    1    2    0  502  0.16119677572E+03  0.54310238185E+01  0.10001774321E+03  0.25637019082E+03  0.17236075326E+03 0.  0.
        -24    2    5    5    0    0  0.12531426257E+03  0.63840559399E+02  0.42728182636E+02  0.16690839816E+03  0.79078659292E+02 0.  0.
          5    1    3    3  501    0  0.80499355692E+01  0.84815268353E+01 -0.22775111021E+02  0.26029472568E+02  0.47000000000E+01 0. -1.
        -11    1    4    4    0    0 -0.24039178577E+02  0.67605908568E+01  0.71009351576E+02  0.75272277146E+02  0.00000000000E+00 0.  1.
         12    1    4    4    0    0 -0.14520753271E+03 -0.20673141511E+02  0.91618864131E+02  0.17293531334E+03  0.00000000000E+00 0. -1.
         -5    1    5    5    0  502  0.35882513143E+02 -0.58409535581E+02  0.57289560572E+02  0.89461792664E+02  0.47000000000E+01 0.  1.
         11    1    6    6    0    0  0.15255116836E+02  0.27346611639E+02  0.40163772222E+02  0.50928227507E+02  0.00000000000E+00 0. -1.
        -12    1    6    6    0    0  0.11005914574E+03  0.36493947760E+02  0.25644104140E+01  0.11598017065E+03  0.00000000000E+00 0.  1.
</event>
<event>
12    1  0.8449700E-002  0.2113094E+03  0.7818608E-02  0.1140653E+00
         21   -1    0    0  501  502  0.00000000000E+00  0.00000000000E+00  0.12256886656E+04  0.12256886656E+04  0.00000000000E+00 0. -1.
         21   -1    0    0  502  503 -0.00000000000E+00 -0.00000000000E+00 -0.41017563734E+02  0.41017563734E+02  0.00000000000E+00 0. -1.
         -6    2    1    2    0  503  0.46489767661E+02  0.11115899911E+03  0.37887076880E+03  0.43381417561E+03  0.17359164132E+03 0.  0.
        -24    2    3    3    0    0  0.89873884760E+02  0.11308784387E+03  0.26812888489E+03  0.31476898710E+03  0.79499941698E+02 0.  0.
          6    2    1    2  501    0 -0.46489767661E+02 -0.11115899911E+03  0.80580033311E+03  0.83289205377E+03  0.17285072983E+03 0.  0.
         24    2    5    5    0    0  0.75989077662E+01 -0.13851477567E+02  0.17563161264E+03  0.19294748990E+03  0.78311325301E+02 0.  0.
          5    1    5    5  501    0 -0.54088675427E+02 -0.97307521538E+02  0.63016872047E+03  0.63994456386E+03  0.47000000000E+01 0. -1.
        -11    1    6    6    0    0  0.10605179168E+01  0.31407977863E+02  0.97249193818E+02  0.10220074104E+03  0.00000000000E+00 0.  1.
         12    1    6    6    0    0  0.65383898493E+01 -0.45259455430E+02  0.78382418823E+02  0.90746748858E+02  0.00000000000E+00 0. -1.
         -5    1    3    3    0  503 -0.43384117099E+02 -0.19288447653E+01  0.11074188390E+03  0.11904518852E+03  0.47000000000E+01 0.  1.
         13    1    4    4    0    0  0.59201161147E+02  0.17471116684E+02  0.75345129010E+02  0.97400748790E+02  0.00000000000E+00 0. -1.
        -14    1    4    4    0    0  0.30672723613E+02  0.95616727186E+02  0.19278375588E+03  0.21736823830E+03  0.00000000000E+00 0.  1.
</event>
<event>
12    1  0.8449700E-002  0.2489058E+03  0.7818608E-02  0.1114133E+00
         21   -1    0    0  503  502  0.00000000000E+00  0.00000000000E+00  0.42635242618E+02  0.42635242618E+02  0.00000000000E+00 0.  1.
         21   -1    0    0  501  503 -0.00000000000E+00 -0.00000000000E+00 -0.15595110372E+04  0.15595110372E+04  0.00000000000E+00 0.  1.
          6    2    1    2  501    0  0.17558588557E+03 -0.38018550832E+02 -0.97128065974E+03  0.10024562184E+04  0.17104542189E+03 0.  0.
         24    2    3    3    0    0  0.33622921078E+02  0.36496793167E+02 -0.29882600453E+03  0.31113619617E+03  0.71036855597E+02 0.  0.
         -6    2    1    2    0  502 -0.17558588557E+03  0.38018550832E+02 -0.54559513489E+03  0.59969006149E+03  0.17227392495E+03 0.  0.
        -24    2    5    5    0    0 -0.20086513769E+03  0.15220139541E+02 -0.46499840769E+03  0.51207310777E+03  0.73599540474E+02 0.  0.
          5    1    3    3  501    0  0.14196296449E+03 -0.74515343999E+02 -0.67245465521E+03  0.69132002220E+03  0.47000000000E+01 0. -1.
        -13    1    4    4    0    0  0.44475575840E+01  0.15845011142E+02 -0.25043337615E+03  0.25097354648E+03  0.00000000000E+00 0.  1.
         14    1    4    4    0    0  0.29175363494E+02  0.20651782025E+02 -0.48392628380E+02  0.60162649687E+02  0.00000000000E+00 0. -1.
         -5    1    5    5    0  502  0.25279252116E+02  0.22798411291E+02 -0.80596727198E+02  0.87616953725E+02  0.47000000000E+01 0.  1.
         11    1    6    6    0    0 -0.88332729155E+02 -0.28639541584E+02 -0.22463843792E+03  0.24307472549E+03  0.00000000000E+00 0. -1.
        -12    1    6    6    0    0 -0.11253240853E+03  0.43859681124E+02 -0.24035996977E+03  0.26899838227E+03  0.00000000000E+00 0.  1.
</event>
<event>
12    1  0.8449700E-002  0.1861919E+03  0.7818608E-02  0.1162689E+00
         21   -1    0    0  503  502  0.00000000000E+00  0.00000000000E+00  0.65472592728E+02  0.65472592728E+02  0.00000000000E+00 0.  1.
         21   -1    0    0  501  503 -0.00000000000E+00 -0.00000000000E+00 -0.53930049252E+03  0.53930049252E+03  0.00000000000E+00 0.  1.
          6    2    1    2  501    0  0.42738688793E+02 -0.42208597078E+02 -0.29148705196E+03  0.34416683965E+03  0.17285239619E+03 0.  0.
         24    2    3    3    0    0  0.31530712029E+02 -0.61141649813E+02 -0.81627337569E+02  0.13310460012E+03  0.79506761931E+02 0.  0.
         -6    2    1    2    0  502 -0.42738688793E+02  0.42208597078E+02 -0.18234084783E+03  0.26060624559E+03  0.17623640166E+03 0.  0.
        -24    2    5    5    0    0 -0.47697462698E+02 -0.41307362514E+02 -0.81730499206E+02  0.12967100513E+03  0.78443284770E+02 0.  0.
          5    1    3    3  501    0  0.11207976764E+02  0.18933052735E+02 -0.20985971439E+03  0.21106223953E+03  0.47000000000E+01 0. -1.
        -13    1    4    4    0    0  0.57249499417E+02 -0.34884477721E+02 -0.62570912465E+02  0.91703604378E+02  0.00000000000E+00 0.  1.
         14    1    4    4    0    0 -0.25718787388E+02 -0.26257172093E+02 -0.19056425104E+02  0.41400995746E+02  0.00000000000E+00 0. -1.
         -5    1    5    5    0  502  0.49587739046E+01  0.83515959592E+02 -0.10061034862E+03  0.13093524046E+03  0.47000000000E+01 0.  1.
         13    1    6    6    0    0  0.16937272306E+02  0.25387048619E+01 -0.34182157611E+02  0.38232657696E+02  0.00000000000E+00 0. -1.
        -14    1    6    6    0    0 -0.64634735003E+02 -0.43846067376E+02 -0.47548341595E+02  0.91438347435E+02  0.00000000000E+00 0.  1.
</event>
<event>
12    1  0.8449700E-002  0.2713121E+03  0.7818608E-02  0.1100682E+00
         21   -1    0    0  501  502  0.00000000000E+00  0.00000000000E+00  0.15480881858E+03  0.15480881858E+03  0.00000000000E+00 0. -1.
         21   -1    0    0  502  503 -0.00000000000E+00 -0.00000000000E+00 -0.48292384057E+03  0.48292384057E+03  0.00000000000E+00 0. -1.
         -6    2    1    2    0  503 -0.10864286469E+03 -0.17880725958E+03 -0.20797438287E+03  0.34101049087E+03  0.17105409328E+03 0.  0.
        -24    2    3    3    0    0 -0.63285729544E+01 -0.23309389226E+02 -0.78605053532E+02  0.11428088242E+03  0.79359858765E+02 0.  0.
          6    2    1    2  501    0  0.10864286469E+03  0.17880725958E+03 -0.12014063912E+03  0.29672216828E+03  0.17272800541E+03 0.  0.
         24    2    5    5    0    0  0.36226475292E+02  0.15962385260E+02 -0.61084940796E+02  0.10891308423E+03  0.81015644596E+02 0.  0.
          5    1    5    5  501    0  0.72416389394E+02  0.16284487432E+03 -0.59055698321E+02  0.18780908404E+03  0.47000000000E+01 0. -1.
        -11    1    6    6    0    0  0.12594294401E+02  0.16962623459E+02  0.17130538716E+02  0.27199305189E+02  0.00000000000E+00 0.  1.
         12    1    6    6    0    0  0.23632180891E+02 -0.10002381987E+01 -0.78215479511E+02  0.81713779042E+02  0.00000000000E+00 0. -1.
         -5    1    3    3    0  503 -0.10231429173E+03 -0.15549787036E+03 -0.12936932934E+03  0.22672960846E+03  0.47000000000E+01 0.  1.
         13    1    4    4    0    0 -0.39504744634E+02 -0.18951658314E+02 -0.64485697941E+02  0.77962782406E+02  0.00000000000E+00 0. -1.
        -14    1    4    4    0    0  0.33176171680E+02 -0.43577309121E+01 -0.14119355591E+02  0.36318100010E+02  0.00000000000E+00 0.  1.
</event>
<event>
12    1  0.8449700E-002  0.2073362E+03  0.7818608E-02  0.1144078E+00
         21   -1    0    0  503  502  0.00000000000E+00  0.00000000000E+00  0.15571041267E+03  0.15571041267E+03  0.00000000000E+00 0.  1.
         21   -1    0    0  501  503 -0.00000000000E+00 -0.00000000000E+00 -0.29104344400E+03  0.29104344400E+03  0.00000000000E+00 0.  1.
          6    2    1    2  501    0 -0.11484837140E+03  0.12464713956E+02 -0.12613576675E+02  0.20582153754E+03  0.16987608863E+03 0.  0.
         24    2    3    3    0    0  0.22201618070E+01  0.29997051325E+02  0.36282052040E+01  0.86245997393E+02  0.80749340473E+02 0.  0.
         -6    2    1    2    0  502  0.11484837140E+03 -0.12464713956E+02 -0.12271945466E+03  0.24093231913E+03  0.17217084638E+03 0.  0.
        -24    2    5    5    0    0  0.68671976359E+02 -0.75427351923E+02 -0.73575226300E+02  0.14855375874E+03  0.79055547283E+02 0.  0.
          5    1    3    3  501    0 -0.11706853321E+03 -0.17532337369E+02 -0.16241781879E+02  0.11957554014E+03  0.47000000000E+01 0. -1.
        -11    1    4    4    0    0 -0.21175853524E+02  0.31279591145E+02 -0.27903144693E+02  0.46961847051E+02  0.00000000000E+00 0.  1.
         12    1    4    4    0    0  0.23396015331E+02 -0.12825398207E+01  0.31531349897E+02  0.39284150342E+02  0.00000000000E+00 0. -1.
         -5    1    5    5    0  502  0.46176395046E+02  0.62962637967E+02 -0.49144228356E+02  0.92378560391E+02  0.47000000000E+01 0.  1.
         11    1    6    6    0    0  0.10264206089E+01 -0.19236897444E+02 -0.55537589874E+02  0.58783804331E+02  0.00000000000E+00 0. -1.
        -12    1    6    6    0    0  0.67645555750E+02 -0.56190454479E+02 -0.18037636425E+02  0.89769954411E+02  0.00000000000E+00 0.  1.
</event>
<event>
12    1  0.8449700E-002  0.4152693E+03  0.7818608E-02  0.1038621E+00
         21   -1    0    0  501  502  0.00000000000E+00  0.00000000000E+00  0.61040994478E+03  0.61040994478E+03  0.00000000000E+00 0.  1.
         21   -1    0    0  502  503 -0.00000000000E+00 -0.00000000000E+00 -0.28294544793E+03  0.28294544793E+03  0.00000000000E+00 0. -1.
         -6    2    1    2    0  503 -0.37667358397E+03  0.28309813915E+02  0.18183071609E+03  0.45333324102E+03  0.17252299461E+03 0.  0.
        -24    2    3    3    0    0 -0.31678637290E+03 -0.33686201254E+02  0.15559733537E+03  0.36310982825E+03  0.78420981817E+02 0.  0.
          6    2    1    2  501    0  0.37667358397E+03 -0.28309813915E+02  0.14563378076E+03  0.44002215170E+03  0.17241189477E+03 0.  0.
         24    2    5    5    0    0  0.23856696784E+03 -0.32684425491E+00  0.16028738780E+03  0.29827130616E+03  0.79745974308E+02 0.  0.
          5    1    5    5  501    0  0.13810661613E+03 -0.27982969660E+02 -0.14653607042E+02  0.14175084553E+03  0.47000000000E+01 0. -1.
        -11    1    6    6    0    0  0.22205627169E+03 -0.13685847593E+02  0.12011863948E+03  0.25283349812E+03  0.00000000000E+00 0.  1.
         12    1    6    6    0    0  0.16510696153E+02  0.13359003338E+02  0.40168748330E+02  0.45437808046E+02  0.00000000000E+00 0. -1.
         -5    1    3    3    0  503 -0.59887211073E+02  0.61996015169E+02  0.26233380718E+02  0.90223412764E+02  0.47000000000E+01 0.  1.
         11    1    4    4    0    0 -0.10886033674E+03  0.25349552242E+02  0.47599057175E+02  0.12148597845E+03  0.00000000000E+00 0. -1.
        -12    1    4    4    0    0 -0.20792603616E+03 -0.59035753496E+02  0.10799827820E+03  0.24162384981E+03  0.00000000000E+00 0.  1.
</event>
<event>
12    1  0.8449700E-002  0.1739916E+03  0.7818608E-02  0.1174351E+00
         21   -1    0    0  501  502  0.00000000000E+00  0.00000000000E+00  0.96606060854E+02  0.96606060854E+02  0.00000000000E+00 0.  1.
         21   -1    0    0  502  503 -0.00000000000E+00 -0.00000000000E+00 -0.31769548449E+03  0.31769548449E+03  0.00000000000E+00 0.  1.
         -6    2    1    2    0  503 -0.15533950105E+02  0.50934578862E+01 -0.14531549596E+03  0.22669291519E+03  0.17322193138E+03 0.  0.
        -24    2    3    3    0    0  0.40603450188E+02  0.46127587994E+02 -0.60686240756E+02  0.11705985274E+03  0.79017686408E+02 0.  0.
          6    2    1    2  501    0  0.15533950105E+02 -0.50934578862E+01 -0.75773927673E+02  0.18760863015E+03  0.17084514355E+03 0.  0.
         24    2    5    5    0    0  0.44861898310E+02 -0.89756257951E+01  0.15481856922E+02  0.91562245549E+02  0.77786921381E+02 0.  0.
          5    1    5    5  501    0 -0.29327948205E+02  0.38821679089E+01 -0.91255784595E+02  0.96046384605E+02  0.47000000000E+01 0. -1.
        -13    1    6    6    0    0  0.31794381741E+02 -0.15119819039E+02  0.45925604199E+02  0.57867544955E+02  0.00000000000E+00 0.  1.
         14    1    6    6    0    0  0.13067516568E+02  0.61441932435E+01 -0.30443747277E+02  0.33694700594E+02  0.00000000000E+00 0. -1.
         -5    1    3    3    0  503 -0.56137400292E+02 -0.41034130108E+02 -0.84629255206E+02  0.10963306245E+03  0.47000000000E+01 0.  1.
         11    1    4    4    0    0  0.57422937815E+02  0.15197837824E+02 -0.55830522043E+02  0.81519416420E+02  0.00000000000E+00 0. -1.
        -12    1    4    4    0    0 -0.16819487628E+02  0.30929750170E+02 -0.48557187123E+01  0.35540436320E+02  0.00000000000E+00 0.  1.
</event>
<event>
12    1  0.8449700E-002  0.2144460E+03  0.7818608E-02  0.1138771E+00
         21   -1    0    0  503  502  0.00000000000E+00  0.00000000000E+00  0.31346306076E+03  0.31346306076E+03  0.00000000000E+00 0. -1.
         21   -1    0    0  501  503 -0.00000000000E+00 -0.00000000000E+00 -0.14961179831E+03  0.14961179831E+03  0.00000000000E+00 0. -1.
          6    2    1    2  501    0  0.11567480837E+03  0.42655270130E+02  0.12608066890E+03  0.24876376068E+03  0.17546207624E+03 0.  0.
         24    2    3    3    0    0  0.61602321398E+02 -0.40838106499E+02  0.85157601526E+02  0.14109870028E+03  0.84819981020E+02 0.  0.
         -6    2    1    2    0  502 -0.11567480837E+03 -0.42655270130E+02  0.37770593552E+02  0.21431109839E+03  0.17117971783E+03 0.  0.
        -24    2    5    5    0    0 -0.35631110591E+01 -0.12671909934E+02  0.51826797878E+02  0.97316647917E+02  0.81309531556E+02 0.  0.
          5    1    3    3  501    0  0.54072486968E+02  0.83493376629E+02  0.40923067374E+02  0.10766506040E+03  0.47000000000E+01 0. -1.
        -13    1    4    4    0    0 -0.64695404099E+01 -0.39349339867E+02  0.51533365421E+02  0.65160672592E+02  0.00000000000E+00 0.  1.
         14    1    4    4    0    0  0.68071861808E+02 -0.14887666314E+01  0.33624236105E+02  0.75938027692E+02  0.00000000000E+00 0. -1.
         -5    1    5    5    0  502 -0.11211169731E+03 -0.29983360196E+02 -0.14056204326E+02  0.11699445047E+03  0.47000000000E+01 0.  1.
         11    1    6    6    0    0 -0.11981352828E+02 -0.14353910982E+02 -0.18597251801E+02  0.26371297857E+02  0.00000000000E+00 0. -1.
        -12    1    6    6    0    0  0.84182417694E+01  0.16820010485E+01  0.70424049679E+02  0.70945350061E+02  0.00000000000E+00 0.  1.
</event>
<event>
12    1  0.8449700E-002  0.3623426E+03  0.7818608E-02  0.1057664E+00
         21   -1    0    0  503  502  0.00000000000E+00  0.00000000000E+00  0.34641360260E+03  0.34641360260E+03  0.00000000000E+00 0. -1.
         21   -1    0    0  501  503 -0.00000000000E+00 -0.00000000000E+00 -0.38119077426E+03  0.38119077426E+03  0.00000000000E+00 0. -1.
          6    2    1    2  501    0 -0.26544697072E+03  0.17691786560E+03 -0.45230846527E+02  0.36511099967E+03  0.17175036294E+03 0.  0.
         24    2    3    3    0    0 -0.10147761939E+03  0.54201455467E+02 -0.75125371658E+02  0.15808192412E+03  0.78170123798E+02 0.  0.
         -6    2    1    2    0  502  0.26544697072E+03 -0.17691786560E+03  0.10453674867E+02  0.36249337718E+03  0.17184336982E+03 0.  0.
        -24    2    5    5    0    0  0.89539560500E+02 -0.13040081029E+03  0.34087852834E+02  0.17895069067E+03  0.76417692738E+02 0.  0.
          5    1    3    3  501    0 -0.16396935133E+03  0.12271641014E+03  0.29894525131E+02  0.20702907555E+03  0.47000000000E+01 0. -1.
        -11    1    4    4    0    0 -0.31299418225E+01 -0.74296955231E+01 -0.34008206365E+02  0.34950751230E+02  0.00000000000E+00 0.  1.
         12    1    4    4    0    0 -0.98347677567E+02  0.61631150990E+02 -0.41117165294E+02  0.12313117289E+03  0.00000000000E+00 0. -1.
         -5    1    5    5    0  502  0.17590741022E+03 -0.46517055318E+02 -0.23634177967E+02  0.18354268651E+03  0.47000000000E+01 0.  1.
         13    1    6    6    0    0  0.73175283662E+02 -0.13316351368E+03  0.13552696138E+02  0.15254776002E+03  0.00000000000E+00 0. -1.
        -14    1    6    6    0    0  0.16364276838E+02  0.27627033941E+01  0.20535156696E+02  0.26402930652E+02  0.00000000000E+00 0.  1.
</event>
<event>
12    1  0.8449700E-002  0.1874209E+03  0.7818608E-02  0.1160975E+00
         21   -1    0    0  503  502  0.00000000000E+00  0.00000000000E+00  0.77118622517E+03  0.77118622517E+03  0.00000000000E+00 0.  1.
         21   -1    0    0  501  503 -0.00000000000E+00 -0.00000000000E+00 -0.82049517446E+02  0.82049517446E+02  0.00000000000E+00 0.  1.
          6    2    1    2  501    0  0.70842859527E+02 -0.19993067943E+02  0.58971370518E+02  0.19578997524E+03  0.17157406083E+03 0.  0.
         24    2    3    3    0    0 -0.82518803452E+01 -0.39733622188E+01 -0.16732116497E+02  0.85039278655E+02  0.82872396219E+02 0.  0.
         -6    2    1    2    0  502 -0.70842859527E+02  0.19993067943E+02  0.63016533720E+03  0.65744576738E+03  0.17236052715E+03 0.  0.
        -24    2    5    5    0    0 -0.42963664750E+02 -0.26790617946E+02  0.56348710543E+03  0.57122489195E+03  0.78845072773E+02 0.  0.
          5    1    3    3  501    0  0.79094739872E+02 -0.16019705724E+02  0.75703487015E+02  0.11075069658E+03  0.47000000000E+01 0. -1.
        -13    1    4    4    0    0 -0.11346616252E+02  0.16036724082E+02 -0.45672921993E+02  0.49718588305E+02  0.00000000000E+00 0.  1.
         14    1    4    4    0    0  0.30947359065E+01 -0.20010086301E+02  0.28940805495E+02  0.35320690350E+02  0.00000000000E+00 0. -1.
         -5    1    5    5    0  502 -0.27879194777E+02  0.46783685889E+02  0.66678231774E+02  0.86220875426E+02  0.47000000000E+01 0.  1.
         11    1    6    6    0    0  0.22207367200E+02  0.23133415127E+01  0.13341543149E+03  0.13527082489E+03  0.00000000000E+00 0. -1.
        -12    1    6    6    0    0 -0.65171031950E+02 -0.29103959459E+02  0.43007167394E+03  0.43595406706E+03  0.00000000000E+00 0.  1.
</event>
<event>
12    1  0.8449700E-002  0.1742689E+03  0.7818608E-02  0.1173661E+00
         21   -1    0    0  503  502  0.00000000000E+00  0.00000000000E+00  0.19574625030E+03  0.19574625030E+03  0.00000000000E+00 0. -1.
         21   -1    0    0  501  503 -0.00000000000E+00 -0.00000000000E+00 -0.18858462410E+03  0.18858462410E+03  0.00000000000E+00 0.  1.
          6    2    1    2  501    0 -0.11499550448E+02  0.22482833796E+02 -0.78157422346E+02  0.19029744087E+03  0.17165901042E+03 0.  0.
         24    2    3    3    0    0  0.37191451183E+01  0.49202439743E+02 -0.11194221685E+03  0.14437306416E+03  0.76666874361E+02 0.  0.
         -6    2    1    2    0  502  0.11499550448E+02 -0.22482833796E+02  0.85319048544E+02  0.19403343353E+03  0.17242945168E+03 0.  0.
        -24    2    5    5    0    0 -0.20792324383E+02  0.28787662429E+01 -0.17290383990E+02  0.83413536670E+02  0.78855898149E+02 0.  0.
          5    1    3    3  501    0 -0.15218695566E+02 -0.26719605947E+02  0.33784794503E+02  0.45924376711E+02  0.47000000000E+01 0. -1.
        -13    1    4    4    0    0  0.85798104980E+01  0.65977029026E+02 -0.60064140321E+02  0.89634159001E+02  0.00000000000E+00 0.  1.
         14    1    4    4    0    0 -0.48606653797E+01 -0.16774589283E+02 -0.51878076528E+02  0.54738905157E+02  0.00000000000E+00 0. -1.
         -5    1    5    5    0  502  0.32291874831E+02 -0.25361600039E+02  0.10260943253E+03  0.11061989686E+03  0.47000000000E+01 0.  1.
         11    1    6    6    0    0 -0.93870549953E+00  0.39624817916E+02 -0.55069291815E+01  0.40016666926E+02  0.00000000000E+00 0. -1.
        -12    1    6    6    0    0 -0.19853618883E+02 -0.36746051673E+02 -0.11783454808E+02  0.43396869744E+02  0.00000000000E+00 0.  1.
</event>
<event>
12    1  0.8449700E-002  0.1995330E+03  0.7818608E-02  0.1150357E+00
         21   -1    0    0  501  502  0.00000000000E+00  0.00000000000E+00  0.52819381715E+03  0.52819381715E+03  0.00000000000E+00 0. -1.
         21   -1    0    0  502  503 -0.00000000000E+00 -0.00000000000E+00 -0.79898391561E+02  0.79898391561E+02  0.00000000000E+00 0. -1.
         -6    2    1    2    0  503 -0.98529790673E+02  0.16567724773E+02  0.14926156646E+03  0.24918350858E+03  0.17271594186E+03 0.  0.
        -24    2    3    3    0    0 -0.19964101763E+02  0.56618800377E+02  0.36888898620E+02  0.10626268222E+03  0.79540636628E+02 0.  0.
          6    2    1    2  501    0  0.98529790673E+02 -0.16567724773E+02  0.29903385913E+03  0.35890870013E+03  0.17149809611E+03 0.  0.
         24    2    5    5    0    0  0.81111045284E+02  0.53393460216E+02  0.17283658474E+03  0.21349266883E+03  0.79226077520E+02 0.  0.
          5    1    5    5  501    0  0.17418745389E+02 -0.69961184989E+02  0.12619727439E+03  0.14541603130E+03  0.47000000000E+01 0. -1.
        -13    1    6    6    0    0  0.10346803785E+02  0.43707267434E+02  0.30654484872E+02  0.54379031050E+02  0.00000000000E+00 0.  1.
         14    1    6    6    0    0  0.70764241499E+02  0.96861927825E+01  0.14218209986E+03  0.15911363778E+03  0.00000000000E+00 0. -1.
         -5    1    3    3    0  503 -0.78565688910E+02 -0.40051075604E+02  0.11237266784E+03  0.14292082637E+03  0.47000000000E+01 0.  1.
         13    1    4    4    0    0 -0.38924798554E+02  0.26230856986E+02 -0.92618461380E+01  0.47843281604E+02  0.00000000000E+00 0. -1.
        -14    1    4    4    0    0  0.18960696791E+02  0.30387943390E+02  0.46150744758E+02  0.58419400613E+02  0.00000000000E+00 0.  1.
</event>
<event>
12    1  0.8449700E-002  0.1882034E+03  0.7818608E-02  0.1160729E+00
         21   -1    0    0  501  502  0.00000000000E+00  0.00000000000E+00  0.36829305509E+03  0.36829305509E+03  0.00000000000E+00 0.  1.
         21   -1    0    0  502  503 -0.00000000000E+00 -0.00000000000E+00 -0.98334695339E+02  0.98334695339E+02  0.00000000000E+00 0. -1.
         -6    2    1    2    0  503  0.10419624254E+02 -0.71105785426E+02  0.17846512744E+03  0.25736344778E+03  0.17094309361E+03 0.  0.
        -24    2    3    3    0    0 -0.27529580618E+02 -0.20591440028E+02  0.17256023591E+03  0.19373327424E+03  0.81078118621E+02 0.  0.
          6    2    1    2  501    0 -0.10419624254E+02  0.71105785426E+02  0.91493232318E+02  0.20926430265E+03  0.17394233387E+03 0.  0.
         24    2    5    5    0    0  0.50570479598E+02  0.57766134678E+02  0.95470778919E+02  0.14652954413E+03  0.80386180108E+02 0.  0.
          5    1    5    5  501    0 -0.60990103852E+02  0.13339650748E+02 -0.39775466014E+01  0.62734758523E+02  0.47000000000E+01 0. -1.
        -11    1    6    6    0    0 -0.21039644574E+01  0.36307755913E+02  0.79544437239E+02  0.87464262996E+02  0.00000000000E+00 0.  1.
         12    1    6    6    0    0  0.52674444055E+02  0.21458378765E+02  0.15926341680E+02  0.59065281131E+02  0.00000000000E+00 0. -1.
         -5    1    3    3    0  503  0.37949204872E+02 -0.50514345398E+02  0.59048915317E+01  0.63630173546E+02  0.47000000000E+01 0.  1.
         13    1    4    4    0    0  0.13124640177E+02  0.21475968407E+02  0.27282031441E+02  0.37118494559E+02  0.00000000000E+00 0. -1.
        -14    1    4    4    0    0 -0.40654220795E+02 -0.42067408435E+02  0.14527820447E+03  0.15661477968E+03  0.00000000000E+00 0.  1.
</event>
<event>
12    1  0.8449700E-002  0.2623524E+03  0.7818608E-02  0.1105967E+00
         21   -1    0    0  503  502  0.00000000000E+00  0.00000000000E+00  0.11218314653E+03  0.11218314653E+03  0.00000000000E+00 0. -1.
         21   -1    0    0  501  503 -0.00000000000E+00 -0.00000000000E+00 -0.63060764309E+03  0.63060764309E+03  0.00000000000E+00 0. -1.
          6    2    1    2  501    0  0.12438759353E+03 -0.15410124474E+03 -0.32568993074E+03  0.41725218185E+03  0.16972326068E+03 0.  0.
         24    2    3    3    0    0  0.28756005363E+02 -0.26945058837E+02 -0.18019568206E+03  0.20160255243E+03  0.81364373493E+02 0.  0.
         -6    2    1    2    0  502 -0.12438759353E+03  0.15410124474E+03 -0.19273456582E+03  0.32553860778E+03  0.17207354602E+03 0.  0.
        -24    2    5    5    0    0 -0.11738466341E+03  0.87544126977E+02 -0.61265583650E+02  0.17794093088E+03  0.80413741173E+02 0.  0.
          5    1    3    3  501    0  0.95631588165E+02 -0.12715618590E+03 -0.14549424869E+03  0.21564962942E+03  0.47000000000E+01 0. -1.
        -13    1    4    4    0    0  0.39174563518E+02  0.18647652665E+02 -0.94235898355E+02  0.10374384760E+03  0.00000000000E+00 0.  1.
         14    1    4    4    0    0 -0.10418558154E+02 -0.45592711503E+02 -0.85959783700E+02  0.97858704825E+02  0.00000000000E+00 0. -1.
         -5    1    5    5    0  502 -0.70029301201E+01  0.66557117760E+02 -0.13146898217E+03  0.14759767690E+03  0.47000000000E+01 0.  1.
         11    1    6    6    0    0 -0.67837622125E+02  0.90100117907E+02 -0.61221709622E+02  0.12832798585E+03  0.00000000000E+00 0. -1.
        -12    1    6    6    0    0 -0.49547041283E+02 -0.25559909303E+01 -0.43874028207E-01  0.49612945029E+02  0.00000000000E+00 0.  1.
</event>
<event>
12    1  0.8449700E-002  0.1794368E+03  0.7818608E-02  0.1168551E+00
         21   -1    0    0  503  502  0.00000000000E+00  0.00000000000E+00  0.79090144333E+02  0.79090144333E+02  0.00000000000E+00 0. -1.
         21   -1    0    0  501  503 -0.00000000000E+00 -0.00000000000E+00 -0.40782891863E+03  0.40782891863E+03  0.00000000000E+00 0. -1.
          6    2    1    2  501    0  0.47306727537E+02  0.14791292140E+02 -0.14527652621E+03  0.23087409652E+03  0.17245541621E+03 0.  0.
         24    2    3    3    0    0 -0.76595911787E+01  0.22820066323E+02 -0.15316928023E+03  0.17457007380E+03  0.80215070270E+02 0.  0.
         -6    2    1    2    0  502 -0.47306727537E+02 -0.14791292140E+02 -0.18346224809E+03  0.25604496645E+03  0.17159230628E+03 0.  0.
        -24    2    5    5    0    0  0.10798833052E+02 -0.36271205902E+02 -0.17108471028E+03  0.19269722530E+03  0.80187451466E+02 0.  0.
          5    1    3    3  501    0  0.54966318715E+02 -0.80287741828E+01  0.78927540148E+01  0.56304022715E+02  0.47000000000E+01 0. -1.
        -13    1    4    4    0    0 -0.76726536449E+01 -0.27970611910E+02 -0.83194007056E+02  0.88104866805E+02  0.00000000000E+00 0.  1.
         14    1    4    4    0    0  0.13062466181E-01  0.50790678233E+02 -0.69975273170E+02  0.86465206998E+02  0.00000000000E+00 0. -1.
         -5    1    5    5    0  502 -0.58105560588E+02  0.21479913762E+02 -0.12377537805E+02  0.63347741149E+02  0.47000000000E+01 0.  1.
         13    1    6    6    0    0 -0.22146665126E+02  0.63658115845E+01 -0.10465700845E+03  0.10716383602E+03  0.00000000000E+00 0. -1.
        -14    1    6    6    0    0  0.32945498178E+02 -0.42637017487E+02 -0.66427701832E+02  0.85533389276E+02  0.00000000000E+00 0.  1.
</event>
<event>
12    1  0.8449700E-002  0.2029331E+03  0.7818608E-02  0.1147481E+00
         21   -1    0    0  503  502  0.00000000000E+00  0.00000000000E+00  0.22012619175E+03  0.22012619175E+03  0.00000000000E+00 0.  1.
         21   -1    0    0  501  503 -0.00000000000E+00 -0.00000000000E+00 -0.18770321030E+03  0.18770321030E+03  0.00000000000E+00 0.  1.
          6    2    1    2  501    0 -0.96959629004E+02 -0.45927767790E+02  0.34347926707E+02  0.20581938117E+03  0.17225361559E+03 0.  0.
         24    2    3    3    0    0 -0.48022149615E+02  0.33860861117E+02 -0.15270224942E+02  0.99776214652E+02  0.79179722602E+02 0.  0.
         -6    2    1    2    0  502  0.96959629004E+02  0.45927767790E+02 -0.19249452529E+01  0.20201002089E+03  0.17115435611E+03 0.  0.
        -24    2    5    5    0    0  0.20538096654E+02 -0.31291406317E+02 -0.21483467258E+02  0.91521662951E+02  0.80707557889E+02 0.  0.
          5    1    3    3  501    0 -0.48937479389E+02 -0.79788628906E+02  0.49618151649E+02  0.10604316652E+03  0.47000000000E+01 0. -1.
        -11    1    4    4    0    0 -0.66418129407E+01 -0.25284026086E+02 -0.73753160703E+01  0.27162307365E+02  0.00000000000E+00 0.  1.
         12    1    4    4    0    0 -0.41380336674E+02  0.59144887202E+02 -0.78949088717E+01  0.72613907287E+02  0.00000000000E+00 0. -1.
         -5    1    5    5    0  502  0.76421532350E+02  0.77219174107E+02  0.19558522005E+02  0.11048835794E+03  0.47000000000E+01 0.  1.
         11    1    6    6    0    0 -0.93962394762E+01 -0.46068186984E+02  0.71298237977E+01  0.47554195984E+02  0.00000000000E+00 0. -1.
        -12    1    6    6    0    0  0.29934336131E+02  0.14776780667E+02 -0.28613291056E+02  0.43967466967E+02  0.00000000000E+00 0.  1.
</event>
<event>
12    1  0.8449700E-002  0.1758453E+03  0.7818608E-02  0.1172046E+00
         21   -1    0    0  501  502  0.00000000000E+00  0.00000000000E+00  0.55014068227E+03  0.55014068227E+03  0.00000000000E+00 0. -1.
         21   -1    0    0  502  503 -0.00000000000E+00 -0.00000000000E+00 -0.61093240495E+02  0.61093240495E+02  0.00000000000E+00 0. -1.
         -6    2    1    2    0  503 -0.21999850443E+02 -0.34487294314E+02  0.15588418415E+03  0.23451211812E+03  0.17036046427E+03 0.  0.
        -24    2    3    3    0    0 -0.71639973026E+02 -0.48165659561E+02  0.77345610851E+02  0.14048213916E+03  0.79376768705E+02 0.  0.
          6    2    1    2  501    0  0.21999850443E+02  0.34487294314E+02  0.33316325762E+03  0.37672180465E+03  0.17102103665E+03 0.  0.
         24    2    5    5    0    0  0.73934616666E+02  0.23178322025E+02  0.15741218907E+03  0.19304915863E+03  0.80534577836E+02 0.  0.
          5    1    5    5  501    0 -0.51934766223E+02  0.11308972289E+02  0.17575106855E+03  0.18367264601E+03  0.47000000000E+01 0. -1.
        -13    1    6    6    0    0  0.45888188754E+00 -0.18851204431E+02  0.65218722481E+02  0.67890059974E+02  0.00000000000E+00 0.  1.
         14    1    6    6    0    0  0.73475734779E+02  0.42029526456E+02  0.92193466591E+02  0.12515909866E+03  0.00000000000E+00 0. -1.
         -5    1    3    3    0  503  0.49640122583E+02  0.13678365247E+02  0.78538573298E+02  0.94029978952E+02  0.47000000000E+01 0.  1.
         13    1    4    4    0    0  0.33089720037E+01 -0.41093441645E+02  0.19853935438E+02  0.45758048410E+02  0.00000000000E+00 0. -1.
        -14    1    4    4    0    0 -0.74948945030E+02 -0.70722179159E+01  0.57491675413E+02  0.94724090754E+02  0.00000000000E+00 0.  1.
</event>
<event>
12    1  0.8449700E-002  0.1980867E+03  0.7818608E-02  0.1151552E+00
         21   -1    0    0  501  502  0.00000000000E+00  0.00000000000E+00  0.69536456566E+03  0.69536456566E+03  0.00000000000E+00 0.  1.
         21   -1    0    0  502  503 -0.00000000000E+00 -0.00000000000E+00 -0.81664596094E+02  0.81664596094E+02  0.00000000000E+00 0.  1.
         -6    2    1    2    0  503 -0.70497942308E+02 -0.67537843652E+02  0.90276430963E+02  0.21768829400E+03  0.17235730087E+03 0.  0.
        -24    2    3    3    0    0 -0.51613734305E-02 -0.83759084709E+02  0.20873456204E+02  0.11733280720E+03  0.79471392174E+02 0.  0.
          6    2    1    2  501    0  0.70497942308E+02  0.67537843652E+02  0.52342353861E+03  0.55934086776E+03  0.17134376376E+03 0.  0.
         24    2    5    5    0    0  0.16185285174E+02 -0.17431582298E+02  0.14115524427E+03  0.16396660592E+03  0.79965125854E+02 0.  0.
          5    1    5    5  501    0  0.54312657134E+02  0.84969425950E+02  0.38226829433E+03  0.39537426184E+03  0.47000000000E+01 0. -1.
        -13    1    6    6    0    0  0.30730931519E+02  0.23623269624E+02  0.79890142997E+02  0.88796869133E+02  0.00000000000E+00 0.  1.
         14    1    6    6    0    0 -0.14545646345E+02 -0.41054851922E+02  0.61265101275E+02  0.75169736784E+02  0.00000000000E+00 0. -1.
         -5    1    3    3    0  503 -0.70492780935E+02  0.16221241057E+02  0.69402974759E+02  0.10035548680E+03  0.47000000000E+01 0.  1.
         11    1    4    4    0    0 -0.27059558711E+02 -0.21458073001E+02  0.33651947860E+02  0.48219521040E+02  0.00000000000E+00 0. -1.
        -12    1    4    4    0    0  0.27054397338E+02 -0.62301011708E+02 -0.12778491656E+02  0.69113286162E+02  0.00000000000E+00 0.  1.
</event>
<event>
12    1  0.8449700E-002  0.1978299E+03  0.7818608E-02  0.1151809E+00
         21   -1    0    0  501  502  0.00000000000E+00  0.00000000000E+00  0.69091727427E+02  0.69091727427E+02  0.00000000000E+00 0. -1.
         21   -1    0    0  502  503 -0.00000000000E+00 -0.00000000000E+00 -0.56432654403E+03  0.56432654403E+03  0.00000000000E+00 0. -1.
         -6    2    1    2    0  503  0.20856185178E+02 -0.93557767616E+02 -0.25952860259E+03  0.32569422949E+03  0.17185342365E+03 0.  0.
        -24    2    3    3    0    0 -0.51332628673E+02 -0.29919524822E+02 -0.11713035374E+03  0.15376284182E+03  0.79957957860E+02 0.  0.
          6    2    1    2  501    0 -0.20856185178E+02  0.93557767616E+02 -0.23570621401E+03  0.30772404197E+03  0.17305672578E+03 0.  0.
         24    2    5    5    0    0 -0.30604269606E+02  0.39931366894E+02 -0.23482621278E+03  0.25300950636E+03  0.79619876413E+02 0.  0.
          5    1    5    5  501    0  0.97480844276E+01  0.53626400722E+02 -0.88000123311E+00  0.54714535606E+02  0.47000000000E+01 0. -1.
        -11    1    6    6    0    0 -0.50095388060E+02  0.43366824002E+02 -0.12560921419E+03  0.14201374588E+03  0.00000000000E+00 0.  1.
         12    1    6    6    0    0  0.19491118454E+02 -0.34354571086E+01 -0.10921699859E+03  0.11099576048E+03  0.00000000000E+00 0. -1.
         -5    1    3    3    0  503  0.72188813851E+02 -0.63638242794E+02 -0.14239824884E+03  0.17193138767E+03  0.47000000000E+01 0.  1.
         11    1    4    4    0    0 -0.51473828811E+02 -0.43587950925E+02 -0.46749601094E+02  0.82066983134E+02  0.00000000000E+00 0. -1.
        -12    1    4    4    0    0  0.14120013804E+00  0.13668426103E+02 -0.70380752647E+02  0.71695858687E+02  0.00000000000E+00 0.  1.
</event>
<event>
12    1  0.8449700E-002  0.1771263E+03  0.7818608E-02  0.1171405E+00
         21   -1    0    0  503  502  0.00000000000E+00  0.00000000000E+00  0.82854667433E+03  0.82854667433E+03  0.00000000000E+00 0. -1.
         21   -1    0    0  501  503 -0.00000000000E+00 -0.00000000000E+00 -0.44836333156E+02  0.44836333156E+02  0.00000000000E+00 0. -1.
          6    2    1    2  501    0 -0.25892953260E+02  0.27565747068E+02  0.21447372057E+03  0.27815950768E+03  0.17304166971E+03 0.  0.
         24    2    3    3    0    0  0.34428086428E+02  0.52681086334E+02  0.17289845453E+03  0.20057084328E+03  0.79838572167E+02 0.  0.
         -6    2    1    2    0  502  0.25892953260E+02 -0.27565747068E+02  0.56923662060E+03  0.59522349981E+03  0.16979507958E+03 0.  0.
        -24    2    5    5    0    0  0.27663624377E+02  0.43391337593E+02  0.35152852685E+03  0.36618868319E+03  0.88734222335E+02 0.  0.
          5    1    3    3  501    0 -0.60321039689E+02 -0.25115339267E+02  0.41575266048E+02  0.77588664395E+02  0.47000000000E+01 0. -1.
        -13    1    4    4    0    0  0.29749207700E+02  0.73212113734E+02  0.12052326062E+03  0.14412107863E+03  0.00000000000E+00 0.  1.
         14    1    4    4    0    0  0.46788787288E+01 -0.20531027400E+02  0.52375193910E+02  0.56449764653E+02  0.00000000000E+00 0. -1.
         -5    1    5    5    0  502 -0.17706711164E+01 -0.70957084661E+02  0.21770809375E+03  0.22903481662E+03  0.47000000000E+01 0.  1.
         11    1    6    6    0    0  0.24962209560E+02  0.13754356004E+02  0.23855211127E+02  0.37166723196E+02  0.00000000000E+00 0. -1.
        -12    1    6    6    0    0  0.27014148165E+01  0.29636981589E+02  0.32767331572E+03  0.32902195999E+03  0.00000000000E+00 0.  1.
</event>
<event>
12    1  0.8449700E-002  0.2978996E+03  0.7818608E-02  0.1086577E+00
         21   -1    0    0  503  502  0.00000000000E+00  0.00000000000E+00  0.16571220806E+03  0.16571220806E+03  0.00000000000E+00 0. -1.
         21   -1    0    0  501  503 -0.00000000000E+00 -0.00000000000E+00 -0.53168131556E+03  0.53168131556E+03  0.00000000000E+00 0. -1.
          6    2    1    2  501    0 -0.23401809651E+03  0.69859450975E+02 -0.17664372061E+03  0.34442285500E+03  0.16667119317E+03 0.  0.
         24    2    3    3    0    0 -0.17031580859E+03  0.68608939255E+02 -0.19487110248E+03  0.27798587196E+03  0.74744479579E+02 0.  0.
         -6    2    1    2    0  502  0.23401809651E+03 -0.69859450975E+02 -0.18932538689E+03  0.35297066862E+03  0.17058539914E+03 0.  0.
        -24    2    5    5    0    0  0.16013700558E+03  0.49206572656E+01 -0.16833503830E+03  0.24567125148E+03  0.79684410390E+02 0.  0.
          5    1    3    3  501    0 -0.63702287924E+02  0.12505117195E+01  0.18227381871E+02  0.66436983045E+02  0.47000000000E+01 0. -1.
        -11    1    4    4    0    0 -0.13522821358E+02  0.17820472097E+02 -0.63173081478E+02  0.67016969094E+02  0.00000000000E+00 0.  1.
         12    1    4    4    0    0 -0.15679298723E+03  0.50788467158E+02 -0.13169802100E+03  0.21096890286E+03  0.00000000000E+00 0. -1.
         -5    1    5    5    0  502  0.73881090928E+02 -0.74780108240E+02 -0.20990348590E+02  0.10729941714E+03  0.47000000000E+01 0.  1.
         11    1    6    6    0    0  0.16092749731E+02 -0.13813634929E+02 -0.62351152021E+02  0.65859390083E+02  0.00000000000E+00 0. -1.
        -12    1    6    6    0    0  0.14404425585E+03  0.18734292194E+02 -0.10598388628E+03  0.17981186140E+03  0.00000000000E+00 0.  1.
</event>
<event>
12    1  0.8449700E-002  0.1789753E+03  0.7818608E-02  0.1170006E+00
         21   -1    0    0  503  502  0.00000000000E+00  0.00000000000E+00  0.24695930765E+04  0.24695930765E+04  0.00000000000E+00 0.  1.
         21   -1    0    0  501  503 -0.00000000000E+00 -0.00000000000E+00 -0.12661905998E+02  0.12661905998E+02  0.00000000000E+00 0.  1.
          6    2    1    2  501    0 -0.24047527127E+02  0.43164994847E+02  0.11395726683E+04  0.11527943517E+04  0.16693546861E+03 0.  0.
         24    2    3    3    0    0 -0.98525168766E+01  0.90940190581E+02  0.88570687237E+03  0.89403983488E+03  0.80395100786E+02 0.  0.
         -6    2    1    2    0  502  0.24047527127E+02 -0.43164994847E+02  0.13173585022E+04  0.13294606308E+04  0.17201931615E+03 0.  0.
        -24    2    5    5    0    0 -0.47446372994E+02 -0.36479949494E+02  0.57799361299E+03  0.58660223446E+03  0.80272160732E+02 0.  0.
          5    1    3    3  501    0 -0.14195010250E+02 -0.47775195734E+02  0.25386579589E+03  0.25875451681E+03  0.47000000000E+01 0. -1.
        -13    1    4    4    0    0 -0.22127829639E+02  0.23370273830E+02  0.93941318603E+02  0.99301469698E+02  0.00000000000E+00 0.  1.
         14    1    4    4    0    0  0.12275312763E+02  0.67569916751E+02  0.79176555377E+03  0.79473836518E+03  0.00000000000E+00 0. -1.
         -5    1    5    5    0  502  0.71493900120E+02 -0.66850453530E+01  0.73936488925E+03  0.74285839636E+03  0.47000000000E+01 0.  1.
         11    1    6    6    0    0 -0.48564013487E+02  0.11750843872E+02  0.23673829538E+03  0.24195364481E+03  0.00000000000E+00 0. -1.
        -12    1    6    6    0    0  0.11176404933E+01 -0.48230793365E+02  0.34125531761E+03  0.34464858965E+03  0.00000000000E+00 0.  1.
</event>
<event>
12    1  0.8449700E-002  0.2136117E+03  0.7818608E-02  0.1139109E+00
         21   -1    0    0  503  502  0.00000000000E+00  0.00000000000E+00  0.36159294218E+03  0.36159294218E+03  0.00000000000E+00 0.  1.
         21   -1    0    0  501  503 -0.00000000000E+00 -0.00000000000E+00 -0.14389786804E+03  0.14389786804E+03  0.00000000000E+00 0. -1.
          6    2    1    2  501    0  0.18609651063E+02 -0.12467561971E+03  0.16990695776E+02  0.21238296546E+03  0.17008089549E+03 0.  0.
         24    2    3    3    0    0 -0.49426952943E+02 -0.80112224833E+02  0.37125873047E+02  0.12846401044E+03  0.79143409607E+02 0.  0.
         -6    2    1    2    0  502 -0.18609651063E+02  0.12467561971E+03  0.20070437837E+03  0.29310784476E+03  0.17245182487E+03 0.  0.
        -24    2    5    5    0    0 -0.61705168428E+02  0.65324877977E+02  0.18005951667E+03  0.21676628022E+03  0.80568748318E+02 0.  0.
          5    1    3    3  501    0  0.68036604006E+02 -0.44563394876E+02 -0.20135177271E+02  0.83918955018E+02  0.47000000000E+01 0. -1.
        -13    1    4    4    0    0 -0.49872351017E+02 -0.72298894604E+02 -0.27034086544E+01  0.87873147066E+02  0.00000000000E+00 0.  1.
         14    1    4    4    0    0  0.44539807410E+00 -0.78133302292E+01  0.39829281701E+02  0.40590863375E+02  0.00000000000E+00 0. -1.
         -5    1    5    5    0  502  0.43095517365E+02  0.59350741731E+02  0.20644861703E+02  0.76341564536E+02  0.47000000000E+01 0.  1.
         13    1    6    6    0    0 -0.12587334423E+02 -0.18928893221E+02  0.27239898955E+02  0.35478952656E+02  0.00000000000E+00 0. -1.
        -14    1    6    6    0    0 -0.49117834006E+02  0.84253771199E+02  0.15281961772E+03  0.18128732757E+03  0.00000000000E+00 0.  1.
</event>
<event>
12    1  0.8449700E-002  0.2560776E+03  0.7818608E-02  0.1109919E+00
         21   -1    0    0  503  502  0.00000000000E+00  0.00000000000E+00  0.42919407365E+03  0.42919407365E+03  0.00000000000E+00 0. -1.
         21   -1    0    0  501  503 -0.00000000000E+00 -0.00000000000E+00 -0.15446273439E+03  0.15446273439E+03  0.00000000000E+00 0. -1.
          6    2    1    2  501    0 -0.12299257075E+03 -0.14545603389E+03  0.96020933091E+02  0.27348811554E+03  0.17114642707E+03 0.  0.
         24    2    3    3    0    0 -0.68367190235E+02 -0.12522606992E+02  0.66657586170E+02  0.12672461761E+03  0.82371151072E+02 0.  0.
         -6    2    1    2    0  502  0.12299257075E+03  0.14545603389E+03  0.17871040616E+03  0.31016869250E+03  0.16727993986E+03 0.  0.
        -24    2    5    5    0    0  0.37915483833E+02  0.11370153373E+03  0.58158736966E+02  0.15916785162E+03  0.87099618931E+02 0.  0.
          5    1    3    3  501    0 -0.54625380514E+02 -0.13293342690E+03  0.29363346922E+02  0.14676349793E+03  0.47000000000E+01 0. -1.
        -11    1    4    4    0    0 -0.52075157482E+02  0.85330673863E+01 -0.22862112229E+01  0.52819144517E+02  0.00000000000E+00 0.  1.
         12    1    4    4    0    0 -0.16292032753E+02 -0.21055674378E+02  0.68943797393E+02  0.73905473097E+02  0.00000000000E+00 0. -1.
         -5    1    5    5    0  502  0.85077086915E+02  0.31754500155E+02  0.12055166920E+03  0.15100084087E+03  0.47000000000E+01 0.  1.
         13    1    6    6    0    0  0.32660312620E+02  0.35385954398E+02  0.64417705497E+02  0.80427001502E+02  0.00000000000E+00 0. -1.
        -14    1    6    6    0    0  0.52551712129E+01  0.78315579334E+02 -0.62589685309E+01  0.78740850122E+02  0.00000000000E+00 0.  1.
</event>
<event>
12    1  0.8449700E-002  0.1947370E+03  0.7818608E-02  0.1154257E+00
         21   -1    0    0  501  502  0.00000000000E+00  0.00000000000E+00  0.54356311916E+02  0.54356311916E+02  0.00000000000E+00 0. -1.
         21   -1    0    0  502  503 -0.00000000000E+00 -0.00000000000E+00 -0.11241547403E+04  0.11241547403E+04  0.00000000000E+00 0. -1.
         -6    2    1    2    0  503  0.87522684881E+02 -0.23450504420E+02 -0.17194887821E+03  0.25978567757E+03  0.17237179301E+03 0.  0.
        -24    2    3    3    0    0  0.25230554099E+01 -0.36285277330E+02 -0.14586029737E+03  0.16982806279E+03  0.79014918861E+02 0.  0.
          6    2    1    2  501    0 -0.87522684881E+02  0.23450504420E+02 -0.89784955017E+03  0.91872537465E+03  0.17237271464E+03 0.  0.
         24    2    5    5    0    0 -0.19164355997E+02 -0.28054330463E+02 -0.23502513851E+03  0.25038122690E+03  0.79370177333E+02 0.  0.
          5    1    5    5  501    0 -0.68358328884E+02  0.51504834883E+02 -0.66282441166E+03  0.66834414775E+03  0.47000000000E+01 0. -1.
        -11    1    6    6    0    0 -0.30444147943E+02 -0.35716588324E+02 -0.23161945559E+03  0.23632624280E+03  0.00000000000E+00 0.  1.
         12    1    6    6    0    0  0.11279791946E+02  0.76622578602E+01 -0.34056829216E+01  0.14054984099E+02  0.00000000000E+00 0. -1.
         -5    1    3    3    0  503  0.84999629471E+02  0.12834772910E+02 -0.26088580838E+02  0.89957614775E+02  0.47000000000E+01 0.  1.
         11    1    4    4    0    0 -0.13351283774E+02 -0.32354823893E+02 -0.15218487737E+02  0.38166657917E+02  0.00000000000E+00 0. -1.
        -12    1    4    4    0    0  0.15874339184E+02 -0.39304534373E+01 -0.13064180964E+03  0.13166140487E+03  0.00000000000E+00 0.  1.
</event>
<event>
12    1  0.8449700E-002  0.1906559E+03  0.7818608E-02  0.1159657E+00
         21   -1    0    0  503  502  0.00000000000E+00  0.00000000000E+00  0.24877671624E+03  0.24877671624E+03  0.00000000000E+00 0.  1.
         21   -1    0    0  501  503 -0.00000000000E+00 -0.00000000000E+00 -0.18016090750E+03  0.18016090750E+03  0.00000000000E+00 0.  1.
          6    2    1    2  501    0 -0.26559135729E+02 -0.59790788360E+02 -0.67224722032E+02  0.19483868201E+03  0.17077067281E+03 0.  0.
         24    2    3    3    0    0 -0.73292373210E+02 -0.66944690424E+02 -0.22351590178E+02  0.12948685141E+03  0.80086750209E+02 0.  0.
         -6    2    1    2    0  502  0.26559135729E+02  0.59790788360E+02  0.13584053078E+03  0.23409894173E+03  0.17907914075E+03 0.  0.
        -24    2    5    5    0    0  0.49857260301E+01  0.10764619459E+03  0.76976108854E+02  0.15508842293E+03  0.80712681281E+02 0.  0.
          5    1    3    3  501    0  0.46733237481E+02  0.71539020639E+01 -0.44873131854E+02  0.65351830599E+02  0.47000000000E+01 0. -1.
        -11    1    4    4    0    0 -0.84453523565E+01 -0.61823110734E+02 -0.13466263930E+02  0.63833856702E+02  0.00000000000E+00 0.  1.
         12    1    4    4    0    0 -0.64847020854E+02 -0.51215796900E+01 -0.88853262483E+01  0.65652994712E+02  0.00000000000E+00 0. -1.
         -5    1    5    5    0  502  0.21573409699E+02 -0.47855406232E+02  0.58864421924E+02  0.79010518794E+02  0.47000000000E+01 0.  1.
         11    1    6    6    0    0  0.16627427914E+02  0.11338706606E+03  0.49762347452E+02  0.12493754173E+03  0.00000000000E+00 0. -1.
        -12    1    6    6    0    0 -0.11641701884E+02 -0.57408714669E+01  0.27213761402E+02  0.30150881208E+02  0.00000000000E+00 0.  1.
</event>
<event>
12    1  0.8449700E-002  0.1816792E+03  0.7818608E-02  0.1166290E+00
         21   -1    0    0  503  502  0.00000000000E+00  0.00000000000E+00  0.64549424736E+03  0.64549424736E+03  0.00000000000E+00 0.  1.
         21   -1    0    0  501  503 -0.00000000000E+00 -0.00000000000E+00 -0.62027235429E+02  0.62027235429E+02  0.00000000000E+00 0.  1.
          6    2    1    2  501    0  0.53984790649E+02  0.23576844023E+02  0.14295600722E+03  0.23117908435E+03  0.17186367809E+03 0.  0.
         24    2    3    3    0    0  0.73315050863E+01 -0.21998072864E+02  0.11831669497E+02  0.84655079334E+02  0.80553261122E+02 0.  0.
         -6    2    1    2    0  502 -0.53984790649E+02 -0.23576844023E+02  0.44051100472E+03  0.47634239844E+03  0.17141152260E+03 0.  0.
        -24    2    5    5    0    0 -0.16690566245E+02 -0.79338300660E+02  0.28450019579E+03  0.30645519550E+03  0.80008027682E+02 0.  0.
          5    1    3    3  501    0  0.46653285563E+02  0.45574916886E+02  0.13112433772E+03  0.14652400501E+03  0.47000000000E+01 0. -1.
        -13    1    4    4    0    0  0.38807005500E+02 -0.86070753618E+01 -0.13620620908E+02  0.42018885469E+02  0.00000000000E+00 0.  1.
         14    1    4    4    0    0 -0.31475500414E+02 -0.13390997502E+02  0.25452290405E+02  0.42636193865E+02  0.00000000000E+00 0. -1.
         -5    1    5    5    0  502 -0.37294224404E+02  0.55761456638E+02  0.15601080893E+03  0.16988720294E+03  0.47000000000E+01 0.  1.
         11    1    6    6    0    0  0.36901835374E+01 -0.50202277689E+02  0.56384713518E+02  0.75585197348E+02  0.00000000000E+00 0. -1.
        -12    1    6    6    0    0 -0.20380749782E+02 -0.29136022972E+02  0.22811548227E+03  0.23086999815E+03  0.00000000000E+00 0.  1.
</event>
<event>
12    1  0.8449700E-002  0.1727405E+03  0.7818608E-02  0.1175343E+00
         21   -1    0    0  503  502  0.00000000000E+00  0.00000000000E+00  0.12256350970E+03  0.12256350970E+03  0.00000000000E+00 0. -1.
         21   -1    0    0  501  503 -0.00000000000E+00 -0.00000000000E+00 -0.37216601099E+03  0.37216601099E+03  0.00000000000E+00 0. -1.
          6    2    1    2  501    0 -0.81028597456E+01  0.33758059394E+01 -0.27097050050E+03  0.32067244685E+03  0.17125639733E+03 0.  0.
         24    2    3    3    0    0  0.24709232212E+02 -0.29178579286E+02 -0.68319079153E+02  0.11276354865E+03  0.81155318266E+02 0.  0.
         -6    2    1    2    0  502  0.81028597456E+01 -0.33758059394E+01  0.21367999201E+02  0.17405707384E+03  0.17251730685E+03 0.  0.
        -24    2    5    5    0    0 -0.17303944452E+01 -0.44628958504E+02  0.65258239844E+02  0.11284466735E+03  0.80501819112E+02 0.  0.
          5    1    3    3  501    0 -0.32812091958E+02  0.32554385226E+02 -0.20265142135E+03  0.20790889820E+03  0.47000000000E+01 0. -1.
        -11    1    4    4    0    0 -0.73784234810E+01 -0.41283798561E+02 -0.70177709699E+01  0.42521080256E+02  0.00000000000E+00 0.  1.
         12    1    4    4    0    0  0.32087655693E+02  0.12105219275E+02 -0.61301308183E+02  0.70242468397E+02  0.00000000000E+00 0. -1.
         -5    1    5    5    0  502  0.98332541908E+01  0.41253152565E+02 -0.43890240643E+02  0.61212406489E+02  0.47000000000E+01 0.  1.
         11    1    6    6    0    0  0.37067200102E+02 -0.67258597362E+01  0.29929245954E+02  0.48114179573E+02  0.00000000000E+00 0. -1.
        -12    1    6    6    0    0 -0.38797594548E+02 -0.37903098768E+02  0.35328993890E+02  0.64730487779E+02  0.00000000000E+00 0.  1.
</event>
<event>
12    1  0.8449700E-002  0.1881905E+03  0.7818608E-02  0.1160845E+00
         21   -1    0    0  501  502  0.00000000000E+00  0.00000000000E+00  0.66896364860E+02  0.66896364860E+02  0.00000000000E+00 0.  1.
         21   -1    0    0  502  503 -0.00000000000E+00 -0.00000000000E+00 -0.81551620165E+03  0.81551620165E+03  0.00000000000E+00 0. -1.
         -6    2    1    2    0  503 -0.64277366273E+02 -0.49123299583E+02 -0.63765706325E+03  0.66394428020E+03  0.16634541932E+03 0.  0.
        -24    2    3    3    0    0 -0.98295793399E+02  0.59706806977E+01 -0.43602642615E+03  0.45211981546E+03  0.67790642448E+02 0.  0.
          6    2    1    2  501    0  0.64277366273E+02  0.49123299583E+02 -0.11096277354E+03  0.21846828630E+03  0.16991461571E+03 0.  0.
         24    2    5    5    0    0  0.44471056793E+02  0.94243948135E+02 -0.52324693938E+02  0.14173056937E+03  0.80561057872E+02 0.  0.
          5    1    5    5  501    0  0.19806309480E+02 -0.45120648552E+02 -0.58638079602E+02  0.76737716935E+02  0.47000000000E+01 0. -1.
        -13    1    6    6    0    0  0.61461779549E+02  0.59367461686E+02 -0.56905740832E+02  0.10266600797E+03  0.00000000000E+00 0.  1.
         14    1    6    6    0    0 -0.16990722756E+02  0.34876486448E+02  0.45810468934E+01  0.39064561401E+02  0.00000000000E+00 0. -1.
         -5    1    3    3    0  503  0.34018427126E+02 -0.55093980281E+02 -0.20163063709E+03  0.21182446474E+03  0.47000000000E+01 0.  1.
         13    1    4    4    0    0 -0.30029312867E+02  0.12886528391E+02 -0.27701338543E+03  0.27893411042E+03  0.00000000000E+00 0. -1.
        -14    1    4    4    0    0 -0.68266480533E+02 -0.69158476932E+01 -0.15901304072E+03  0.17318570505E+03  0.00000000000E+00 0.  1.
</event>
<event>
12    1  0.8449700E-002  0.4326378E+03  0.7818608E-02  0.1033053E+00
         21   -1    0    0  503  502  0.00000000000E+00  0.00000000000E+00  0.57938898054E+03  0.57938898054E+03  0.00000000000E+00 0.  1.
         21   -1    0    0  501  503 -0.00000000000E+00 -0.00000000000E+00 -0.36013664352E+03  0.36013664352E+03  0.00000000000E+00 0. -1.
          6    2    1    2  501    0 -0.94032611130E+01  0.39659570049E+03 -0.41596734563E+02  0.43433485620E+03  0.17187177784E+03 0.  0.
         24    2    3    3    0    0 -0.30307052355E+02  0.89198580654E+02 -0.17720303617E+01  0.12362911947E+03  0.80038208854E+02 0.  0.
         -6    2    1    2    0  502  0.94032611130E+01 -0.39659570049E+03  0.26084907157E+03  0.50519076786E+03  0.17262358711E+03 0.  0.
        -24    2    5    5    0    0  0.68025420483E+01 -0.18108682759E+03  0.51262692591E+02  0.20452587418E+03  0.79776286278E+02 0.  0.
          5    1    3    3  501    0  0.20903791242E+02  0.30739711983E+03 -0.39824704201E+02  0.31070573673E+03  0.47000000000E+01 0. -1.
        -13    1    4    4    0    0  0.38214337986E-01  0.42998393491E+02 -0.38129261577E+02  0.57469156002E+02  0.00000000000E+00 0.  1.
         14    1    4    4    0    0 -0.30345266693E+02  0.46200187163E+02  0.36357231216E+02  0.66159963469E+02  0.00000000000E+00 0. -1.
         -5    1    5    5    0  502  0.26007190647E+01 -0.21550887290E+03  0.20958637898E+03  0.30066489368E+03  0.47000000000E+01 0. -1.
         11    1    6    6    0    0  0.38084504299E+02 -0.49487140580E+02  0.21324041508E+02  0.65985765864E+02  0.00000000000E+00 0. -1.
        -12    1    6    6    0    0 -0.31281962250E+02 -0.13159968701E+03  0.29938651083E+02  0.13854010832E+03  0.00000000000E+00 0.  1.
</event>
<event>
12    1  0.8449700E-002  0.1751399E+03  0.7818608E-02  0.1172988E+00
         21   -1    0    0  501  502  0.00000000000E+00  0.00000000000E+00  0.28659336803E+03  0.28659336803E+03  0.00000000000E+00 0. -1.
         21   -1    0    0  502  503 -0.00000000000E+00 -0.00000000000E+00 -0.27736037224E+03  0.27736037224E+03  0.00000000000E+00 0. -1.
         -6    2    1    2    0  503  0.77428362661E+01 -0.29118412521E+02 -0.21696924986E+03  0.27883624298E+03  0.17252872676E+03 0.  0.
        -24    2    3    3    0    0  0.69790880724E+02 -0.34525454073E+02 -0.12240614270E+03  0.16550722131E+03  0.79665566734E+02 0.  0.
          6    2    1    2  501    0 -0.77428362661E+01  0.29118412521E+02  0.22620224564E+03  0.28511749728E+03  0.17092892634E+03 0.  0.
         24    2    5    5    0    0 -0.66864786051E+02  0.37479299226E+02  0.12384609024E+03  0.16652499364E+03  0.80728693491E+02 0.  0.
          5    1    5    5  501    0  0.59121949785E+02 -0.83608867042E+01  0.10235615540E+03  0.11859250364E+03  0.47000000000E+01 0. -1.
        -11    1    6    6    0    0 -0.44902659434E+02  0.44307093933E+02  0.12841859660E+03  0.14307586571E+03  0.00000000000E+00 0.  1.
         12    1    6    6    0    0 -0.21962126618E+02 -0.68277947071E+01 -0.45725063529E+01  0.23449127926E+02  0.00000000000E+00 0. -1.
         -5    1    3    3    0  503 -0.62048044458E+02  0.54070415514E+01 -0.94563107155E+02  0.11332902168E+03  0.47000000000E+01 0.  1.
         11    1    4    4    0    0  0.64354424227E+02 -0.45754259428E+02 -0.12911204160E+03  0.15134352797E+03  0.00000000000E+00 0. -1.
        -12    1    4    4    0    0  0.54364564968E+01  0.11228805355E+02  0.67058988958E+01  0.14163693337E+02  0.00000000000E+00 0.  1.
</event>
<event>
12    1  0.8449700E-002  0.1807254E+03  0.7818608E-02  0.1167765E+00
         21   -1    0    0  501  502  0.00000000000E+00  0.00000000000E+00  0.19611055555E+03  0.19611055555E+03  0.00000000000E+00 0. -1.
         21   -1    0    0  502  503 -0.00000000000E+00 -0.00000000000E+00 -0.18487176206E+03  0.18487176206E+03  0.00000000000E+00 0. -1.
         -6    2    1    2    0  503  0.37207571410E+02  0.26386127683E+02 -0.58281980022E+02  0.18989064889E+03  0.17487434985E+03 0.  0.
        -24    2    3    3    0    0  0.16349097903E+02  0.27635832651E+02  0.36960842707E+02  0.92269324571E+02  0.78208005438E+02 0.  0.
          6    2    1    2  501    0 -0.37207571410E+02 -0.26386127683E+02  0.69520773513E+02  0.19109166872E+03  0.17205306391E+03 0.  0.
         24    2    5    5    0    0 -0.89676779265E+02 -0.11776379988E+02  0.54872867729E+02  0.13449561193E+03  0.83050768511E+02 0.  0.
          5    1    5    5  501    0  0.52469207855E+02 -0.14609747695E+02  0.14647905784E+02  0.56596056792E+02  0.47000000000E+01 0. -1.
        -11    1    6    6    0    0 -0.10692062422E+02  0.30769689707E+02  0.20105632959E+02  0.38279635320E+02  0.00000000000E+00 0.  1.
         12    1    6    6    0    0 -0.78984716842E+02 -0.42546069695E+02  0.34767234770E+02  0.96215976608E+02  0.00000000000E+00 0. -1.
         -5    1    3    3    0  503  0.20858473507E+02 -0.12497049681E+01 -0.95242822729E+02  0.97621324315E+02  0.47000000000E+01 0.  1.
         13    1    4    4    0    0  0.36423791418E+02  0.27939886672E+02 -0.45776202814E+01  0.46133333457E+02  0.00000000000E+00 0. -1.
        -14    1    4    4    0    0 -0.20074693515E+02 -0.30405402049E+00  0.41538462989E+02  0.46135991113E+02  0.00000000000E+00 0.  1.
</event>
<event>
12    1  0.8449700E-002  0.1730337E+03  0.7818608E-02  0.1174828E+00
         21   -1    0    0  501  502  0.00000000000E+00  0.00000000000E+00  0.64144215172E+03  0.64144215172E+03  0.00000000000E+00 0. -1.
         21   -1    0    0  502  503 -0.00000000000E+00 -0.00000000000E+00 -0.75013532794E+02  0.75013532794E+02  0.00000000000E+00 0. -1.
         -6    2    1    2    0  503 -0.64326111765E+01  0.15438763416E+01  0.62815013263E+02  0.18408256450E+03  0.17290720812E+03 0.  0.
        -24    2    3    3    0    0 -0.25182825537E+02  0.44851923215E+02 -0.12596820276E+02  0.94997256507E+02  0.78866527403E+02 0.  0.
          6    2    1    2  501    0  0.64326111765E+01 -0.15438763416E+01  0.50361360567E+03  0.53237312002E+03  0.17248395016E+03 0.  0.
         24    2    5    5    0    0 -0.39362693029E+01  0.43529799803E+02  0.15130777759E+03  0.17701325107E+03  0.80804144740E+02 0.  0.
          5    1    5    5  501    0  0.10368880479E+02 -0.45073676144E+02  0.35230582808E+03  0.35535986895E+03  0.47000000000E+01 0. -1.
        -13    1    6    6    0    0 -0.36118113467E+02  0.41494029459E+02  0.12028153461E+03  0.13226458396E+03  0.00000000000E+00 0.  1.
         14    1    6    6    0    0  0.32181844164E+02  0.20357703435E+01  0.31026242980E+02  0.44748667110E+02  0.00000000000E+00 0. -1.
         -5    1    3    3    0  503  0.18750214361E+02 -0.43308046874E+02  0.75411833540E+02  0.89085307994E+02  0.47000000000E+01 0.  1.
         11    1    4    4    0    0 -0.81112099536E+01 -0.53299789907E+01 -0.35831168486E+02  0.37122406146E+02  0.00000000000E+00 0. -1.
        -12    1    4    4    0    0 -0.17071615584E+02  0.50181902206E+02  0.23234348210E+02  0.57874850361E+02  0.00000000000E+00 0.  1.
</event>
<event>
12    1  0.8449700E-002  0.3212067E+03  0.7818608E-02  0.1075227E+00
         21   -1    0    0  501  502  0.00000000000E+00  0.00000000000E+00  0.16636875378E+03  0.16636875378E+03  0.00000000000E+00 0.  1.
         21   -1    0    0  502  503 -0.00000000000E+00 -0.00000000000E+00 -0.62316579928E+03  0.62316579928E+03  0.00000000000E+00 0. -1.
         -6    2    1    2    0  503  0.25844170482E+03  0.76406802102E+02 -0.26496002140E+03  0.41638629333E+03  0.17476732572E+03 0.  0.
        -24    2    3    3    0    0  0.19707313589E+03  0.30778809025E+02 -0.10521924063E+03  0.23922190063E+03  0.79817749679E+02 0.  0.
          6    2    1    2  501    0 -0.25844170482E+03 -0.76406802102E+02 -0.19183702409E+03  0.37314825972E+03  0.17265012518E+03 0.  0.
         24    2    5    5    0    0 -0.14107708858E+03 -0.45569059947E+02 -0.32644582431E+02  0.17292402800E+03  0.82811632948E+02 0.  0.
          5    1    5    5  501    0 -0.11736461624E+03 -0.30837742155E+02 -0.15919244166E+03  0.20022423172E+03  0.47000000000E+01 0. -1.
        -11    1    6    6    0    0 -0.91315220521E+02 -0.59738980929E+02 -0.47623051882E+02  0.11905952466E+03  0.00000000000E+00 0.  1.
         12    1    6    6    0    0 -0.49761868061E+02  0.14169920982E+02  0.14978469451E+02  0.53864503345E+02  0.00000000000E+00 0. -1.
         -5    1    3    3    0  503  0.61368568931E+02  0.45627993077E+02 -0.15974078076E+03  0.17716439271E+03  0.47000000000E+01 0.  1.
         11    1    4    4    0    0  0.14921134421E+03  0.48210575228E+02 -0.10420643654E+03  0.18827444389E+03  0.00000000000E+00 0. -1.
        -12    1    4    4    0    0  0.47861791681E+02 -0.17431766203E+02 -0.10128040951E+01  0.50947456737E+02  0.00000000000E+00 0.  1.
</event>
<event>
12    1  0.8449700E-002  0.1909150E+03  0.7818608E-02  0.1158123E+00
         21   -1    0    0  503  502  0.00000000000E+00  0.00000000000E+00  0.30236966365E+02  0.30236966365E+02  0.00000000000E+00 0.  1.
         21   -1    0    0  501  503 -0.00000000000E+00 -0.00000000000E+00 -0.15871556153E+04  0.15871556153E+04  0.00000000000E+00 0.  1.
          6    2    1    2  501    0  0.72859912166E+02 -0.26276602148E+02 -0.11853349667E+04  0.12006113104E+04  0.17449787598E+03 0.  0.
         24    2    3    3    0    0  0.34360705997E+02  0.53531972250E+02 -0.58690784015E+03  0.59564130021E+03  0.79255381614E+02 0.  0.
         -6    2    1    2    0  502 -0.72859912166E+02  0.26276602148E+02 -0.37158368220E+03  0.41678127124E+03  0.17214287252E+03 0.  0.
        -24    2    5    5    0    0 -0.16681118605E+02  0.14510628908E+02 -0.34212480867E+03  0.35209425398E+03  0.80200753804E+02 0.  0.
          5    1    3    3  501    0  0.38499206169E+02 -0.79808574398E+02 -0.59842712657E+03  0.60497001020E+03  0.47000000000E+01 0. -1.
        -11    1    4    4    0    0  0.13436674207E+02 -0.15645753717E+02 -0.53121941505E+02  0.56984861958E+02  0.00000000000E+00 0.  1.
         12    1    4    4    0    0  0.20924031790E+02  0.69177725966E+02 -0.53378589864E+03  0.53865643825E+03  0.00000000000E+00 0. -1.
         -5    1    5    5    0  502 -0.56178793562E+02  0.11765973240E+02 -0.29458873527E+02  0.64687017259E+02  0.47000000000E+01 0.  1.
         13    1    6    6    0    0 -0.46719705070E+01 -0.44744595488E-01 -0.32917486930E+03  0.32920802525E+03  0.00000000000E+00 0. -1.
        -14    1    6    6    0    0 -0.12009148098E+02  0.14555373504E+02 -0.12949939369E+02  0.22886228731E+02  0.00000000000E+00 0.  1.
</event>
<event>
12    1  0.8449700E-002  0.1833765E+03  0.7818608E-02  0.1165625E+00
         21   -1    0    0  503  502  0.00000000000E+00  0.00000000000E+00  0.10468096426E+04  0.10468096426E+04  0.00000000000E+00 0. -1.
         21   -1    0    0  501  503 -0.00000000000E+00 -0.00000000000E+00 -0.63755246352E+02  0.63755246352E+02  0.00000000000E+00 0. -1.
          6    2    1    2  501    0 -0.54474627184E+02  0.29360901481E+02  0.98644074816E+02  0.20822484938E+03  0.17261919609E+03 0.  0.
         24    2    3    3    0    0 -0.17689899175E+02  0.84207597100E+02  0.67293372084E+02  0.13497027412E+03  0.79276257649E+02 0.  0.
         -6    2    1    2    0  502  0.54474627184E+02 -0.29360901481E+02  0.88441032146E+03  0.90234003960E+03  0.16794755973E+03 0.  0.
        -24    2    5    5    0    0  0.84061240616E+02 -0.65512968199E+02  0.63351730507E+03  0.64709165998E+03  0.77622158077E+02 0.  0.
          5    1    3    3  501    0 -0.36784728009E+02 -0.54846695619E+02  0.31350702732E+02  0.73254575262E+02  0.47000000000E+01 0. -1.
        -11    1    4    4    0    0 -0.28593399636E+02  0.67667894561E+02  0.82152247570E+02  0.11020670686E+03  0.00000000000E+00 0.  1.
         12    1    4    4    0    0  0.10903500462E+02  0.16539702539E+02 -0.14858875486E+02  0.24763567253E+02  0.00000000000E+00 0. -1.
         -5    1    5    5    0  502 -0.29586613432E+02  0.36152066718E+02  0.25089301639E+03  0.25524837961E+03  0.47000000000E+01 0.  1.
         11    1    6    6    0    0  0.21229553057E+02 -0.56436259591E+02  0.42096249550E+03  0.42525894222E+03  0.00000000000E+00 0. -1.
        -12    1    6    6    0    0  0.62831687559E+02 -0.90767086072E+01  0.21255480957E+03  0.22183271777E+03  0.00000000000E+00 0.  1.
</event>
<event>
12    1  0.8449700E-002  0.1950394E+03  0.7818608E-02  0.1154527E+00
         21   -1    0    0  503  502  0.00000000000E+00  0.00000000000E+00  0.17697281465E+03  0.17697281465E+03  0.00000000000E+00 0.  1.
         21   -1    0    0  501  503 -0.00000000000E+00 -0.00000000000E+00 -0.30376601023E+03  0.30376601023E+03  0.00000000000E+00 0.  1.
          6    2    1    2  501    0  0.63653604689E+02  0.60434467993E+02 -0.19503127689E+03  0.27410676253E+03  0.17144448660E+03 0.  0.
         24    2    3    3    0    0  0.99858706950E+02  0.40999074312E+01 -0.11912069994E+03  0.17277119209E+03  0.75309847078E+02 0.  0.
         -6    2    1    2    0  502 -0.63653604689E+02 -0.60434467993E+02  0.68238081307E+02  0.20663206236E+03  0.17417309535E+03 0.  0.
        -24    2    5    5    0    0 -0.44672489840E+02 -0.78841539734E+02  0.10671516827E+03  0.15971000750E+03  0.76860520559E+02 0.  0.
          5    1    3    3  501    0 -0.36205102261E+02  0.56334560562E+02 -0.75910576943E+02  0.10133557043E+03  0.47000000000E+01 0. -1.
        -11    1    4    4    0    0  0.23288374387E+02 -0.10614738756E+02 -0.82968711624E+02  0.86826425522E+02  0.00000000000E+00 0.  1.
         12    1    4    4    0    0  0.76570332563E+02  0.14714646187E+02 -0.36151988321E+02  0.85944766570E+02  0.00000000000E+00 0. -1.
         -5    1    5    5    0  502 -0.18981114849E+02  0.18407071742E+02 -0.38477086964E+02  0.46922054859E+02  0.47000000000E+01 0.  1.
         11    1    6    6    0    0  0.13265255418E+02 -0.10145392123E+02 -0.39413167905E+01  0.17158961527E+02  0.00000000000E+00 0. -1.
        -12    1    6    6    0    0 -0.57937745258E+02 -0.68696147611E+02  0.11065648506E+03  0.14255104597E+03  0.00000000000E+00 0.  1.
</event>
<event>
12    1  0.8449700E-002  0.2142400E+03  0.7818608E-02  0.1138363E+00
         21   -1    0    0  501  502  0.00000000000E+00  0.00000000000E+00  0.27501507785E+02  0.27501507785E+02  0.00000000000E+00 0.  1.
         21   -1    0    0  502  503 -0.00000000000E+00 -0.00000000000E+00 -0.28210110755E+04  0.28210110755E+04  0.00000000000E+00 0.  1.
         -6    2    1    2    0  503 -0.11988177621E+03 -0.43401007754E+02 -0.23075876908E+04  0.23174581243E+04  0.17145238332E+03 0.  0.
        -24    2    3    3    0    0 -0.45344997413E+02 -0.62216986254E+02 -0.79072044493E+03  0.79863683665E+03  0.81577280279E+02 0.  0.
          6    2    1    2  501    0  0.11988177621E+03  0.43401007754E+02 -0.48592187696E+03  0.53105445896E+03  0.17217282053E+03 0.  0.
         24    2    5    5    0    0  0.13905972451E+03 -0.80897056326E+00 -0.32107852098E+03  0.35924718934E+03  0.81417842013E+02 0.  0.
          5    1    5    5  501    0 -0.19177948303E+02  0.44209978317E+02 -0.16484335598E+03  0.17180726963E+03  0.47000000000E+01 0. -1.
        -11    1    6    6    0    0  0.84025614727E+02  0.23881442540E+01 -0.27448294781E+03  0.28706601297E+03  0.00000000000E+00 0.  1.
         12    1    6    6    0    0  0.55034109783E+02 -0.31971148173E+01 -0.46595573166E+02  0.72181176364E+02  0.00000000000E+00 0. -1.
         -5    1    3    3    0  503 -0.74536778794E+02  0.18815978500E+02 -0.15168672458E+04  0.15188212877E+04  0.47000000000E+01 0.  1.
         13    1    4    4    0    0 -0.23085150996E+02  0.81316507429E+01 -0.70126202297E+02  0.74274707599E+02  0.00000000000E+00 0. -1.
        -14    1    4    4    0    0 -0.22259846417E+02 -0.70348636997E+02 -0.72059424263E+03  0.72436212905E+03  0.00000000000E+00 0.  1.
</event>
<event>
12    1  0.8449700E-002  0.1985398E+03  0.7818608E-02  0.1151110E+00
         21   -1    0    0  501  502  0.00000000000E+00  0.00000000000E+00  0.61333037696E+02  0.61333037696E+02  0.00000000000E+00 0. -1.
         21   -1    0    0  502  503 -0.00000000000E+00 -0.00000000000E+00 -0.70598297920E+03  0.70598297920E+03  0.00000000000E+00 0. -1.
         -6    2    1    2    0  503 -0.74041703412E+00  0.99515905935E+02 -0.43947976196E+03  0.48224527396E+03  0.17179662201E+03 0.  0.
        -24    2    3    3    0    0 -0.39465891504E+02  0.10052468213E+03 -0.21465819473E+03  0.25406221785E+03  0.82502737331E+02 0.  0.
          6    2    1    2  501    0  0.74041703412E+00 -0.99515905935E+02 -0.20517017954E+03  0.28507074293E+03  0.17107472681E+03 0.  0.
         24    2    5    5    0    0 -0.14919498604E+02 -0.12036721237E+03 -0.10425649087E+03  0.18073631669E+03  0.84174479694E+02 0.  0.
          5    1    5    5  501    0  0.15659915638E+02  0.20851306431E+02 -0.10091368867E+03  0.10433442624E+03  0.47000000000E+01 0. -1.
        -11    1    6    6    0    0  0.27682102082E+02 -0.10177544057E+02 -0.20345853152E+02  0.35830642182E+02  0.00000000000E+00 0.  1.
         12    1    6    6    0    0 -0.42601600686E+02 -0.11018966831E+03 -0.83910637716E+02  0.14490567451E+03  0.00000000000E+00 0. -1.
         -5    1    3    3    0  503  0.38725474470E+02 -0.10087761909E+01 -0.22482156724E+03  0.22818305611E+03  0.47000000000E+01 0.  1.
         11    1    4    4    0    0  0.11712600806E+02  0.36619021530E+02 -0.13293213654E+03  0.13838023949E+03  0.00000000000E+00 0. -1.
        -12    1    4    4    0    0 -0.51178492311E+02  0.63905660596E+02 -0.81726058188E+02  0.11568197836E+03  0.00000000000E+00 0.  1.
</event>
<event>
12    1  0.8449700E-002  0.2236397E+03  0.7818608E-02  0.1131802E+00
         21   -1    0    0  501  502  0.00000000000E+00  0.00000000000E+00  0.40100902010E+03  0.40100902010E+03  0.00000000000E+00 0. -1.
         21   -1    0    0  502  503 -0.00000000000E+00 -0.00000000000E+00 -0.22602274677E+03  0.22602274677E+03  0.00000000000E+00 0.  1.
         -6    2    1    2    0  503  0.66259223634E+02  0.12145911542E+03 -0.12462678693E+03  0.25315651548E+03  0.17150447187E+03 0.  0.
        -24    2    3    3    0    0  0.43900423937E+02 -0.33657644027E+00 -0.65074159370E+02  0.11566938179E+03  0.84955277415E+02 0.  0.
          6    2    1    2  501    0 -0.66259223634E+02 -0.12145911542E+03  0.29961306026E+03  0.37387525140E+03  0.17570462799E+03 0.  0.
         24    2    5    5    0    0 -0.47853175980E+02 -0.15097787254E+03  0.28503646610E+03  0.33586595373E+03  0.80473022946E+02 0.  0.
          5    1    5    5  501    0 -0.18406047653E+02  0.29518757117E+02  0.14576594157E+02  0.38009297668E+02  0.47000000000E+01 0. -1.
        -13    1    6    6    0    0 -0.43997803918E+02 -0.40316973808E+02  0.57759345136E+02  0.83050629602E+02  0.00000000000E+00 0.  1.
         14    1    6    6    0    0 -0.38553720620E+01 -0.11066089873E+03  0.22727712097E+03  0.25281532413E+03  0.00000000000E+00 0. -1.
         -5    1    3    3    0  503  0.22358799697E+02  0.12179569186E+03 -0.59552627559E+02  0.13748713368E+03  0.47000000000E+01 0.  1.
         13    1    4    4    0    0  0.37930455391E+02 -0.11123680899E+02  0.90303281736E+01  0.40546301309E+02  0.00000000000E+00 0. -1.
        -14    1    4    4    0    0  0.59699685459E+01  0.10787104458E+02 -0.74104487544E+02  0.75123080483E+02  0.00000000000E+00 0.  1.
</event>
<event>
12    1  0.8449700E-002  0.1763675E+03  0.7818608E-02  0.1172137E+00
         21   -1    0    0  501  502  0.00000000000E+00  0.00000000000E+00  0.41874307239E+03  0.41874307239E+03  0.00000000000E+00 0. -1.
         21   -1    0    0  502  503 -0.00000000000E+00 -0.00000000000E+00 -0.24804285904E+03  0.24804285904E+03  0.00000000000E+00 0. -1.
         -6    2    1    2    0  503  0.15717526702E+02 -0.18559868941E+02 -0.19494223512E+03  0.26083041929E+03  0.17157658119E+03 0.  0.
        -24    2    3    3    0    0  0.33251250014E+02 -0.18930443380E+02 -0.21560982428E+03  0.23332027534E+03  0.80540345453E+02 0.  0.
          6    2    1    2  501    0 -0.15717526702E+02  0.18559868941E+02  0.36564244847E+03  0.40595551215E+03  0.17468247862E+03 0.  0.
         24    2    5    5    0    0 -0.58805475347E+01  0.15285900779E+02  0.61152399735E+02  0.10125276387E+03  0.79020671955E+02 0.  0.
          5    1    5    5  501    0 -0.98369791675E+01  0.32739681614E+01  0.30449004874E+03  0.30470274828E+03  0.47000000000E+01 0. -1.
        -13    1    6    6    0    0 -0.23486190450E+02  0.39941647941E+02  0.20790929686E+02  0.50785816320E+02  0.00000000000E+00 0.  1.
         14    1    6    6    0    0  0.17605642915E+02 -0.24655747162E+02  0.40361470049E+02  0.50466947550E+02  0.00000000000E+00 0. -1.
         -5    1    3    3    0  503 -0.17533723312E+02  0.37057443936E+00  0.20667589156E+02  0.27510143949E+02  0.47000000000E+01 0.  1.
         11    1    4    4    0    0  0.33019048649E+02  0.25757782152E+02 -0.76548939757E+02  0.87255149378E+02  0.00000000000E+00 0. -1.
        -12    1    4    4    0    0  0.23220136531E+00 -0.44688225532E+02 -0.13906088452E+03  0.14606512596E+03  0.00000000000E+00 0.  1.
</event>
<event>
12    1  0.8449700E-002  0.1904394E+03  0.7818608E-02  0.1158263E+00
         21   -1    0    0  503  502  0.00000000000E+00  0.00000000000E+00  0.49326697533E+03  0.49326697533E+03  0.00000000000E+00 0.  1.
         21   -1    0    0  501  503 -0.00000000000E+00 -0.00000000000E+00 -0.31998693276E+03  0.31998693276E+03  0.00000000000E+00 0.  1.
          6    2    1    2  501    0 -0.60877391894E+02 -0.56273307631E+02 -0.27051649617E+03  0.33032273732E+03  0.17047344102E+03 0.  0.
         24    2    3    3    0    0 -0.51846363448E+02  0.33510918455E+01 -0.25666624149E+03  0.26826995300E+03  0.58240303396E+02 0.  0.
         -6    2    1    2    0  502  0.60877391894E+02  0.56273307631E+02  0.44379653874E+03  0.48293117077E+03  0.17144796850E+03 0.  0.
        -24    2    5    5    0    0 -0.12886903137E+02  0.91359423725E+01  0.10325591240E+03  0.13128772832E+03  0.79530789301E+02 0.  0.
          5    1    3    3  501    0 -0.90310284461E+01 -0.59624399476E+02 -0.13850254679E+02  0.62052784324E+02  0.47000000000E+01 0. -1.
        -13    1    4    4    0    0 -0.17958698700E+02 -0.24794859787E+02 -0.68737677558E+02  0.75247380333E+02  0.00000000000E+00 0.  1.
         14    1    4    4    0    0 -0.33887664749E+02  0.28145951633E+02 -0.18792856393E+03  0.19302257266E+03  0.00000000000E+00 0. -1.
         -5    1    5    5    0  502  0.73764295032E+02  0.47137365258E+02  0.34054062634E+03  0.35164344245E+03  0.47000000000E+01 0.  1.
         11    1    6    6    0    0 -0.15229078424E+02 -0.59346491742E+01 -0.85503995015E+01  0.18445981191E+02  0.00000000000E+00 0. -1.
        -12    1    6    6    0    0  0.23421752865E+01  0.15070591547E+02  0.11180631190E+03  0.11284174713E+03  0.00000000000E+00 0.  1.
</event>
<event>
12    1  0.8449700E-002  0.2370283E+03  0.7818608E-02  0.1121921E+00
         21   -1    0    0  501  502  0.00000000000E+00  0.00000000000E+00  0.37912054831E+02  0.37912054831E+02  0.00000000000E+00 0.  1.
         21   -1    0    0  502  503 -0.00000000000E+00 -0.00000000000E+00 -0.16825615362E+04  0.16825615362E+04  0.00000000000E+00 0.  1.
         -6    2    1    2    0  503 -0.15238988861E+03 -0.56802237163E+02 -0.11241758846E+04  0.11488924395E+04  0.17243330800E+03 0.  0.
        -24    2    3    3    0    0 -0.70598748444E+01 -0.36307557759E+02 -0.36085315471E+03  0.37157363439E+03  0.80522580266E+02 0.  0.
          6    2    1    2  501    0  0.15238988861E+03  0.56802237163E+02 -0.52047359678E+03  0.57158115155E+03  0.17135657433E+03 0.  0.
         24    2    5    5    0    0  0.11888414605E+03  0.10206956841E+03 -0.34052672270E+03  0.38296849675E+03  0.78452429196E+02 0.  0.
          5    1    5    5  501    0  0.33505742558E+02 -0.45267331246E+02 -0.17994687408E+03  0.18861265481E+03  0.47000000000E+01 0. -1.
        -13    1    6    6    0    0  0.39385500472E+02  0.45859740528E+02 -0.56601779254E+02  0.82813615205E+02  0.00000000000E+00 0.  1.
         14    1    6    6    0    0  0.79498645581E+02  0.56209827881E+02 -0.28392494345E+03  0.30015488154E+03  0.00000000000E+00 0. -1.
         -5    1    3    3    0  503 -0.14533001377E+03 -0.20494679404E+02 -0.76332272993E+03  0.77731880514E+03  0.47000000000E+01 0.  1.
         11    1    4    4    0    0 -0.11317895419E+02 -0.58406569920E+02 -0.31411408762E+03  0.31969842384E+03  0.00000000000E+00 0. -1.
        -12    1    4    4    0    0  0.42580205748E+01  0.22099012161E+02 -0.46739067088E+02  0.51875210553E+02  0.00000000000E+00 0.  1.
</event>
<event>
12    1  0.8449700E-002  0.2133095E+03  0.7818608E-02  0.1139329E+00
         21   -1    0    0  503  502  0.00000000000E+00  0.00000000000E+00  0.16242709613E+03  0.16242709613E+03  0.00000000000E+00 0. -1.
         21   -1    0    0  501  503 -0.00000000000E+00 -0.00000000000E+00 -0.29192000793E+03  0.29192000793E+03  0.00000000000E+00 0.  1.
          6    2    1    2  501    0  0.10842109106E+03 -0.64298836814E+02 -0.14393195030E+02  0.21196539059E+03  0.16980191207E+03 0.  0.
         24    2    3    3    0    0 -0.12910681728E+01 -0.32178618450E+01 -0.24680883201E+02  0.85887756121E+02  0.82192086992E+02 0.  0.
         -6    2    1    2    0  502 -0.10842109106E+03  0.64298836814E+02 -0.11509971677E+03  0.24238171346E+03  0.17207985594E+03 0.  0.
        -24    2    5    5    0    0  0.23430244447E+01  0.25467319525E+02 -0.89540082124E+02  0.12216540450E+03  0.79075189680E+02 0.  0.
          5    1    3    3  501    0  0.10971215923E+03 -0.61080974969E+02  0.10287688172E+02  0.12607763447E+03  0.47000000000E+01 0. -1.
        -13    1    4    4    0    0 -0.34687413666E+02 -0.57733484248E+01  0.11101405924E+02  0.36875322811E+02  0.00000000000E+00 0.  1.
         14    1    4    4    0    0  0.33396345494E+02  0.25554865797E+01 -0.35782289125E+02  0.49012433311E+02  0.00000000000E+00 0. -1.
         -5    1    5    5    0  502 -0.11076411550E+03  0.38831517289E+02 -0.25559634643E+02  0.12021630896E+03  0.47000000000E+01 0.  1.
         13    1    6    6    0    0  0.15854153161E+02  0.23792956261E+02  0.28910115994E+01  0.28737029912E+02  0.00000000000E+00 0. -1.
        -14    1    6    6    0    0 -0.13511128717E+02  0.16743632639E+01 -0.92431093723E+02  0.93428374589E+02  0.00000000000E+00 0.  1.
</event>
<event>
12    1  0.8449700E-002  0.1915692E+03  0.7818608E-02  0.1158781E+00
         21   -1    0    0  501  502  0.00000000000E+00  0.00000000000E+00  0.80297367429E+02  0.80297367429E+02  0.00000000000E+00 0. -1.
         21   -1    0    0  502  503 -0.00000000000E+00 -0.00000000000E+00 -0.44705075048E+03  0.44705075048E+03  0.00000000000E+00 0. -1.
         -6    2    1    2    0  503  0.19652678571E+02 -0.63980148634E+02 -0.22209059825E+03  0.29329677049E+03  0.17949672574E+03 0.  0.
        -24    2    3    3    0    0 -0.59076488916E+02 -0.51058656854E+02 -0.12347322573E+03  0.16636086963E+03  0.79581929421E+02 0.  0.
          6    2    1    2  501    0 -0.19652678571E+02  0.63980148634E+02 -0.14466278480E+03  0.23405134742E+03  0.17138560246E+03 0.  0.
         24    2    5    5    0    0 -0.45729734563E+01 -0.21405869330E+02 -0.24107059235E+02  0.85478326531E+02  0.79033351653E+02 0.  0.
          5    1    5    5  501    0 -0.15079705114E+02  0.85386017965E+02 -0.12055572557E+03  0.14857302089E+03  0.47000000000E+01 0. -1.
        -13    1    6    6    0    0 -0.36687146965E+02 -0.18301091435E+02 -0.32296392074E+02  0.52191317680E+02  0.00000000000E+00 0.  1.
         14    1    6    6    0    0  0.32114173508E+02 -0.31047778956E+01  0.81893328398E+01  0.33287008851E+02  0.00000000000E+00 0. -1.
         -5    1    3    3    0  503  0.78729167486E+02 -0.12921491780E+02 -0.98617372520E+02  0.12693590085E+03  0.47000000000E+01 0.  1.
         11    1    4    4    0    0 -0.17837714042E+01 -0.19567642440E+02 -0.91497021708E+02  0.93583008353E+02  0.00000000000E+00 0. -1.
        -12    1    4    4    0    0 -0.57292717512E+02 -0.31491014414E+02 -0.31976204022E+02  0.72777861279E+02  0.00000000000E+00 0.  1.
</event>
<event>
12    1  0.8449700E-002  0.1821061E+03  0.7818608E-02  0.1166074E+00
         21   -1    0    0  501  502  0.00000000000E+00  0.00000000000E+00  0.18069036660E+03  0.18069036660E+03  0.00000000000E+00 0. -1.
         21   -1    0    0  502  503 -0.00000000000E+00 -0.00000000000E+00 -0.19641874781E+03  0.19641874781E+03  0.00000000000E+00 0. -1.
         -6    2    1    2    0  503 -0.12598025360E+02 -0.55233511219E+02  0.42667453127E+02  0.18703777433E+03  0.17306983118E+03 0.  0.
        -24    2    3    3    0    0  0.82670990458E+01 -0.10238630927E+03  0.28189242025E+02  0.13327488399E+03  0.80101561050E+02 0.  0.
          6    2    1    2  501    0  0.12598025360E+02  0.55233511219E+02 -0.58395834328E+02  0.19007134008E+03  0.17177773386E+03 0.  0.
         24    2    5    5    0    0 -0.22312251455E+02  0.52889344061E+02 -0.96398603102E+02  0.13820108867E+03  0.80695296951E+02 0.  0.
          5    1    5    5  501    0  0.34910276816E+02  0.23441671582E+01  0.38002768773E+02  0.51870251411E+02  0.47000000000E+01 0. -1.
        -13    1    6    6    0    0  0.14856864568E+02 -0.14962743274E+02 -0.14832432718E+02  0.25780053751E+02  0.00000000000E+00 0.  1.
         14    1    6    6    0    0 -0.37169116024E+02  0.67852087334E+02 -0.81566170384E+02  0.11242103492E+03  0.00000000000E+00 0. -1.
         -5    1    3    3    0  503 -0.20865124406E+02  0.47152798056E+02  0.14478211102E+02  0.53762890340E+02  0.47000000000E+01 0.  1.
         11    1    4    4    0    0  0.10861437981E+02 -0.98507350194E+02 -0.55068278500E+01  0.99257211477E+02  0.00000000000E+00 0. -1.
        -12    1    4    4    0    0 -0.25943389347E+01 -0.38789590807E+01  0.33696069875E+02  0.34017672511E+02  0.00000000000E+00 0.  1.
</event>
<event>
12    1  0.8449700E-002  0.2005472E+03  0.7818608E-02  0.1149287E+00
         21   -1    0    0  501  502  0.00000000000E+00  0.00000000000E+00  0.48774756484E+02  0.48774756484E+02  0.00000000000E+00 0.  1.
         21   -1    0    0  502  503 -0.00000000000E+00 -0.00000000000E+00 -0.90708582836E+03  0.90708582836E+03  0.00000000000E+00 0.  1.
         -6    2    1    2    0  503 -0.67186510106E+02 -0.73634299358E+02 -0.57339683707E+03  0.60744229010E+03  0.17397173869E+03 0.  0.
        -24    2    3    3    0    0 -0.71747719444E+01 -0.33024892932E+02 -0.48663099557E+03  0.49430107807E+03  0.79885599665E+02 0.  0.
          6    2    1    2  501    0  0.67186510106E+02  0.73634299358E+02 -0.28491423481E+03  0.34841829474E+03  0.17402054400E+03 0.  0.
         24    2    5    5    0    0 -0.12406427765E+02  0.62958208751E+02 -0.22833104550E+03  0.25006809402E+03  0.79254840916E+02 0.  0.
          5    1    5    5  501    0  0.79592937871E+02  0.10676090608E+02 -0.56583189302E+02  0.98350200718E+02  0.47000000000E+01 0. -1.
        -11    1    6    6    0    0  0.12353246850E+02  0.34434871690E+02 -0.27633420282E+02  0.45847235604E+02  0.00000000000E+00 0.  1.
         12    1    6    6    0    0 -0.24759674615E+02  0.28523337061E+02 -0.20069762522E+03  0.20422085842E+03  0.00000000000E+00 0. -1.
         -5    1    3    3    0  503 -0.60011738162E+02 -0.40609406427E+02 -0.86765841504E+02  0.11314121203E+03  0.47000000000E+01 0.  1.
         13    1    4    4    0    0  0.19173438225E+02  0.12718624400E+01 -0.29999116006E+02  0.35625627414E+02  0.00000000000E+00 0. -1.
        -14    1    4    4    0    0 -0.26348210170E+02 -0.34296755372E+02 -0.45663187956E+03  0.45867545066E+03  0.00000000000E+00 0.  1.
</event>
<event>
12    1  0.8449700E-002  0.2096720E+03  0.7818608E-02  0.1142170E+00
         21   -1    0    0  503  502  0.00000000000E+00  0.00000000000E+00  0.10309253234E+04  0.10309253234E+04  0.00000000000E+00 0. -1.
         21   -1    0    0  501  503 -0.00000000000E+00 -0.00000000000E+00 -0.77333453381E+02  0.77333453381E+02  0.00000000000E+00 0.  1.
          6    2    1    2  501    0 -0.50188873043E+02 -0.10569309272E+03  0.10487420272E+03  0.23443751137E+03  0.17398964197E+03 0.  0.
         24    2    3    3    0    0 -0.18149978651E+02 -0.41957343628E+02 -0.16912622201E+02  0.93218329987E+02  0.79459296790E+02 0.  0.
         -6    2    1    2    0  502  0.50188873043E+02  0.10569309272E+03  0.84871766726E+03  0.87382126537E+03  0.17190687091E+03 0.  0.
        -24    2    5    5    0    0  0.17194185360E+02 -0.83048971601E+01  0.23324634416E+03  0.24699494917E+03  0.78981241624E+02 0.  0.
          5    1    3    3  501    0 -0.32038894392E+02 -0.63735749095E+02  0.12178682492E+03  0.14121918138E+03  0.47000000000E+01 0. -1.
        -11    1    4    4    0    0 -0.24106263383E+02 -0.63360444424E+02 -0.49147794261E+01  0.67969205591E+02  0.00000000000E+00 0.  1.
         12    1    4    4    0    0  0.59562847318E+01  0.21403100796E+02 -0.11997842775E+02  0.25249124395E+02  0.00000000000E+00 0. -1.
         -5    1    5    5    0  502  0.32994687683E+02  0.11399798988E+03  0.61547132311E+03  0.62682631620E+03  0.47000000000E+01 0.  1.
         11    1    6    6    0    0 -0.26806054717E+02 -0.41614025351E+01  0.15297444473E+03  0.15536107164E+03  0.00000000000E+00 0. -1.
        -12    1    6    6    0    0  0.44000240077E+02 -0.41434946250E+01  0.80271899426E+02  0.91633877535E+02  0.00000000000E+00 0.  1.
</event>
<event>
12    1  0.8449700E-002  0.2378365E+03  0.7818608E-02  0.1121293E+00
         21   -1    0    0  501  502  0.00000000000E+00  0.00000000000E+00  0.54338530277E+03  0.54338530277E+03  0.00000000000E+00 0. -1.
         21   -1    0    0  502  503 -0.00000000000E+00 -0.00000000000E+00 -0.14897466919E+03  0.14897466919E+03  0.00000000000E+00 0. -1.
         -6    2    1    2    0  503 -0.11959861621E+03  0.11237987161E+03  0.70164115056E+01  0.23793995998E+03  0.17214276046E+03 0.  0.
        -24    2    3    3    0    0  0.44925839667E+01  0.52374259664E+02 -0.20248957465E+02  0.97352656945E+02  0.79399453083E+02 0.  0.
          6    2    1    2  501    0  0.11959861621E+03 -0.11237987161E+03  0.38739422206E+03  0.45442001198E+03  0.17172710752E+03 0.  0.
         24    2    5    5    0    0  0.44021496348E+01 -0.11929832489E+02  0.89574321054E+02  0.11963766521E+03  0.78280981855E+02 0.  0.
          5    1    5    5  501    0  0.11519646658E+03 -0.10045003913E+03  0.29781990101E+03  0.33478234677E+03  0.47000000000E+01 0. -1.
        -11    1    6    6    0    0  0.13735258019E+02  0.96673614573E+01  0.94177903647E+02  0.95663957297E+02  0.00000000000E+00 0.  1.
         12    1    6    6    0    0 -0.93331083846E+01 -0.21597193946E+02 -0.46035825928E+01  0.23973707914E+02  0.00000000000E+00 0. -1.
         -5    1    3    3    0  503 -0.12409120018E+03  0.60005611951E+02  0.27265368970E+02  0.14058730303E+03  0.47000000000E+01 0.  1.
         11    1    4    4    0    0 -0.35396919011E+02  0.31164704834E+02  0.15587946307E+01  0.47186974299E+02  0.00000000000E+00 0. -1.
        -12    1    4    4    0    0  0.39889502977E+02  0.21209554830E+02 -0.21807752095E+02  0.50165682646E+02  0.00000000000E+00 0.  1.
</event>
<event>
12    1  0.8449700E-002  0.2542866E+03  0.7818608E-02  0.1110942E+00
         21   -1    0    0  501  502  0.00000000000E+00  0.00000000000E+00  0.32358129484E+03  0.32358129484E+03  0.00000000000E+00 0. -1.
         21   -1    0    0  502  503 -0.00000000000E+00 -0.00000000000E+00 -0.12002787946E+04  0.12002787946E+04  0.00000000000E+00 0. -1.
         -6    2    1    2    0  503  0.50843242778E+02 -0.18062650814E+03 -0.11348133031E+04  0.11629543784E+04  0.17161201181E+03 0.  0.
        -24    2    3    3    0    0  0.30560490602E+02 -0.15657433224E+03 -0.11053917991E+04  0.11196229568E+04  0.78835719976E+02 0.  0.
          6    2    1    2  501    0 -0.50843242778E+02  0.18062650814E+03  0.25811580331E+03  0.36090571105E+03  0.16857696631E+03 0.  0.
         24    2    5    5    0    0 -0.32685338380E+02  0.20814966894E+02  0.11929533902E+03  0.14839065390E+03  0.79289432225E+02 0.  0.
          5    1    5    5  501    0 -0.18157904398E+02  0.15981154124E+03  0.13882046430E+03  0.21251505715E+03  0.47000000000E+01 0. -1.
        -13    1    6    6    0    0 -0.47912508689E+02  0.30604634450E+01  0.11498688398E+03  0.12460721653E+03  0.00000000000E+00 0.  1.
         14    1    6    6    0    0  0.15227170309E+02  0.17754503449E+02  0.43084550423E+01  0.23783437372E+02  0.00000000000E+00 0. -1.
         -5    1    3    3    0  503  0.20282752176E+02 -0.24052175899E+02 -0.29421503955E+02  0.43331421582E+02  0.47000000000E+01 0.  1.
         11    1    4    4    0    0  0.19888634860E+02 -0.91282317119E+02 -0.38389258681E+03  0.39509687093E+03  0.00000000000E+00 0. -1.
        -12    1    4    4    0    0  0.10671855742E+02 -0.65292015117E+02 -0.72149921230E+03  0.72452608586E+03  0.00000000000E+00 0.  1.
</event>
<event>
12    1  0.8449700E-002  0.1838920E+03  0.7818608E-02  0.1164490E+00
         21   -1    0    0  503  502  0.00000000000E+00  0.00000000000E+00  0.36833773621E+02  0.36833773621E+02  0.00000000000E+00 0.  1.
         21   -1    0    0  501  503 -0.00000000000E+00 -0.00000000000E+00 -0.14877432591E+04  0.14877432591E+04  0.00000000000E+00 0.  1.
          6    2    1    2  501    0 -0.29996564756E+02  0.59048143666E+02 -0.11985815222E+04  0.12123501085E+04  0.16973109066E+03 0.  0.
         24    2    3    3    0    0 -0.49074357341E+02  0.94819247159E+02 -0.77406007371E+03  0.78587140538E+03  0.83820557762E+02 0.  0.
         -6    2    1    2    0  502  0.29996564756E+02 -0.59048143666E+02 -0.25232796331E+03  0.31222692422E+03  0.17155108269E+03 0.  0.
        -24    2    5    5    0    0 -0.28479857890E+02 -0.63507060221E+02 -0.88463216180E+02  0.13812029225E+03  0.80045146712E+02 0.  0.
          5    1    3    3  501    0  0.19077792585E+02 -0.35771103493E+02 -0.42452144850E+03  0.42647870317E+03  0.47000000000E+01 0. -1.
        -11    1    4    4    0    0 -0.66486659103E+02  0.92673312846E+02 -0.72152889736E+03  0.73048803445E+03  0.00000000000E+00 0.  1.
         12    1    4    4    0    0  0.17412301762E+02  0.21459343127E+01 -0.52531176351E+02  0.55383370930E+02  0.00000000000E+00 0. -1.
         -5    1    5    5    0  502  0.58476422646E+02  0.44589165547E+01 -0.16386474713E+03  0.17410663197E+03  0.47000000000E+01 0.  1.
         13    1    6    6    0    0 -0.27401870101E+02  0.69732534530E+01 -0.50952992766E+02  0.58272602658E+02  0.00000000000E+00 0. -1.
        -14    1    6    6    0    0 -0.10779877885E+01 -0.70480313674E+02 -0.37510223415E+02  0.79847689596E+02  0.00000000000E+00 0.  1.
</event>
<event>
12    1  0.8449700E-002  0.2211218E+03  0.7818608E-02  0.1133051E+00
         21   -1    0    0  501  502  0.00000000000E+00  0.00000000000E+00  0.46951885955E+03  0.46951885955E+03  0.00000000000E+00 0. -1.
         21   -1    0    0  502  503 -0.00000000000E+00 -0.00000000000E+00 -0.24942718365E+03  0.24942718365E+03  0.00000000000E+00 0. -1.
         -6    2    1    2    0  503 -0.34134074367E+02  0.13488724042E+03 -0.16431104747E+03  0.27548679670E+03  0.17185794185E+03 0.  0.
        -24    2    3    3    0    0  0.65351561782E+01  0.15571195278E+03 -0.12933539416E+03  0.21775429908E+03  0.80002312953E+02 0.  0.
          6    2    1    2  501    0  0.34134074367E+02 -0.13488724042E+03  0.38440272337E+03  0.44345924650E+03  0.17184570671E+03 0.  0.
         24    2    5    5    0    0  0.20463560306E+01 -0.67757121350E+02  0.83809885400E+02  0.13375903857E+03  0.79197022937E+02 0.  0.
          5    1    5    5  501    0  0.32087718336E+02 -0.67130119069E+02  0.30059283797E+03  0.30970020793E+03  0.47000000000E+01 0. -1.
        -11    1    6    6    0    0  0.16813933281E+02  0.13243313420E+02  0.12179992629E+02  0.24626122780E+02  0.00000000000E+00 0.  1.
         12    1    6    6    0    0 -0.14767577251E+02 -0.81000434770E+02  0.71629892771E+02  0.10913291579E+03  0.00000000000E+00 0. -1.
         -5    1    3    3    0  503 -0.40669230545E+02 -0.20824712364E+02 -0.34975653306E+02  0.57732497628E+02  0.47000000000E+01 0.  1.
         11    1    4    4    0    0  0.27753816793E+02  0.61577452026E+02 -0.16972147481E+02  0.69642736410E+02  0.00000000000E+00 0. -1.
        -12    1    4    4    0    0 -0.21218660615E+02  0.94134500757E+02 -0.11236324668E+03  0.14811156267E+03  0.00000000000E+00 0.  1.
</event>
<event>
12    1  0.8449700E-002  0.1765059E+03  0.7818608E-02  0.1172492E+00
         21   -1    0    0  501  502  0.00000000000E+00  0.00000000000E+00  0.32951822924E+03  0.32951822924E+03  0.00000000000E+00 0.  1.
         21   -1    0    0  502  503 -0.00000000000E+00 -0.00000000000E+00 -0.19266788859E+03  0.19266788859E+03  0.00000000000E+00 0.  1.
         -6    2    1    2    0  503 -0.37475625677E+02  0.12232183232E+02 -0.12087818197E+03  0.20981085127E+03  0.16689820133E+03 0.  0.
        -24    2    3    3    0    0 -0.41389699513E+02 -0.44327826932E+02 -0.32987426676E+02  0.10511496028E+03  0.79264879298E+02 0.  0.
          6    2    1    2  501    0  0.37475625677E+02 -0.12232183232E+02  0.25772852262E+03  0.31237526655E+03  0.17204728116E+03 0.  0.
         24    2    5    5    0    0  0.31717578288E+02 -0.32524198980E+02  0.27167462784E+03  0.28665552970E+03  0.79375443311E+02 0.  0.
          5    1    5    5  501    0  0.57580473892E+01  0.20292015748E+02 -0.13946105222E+02  0.25719736852E+02  0.47000000000E+01 0. -1.
        -13    1    6    6    0    0  0.50711781345E+01 -0.26521886395E+02  0.20250746653E+02  0.33752333929E+02  0.00000000000E+00 0.  1.
         14    1    6    6    0    0  0.26646400153E+02 -0.60023125848E+01  0.25142388119E+03  0.25290319577E+03  0.00000000000E+00 0. -1.
         -5    1    3    3    0  503  0.39140738359E+01  0.56560010164E+02 -0.87890755297E+02  0.10469589099E+03  0.47000000000E+01 0.  1.
         11    1    4    4    0    0 -0.55629598705E+02 -0.18724672294E+02  0.29240709680E+01  0.58769173856E+02  0.00000000000E+00 0. -1.
        -12    1    4    4    0    0  0.14239899193E+02 -0.25603154638E+02 -0.35911497644E+02  0.46345786426E+02  0.00000000000E+00 0.  1.
</event>
<event>
12    1  0.8449700E-002  0.2251674E+03  0.7818608E-02  0.1130654E+00
         21   -1    0    0  503  502  0.00000000000E+00  0.00000000000E+00  0.19834030079E+03  0.19834030079E+03  0.00000000000E+00 0. -1.
         21   -1    0    0  501  503 -0.00000000000E+00 -0.00000000000E+00 -0.39102698715E+03  0.39102698715E+03  0.00000000000E+00 0. -1.
          6    2    1    2  501    0  0.14216559548E+03 -0.51741526411E+01 -0.27241594342E+03  0.35342723334E+03  0.17453519599E+03 0.  0.
         24    2    3    3    0    0  0.17456418745E+03 -0.74795079104E+01 -0.23157136158E+03  0.30103111430E+03  0.80410432745E+02 0.  0.
         -6    2    1    2    0  502 -0.14216559548E+03  0.51741526411E+01  0.79729257058E+02  0.23594005460E+03  0.17050843539E+03 0.  0.
        -24    2    5    5    0    0 -0.11760250663E+03 -0.60194547978E+02  0.48656779910E+02  0.15936328795E+03  0.74668883366E+02 0.  0.
          5    1    3    3  501    0 -0.32398591967E+02  0.23053552692E+01 -0.40844581839E+02  0.52396119035E+02  0.47000000000E+01 0. -1.
        -11    1    4    4    0    0  0.23567487022E+02  0.43161783397E+00 -0.92979058965E+02  0.95920373980E+02  0.00000000000E+00 0.  1.
         12    1    4    4    0    0  0.15099670043E+03 -0.79111257443E+01 -0.13859230262E+03  0.20511074032E+03  0.00000000000E+00 0. -1.
         -5    1    5    5    0  502 -0.24563088849E+02  0.65368700619E+02  0.31072477148E+02  0.76576766650E+02  0.47000000000E+01 0.  1.
         13    1    6    6    0    0 -0.31364924448E+02 -0.29361403666E+02 -0.17492986110E+02  0.46388091940E+02  0.00000000000E+00 0. -1.
        -14    1    6    6    0    0 -0.86237582185E+02 -0.30833144313E+02  0.66149766021E+02  0.11297519601E+03  0.00000000000E+00 0.  1.
</event>
<event>
12    1  0.8449700E-002  0.2777820E+03  0.7818608E-02  0.1096960E+00
         21   -1    0    0  501  502  0.00000000000E+00  0.00000000000E+00  0.42623299090E+03  0.42623299090E+03  0.00000000000E+00 0. -1.
         21   -1    0    0  502  503 -0.00000000000E+00 -0.00000000000E+00 -0.18244064295E+03  0.18244064295E+03  0.00000000000E+00 0.  1.
         -6    2    1    2    0  503 -0.16569963798E+03 -0.14204603650E+03  0.92793736670E+02  0.29250375101E+03  0.17121425256E+03 0.  0.
        -24    2    3    3    0    0 -0.12903614568E+03 -0.10398054912E+03  0.13180093050E+03  0.22664903085E+03  0.80845633263E+02 0.  0.
          6    2    1    2  501    0  0.16569963798E+03  0.14204603650E+03  0.15099861128E+03  0.31616988284E+03  0.17184111177E+03 0.  0.
         24    2    5    5    0    0  0.19559572757E+02  0.89031493570E+02  0.81673345872E+02  0.14588910633E+03  0.79397179957E+02 0.  0.
          5    1    5    5  501    0  0.14614006522E+03  0.53014542926E+02  0.69325265412E+02  0.17028077651E+03  0.47000000000E+01 0. -1.
        -11    1    6    6    0    0 -0.69638949929E+01  0.48844625187E+02 -0.19684598872E+01  0.49377809566E+02  0.00000000000E+00 0.  1.
         12    1    6    6    0    0  0.26523467749E+02  0.40186868383E+02  0.83641805760E+02  0.96511296762E+02  0.00000000000E+00 0. -1.
         -5    1    3    3    0  503 -0.36663492299E+02 -0.38065487375E+02 -0.39007193833E+02  0.65854720160E+02  0.47000000000E+01 0.  1.
         11    1    4    4    0    0 -0.73801350295E+02 -0.27034593295E+02  0.21956376523E+02  0.81606317219E+02  0.00000000000E+00 0. -1.
        -12    1    4    4    0    0 -0.55234795384E+02 -0.76945955826E+02  0.10984455398E+03  0.14504271363E+03  0.00000000000E+00 0.  1.
</event>
<event>
12    1  0.8449700E-002  0.2666106E+03  0.7818608E-02  0.1103338E+00
         21   -1    0    0  503  502  0.00000000000E+00  0.00000000000E+00  0.49147048284E+02  0.49147048284E+02  0.00000000000E+00 0.  1.
         21   -1    0    0  501  503 -0.00000000000E+00 -0.00000000000E+00 -0.15168876316E+04  0.15168876316E+04  0.00000000000E+00 0. -1.
          6    2    1    2  501    0 -0.16255624575E+03  0.12157422866E+03 -0.90820907101E+03  0.94653309990E+03  0.17284781292E+03 0.  0.
         24    2    3    3    0    0 -0.23978365954E+02  0.81828374374E+02 -0.49745152567E+03  0.51118563780E+03  0.81128854385E+02 0.  0.
         -6    2    1    2    0  502  0.16255624575E+03 -0.12157422866E+03 -0.55953151235E+03  0.61950158003E+03  0.17176107894E+03 0.  0.
        -24    2    5    5    0    0  0.12616270784E+03 -0.10371230793E+03 -0.25732559735E+03  0.31455233364E+03  0.77803829471E+02 0.  0.
          5    1    3    3  501    0 -0.13857787980E+03  0.39745854288E+02 -0.41075754534E+03  0.43534746210E+03  0.47000000000E+01 0. -1.
        -13    1    4    4    0    0  0.16853025019E+02  0.65635577363E+02 -0.21758740051E+03  0.22789543727E+03  0.00000000000E+00 0.  1.
         14    1    4    4    0    0 -0.40831390973E+02  0.16192797012E+02 -0.27986412516E+03  0.28329020053E+03  0.00000000000E+00 0. -1.
         -5    1    5    5    0  502  0.36393537917E+02 -0.17861920730E+02 -0.30220591500E+03  0.30494924639E+03  0.47000000000E+01 0.  1.
         11    1    6    6    0    0  0.41182695456E+02  0.65271849909E+01 -0.61130926319E+02  0.73997356045E+02  0.00000000000E+00 0. -1.
        -12    1    6    6    0    0  0.84980012379E+02 -0.11023949292E+03 -0.19619467103E+03  0.24055497759E+03  0.00000000000E+00 0.  1.
</event>
<event>
12    1  0.8449700E-002  0.2209032E+03  0.7818608E-02  0.1133302E+00
         21   -1    0    0  501  502  0.00000000000E+00  0.00000000000E+00  0.23831470833E+03  0.23831470833E+03  0.00000000000E+00 0.  1.
         21   -1    0    0  502  503 -0.00000000000E+00 -0.00000000000E+00 -0.31120663099E+03  0.31120663099E+03  0.00000000000E+00 0. -1.
         -6    2    1    2    0  503  0.97234543230E+02 -0.98016130220E+02 -0.19744842553E+03  0.29592215562E+03  0.17182061361E+03 0.  0.
        -24    2    3    3    0    0 -0.13986782475E+02 -0.66736383132E+02 -0.10750888950E+03  0.14943046298E+03  0.78242744255E+02 0.  0.
          6    2    1    2  501    0 -0.97234543230E+02  0.98016130220E+02  0.12455650287E+03  0.25359918371E+03  0.17244275976E+03 0.  0.
         24    2    5    5    0    0 -0.12422866043E+03  0.41145264079E+02  0.63198092443E+02  0.16556554066E+03  0.79323745112E+02 0.  0.
          5    1    5    5  501    0  0.26994117197E+02  0.56870866141E+02  0.61358410423E+02  0.88033643049E+02  0.47000000000E+01 0. -1.
        -13    1    6    6    0    0 -0.50236713085E+02 -0.47519357299E+00  0.63117847150E+02  0.80671034326E+02  0.00000000000E+00 0.  1.
         14    1    6    6    0    0 -0.73991947342E+02  0.41620457652E+02  0.80245293715E-01  0.84894506335E+02  0.00000000000E+00 0. -1.
         -5    1    3    3    0  503  0.11122132570E+03 -0.31279747088E+02 -0.89939536031E+02  0.14649169263E+03  0.47000000000E+01 0.  1.
         13    1    4    4    0    0  0.12388865275E+02 -0.27105103569E+02 -0.95907865381E+02  0.10043151529E+03  0.00000000000E+00 0. -1.
        -14    1    4    4    0    0 -0.26375647749E+02 -0.39631279563E+02 -0.11601024116E+02  0.48998947688E+02  0.00000000000E+00 0.  1.
</event>
<event>
12    1  0.8449700E-002  0.2316380E+03  0.7818608E-02  0.1125894E+00
         21   -1    0    0  501  502  0.00000000000E+00  0.00000000000E+00  0.50956937905E+02  0.50956937905E+02  0.00000000000E+00 0.  1.
         21   -1    0    0  502  503 -0.00000000000E+00 -0.00000000000E+00 -0.10586964626E+04  0.10586964626E+04  0.00000000000E+00 0. -1.
         -6    2    1    2    0  503  0.20233960653E+01 -0.15661306497E+03 -0.43785775138E+03  0.49535397968E+03  0.17065874865E+03 0.  0.
        -24    2    3    3    0    0  0.47105469706E+02 -0.13883797267E+03 -0.24436025122E+03  0.29582523529E+03  0.79408623749E+02 0.  0.
          6    2    1    2  501    0 -0.20233960653E+01  0.15661306497E+03 -0.56988177328E+03  0.61429942079E+03  0.16753147947E+03 0.  0.
         24    2    5    5    0    0 -0.20275108987E+02  0.14335864268E+03 -0.56628783194E+03  0.59097966202E+03  0.87248334296E+02 0.  0.
          5    1    5    5  501    0  0.18251712922E+02  0.13254422285E+02 -0.35939413356E+01  0.23319758769E+02  0.47000000000E+01 0. -1.
        -11    1    6    6    0    0 -0.78177463584E+01  0.12506305756E+03 -0.31938909668E+03  0.34309077604E+03  0.00000000000E+00 0.  1.
         12    1    6    6    0    0 -0.12457362629E+02  0.18295585124E+02 -0.24689873526E+03  0.24788888598E+03  0.00000000000E+00 0. -1.
         -5    1    3    3    0  503 -0.45082073641E+02 -0.17775092298E+02 -0.19349750016E+03  0.19952874439E+03  0.47000000000E+01 0.  1.
         13    1    4    4    0    0 -0.72196282905E+01 -0.38297847365E+02 -0.12345047488E+03  0.12945604618E+03  0.00000000000E+00 0. -1.
        -14    1    4    4    0    0  0.54325097997E+02 -0.10054012531E+03 -0.12090977634E+03  0.16636918911E+03  0.00000000000E+00 0.  1.
</event>
<event>
12    1  0.8449700E-002  0.2478415E+03  0.7818608E-02  0.1114706E+00
         21   -1    0    0  503  502  0.00000000000E+00  0.00000000000E+00  0.20148144643E+03  0.20148144643E+03  0.00000000000E+00 0. -1.
         21   -1    0    0  501  503 -0.00000000000E+00 -0.00000000000E+00 -0.41233346472E+03  0.41233346472E+03  0.00000000000E+00 0.  1.
          6    2    1    2  501    0  0.59396892130E+02 -0.16901073914E+03 -0.26230303092E+03  0.36087155643E+03  0.17126815078E+03 0.  0.
         24    2    3    3    0    0  0.24206917714E+02 -0.50626293286E+02 -0.18875621390E+03  0.21705071088E+03  0.91285849798E+02 0.  0.
         -6    2    1    2    0  502 -0.59396892130E+02  0.16901073914E+03  0.51451012633E+02  0.25294335473E+03  0.17099857679E+03 0.  0.
        -24    2    5    5    0    0 -0.61611886630E+02  0.36327492481E+02  0.58997976683E+02  0.11994411861E+03  0.76092831800E+02 0.  0.
          5    1    3    3  501    0  0.35189974416E+02 -0.11838444585E+03 -0.73546817025E+02  0.14382084554E+03  0.47000000000E+01 0. -1.
        -13    1    4    4    0    0  0.35538842862E+02  0.16425827920E+02 -0.69261971290E+02  0.79561534939E+02  0.00000000000E+00 0.  1.
         14    1    4    4    0    0 -0.11331925149E+02 -0.67052121206E+02 -0.11949424261E+03  0.13748917594E+03  0.00000000000E+00 0. -1.
         -5    1    5    5    0  502  0.22149945001E+01  0.13268324665E+03 -0.75469640491E+01  0.13299923612E+03  0.47000000000E+01 0.  1.
         11    1    6    6    0    0 -0.75546431762E+01  0.48446385839E+02  0.27630498152E+02  0.56281163479E+02  0.00000000000E+00 0. -1.
        -12    1    6    6    0    0 -0.54057243454E+02 -0.12118893358E+02  0.31367478530E+02  0.63662955126E+02  0.00000000000E+00 0.  1.
</event>
<event>
12    1  0.8449700E-002  0.2332034E+03  0.7818608E-02  0.1124580E+00
         21   -1    0    0  503  502  0.00000000000E+00  0.00000000000E+00  0.82076568062E+02  0.82076568062E+02  0.00000000000E+00 0. -1.
         21   -1    0    0  501  503 -0.00000000000E+00 -0.00000000000E+00 -0.66781826454E+03  0.66781826454E+03  0.00000000000E+00 0.  1.
          6    2    1    2  501    0 -0.14195471839E+03  0.59857094176E+02 -0.33473406649E+03  0.40795923498E+03  0.17507092375E+03 0.  0.
         24    2    3    3    0    0 -0.12805400492E+03  0.92952561238E+02 -0.19430597148E+03  0.26293965133E+03  0.79652011103E+02 0.  0.
         -6    2    1    2    0  502  0.14195471839E+03 -0.59857094176E+02 -0.25100763000E+03  0.34193559763E+03  0.17372711019E+03 0.  0.
        -24    2    5    5    0    0  0.66549584962E+02 -0.40421664181E+02 -0.23762834583E+03  0.26278532706E+03  0.80784523177E+02 0.  0.
          5    1    3    3  501    0 -0.13900713468E+02 -0.33095467062E+02 -0.14042809500E+03  0.14501958365E+03  0.47000000000E+01 0. -1.
        -11    1    4    4    0    0 -0.12906914109E+03  0.85527694279E+02 -0.20042372031E+03  0.25326566552E+03  0.00000000000E+00 0.  1.
         12    1    4    4    0    0  0.10151361702E+01  0.74248669594E+01  0.61177488245E+01  0.96739858119E+01  0.00000000000E+00 0. -1.
         -5    1    5    5    0  502  0.75405133423E+02 -0.19435429995E+02 -0.13379284169E+02  0.79150270565E+02  0.47000000000E+01 0.  1.
         13    1    6    6    0    0  0.26955628606E+02 -0.55990341803E+02 -0.91627064432E+02  0.11071153158E+03  0.00000000000E+00 0. -1.
        -14    1    6    6    0    0  0.39593956357E+02  0.15568677622E+02 -0.14600128139E+03  0.15207379548E+03  0.00000000000E+00 0.  1.
</event>
<event>
12    1  0.8449700E-002  0.3560897E+03  0.7818608E-02  0.1060197E+00
         21   -1    0    0  503  502  0.00000000000E+00  0.00000000000E+00  0.14797973645E+03  0.14797973645E+03  0.00000000000E+00 0. -1.
         21   -1    0    0  501  503 -0.00000000000E+00 -0.00000000000E+00 -0.13675034519E+04  0.13675034519E+04  0.00000000000E+00 0.  1.
          6    2    1    2  501    0 -0.27416261430E+03 -0.14620540943E+03 -0.10736726273E+04  0.11311820426E+04  0.17395040080E+03 0.  0.
         24    2    3    3    0    0 -0.12195626928E+03 -0.85644578404E+02 -0.72445592049E+03  0.74542462650E+03  0.92807152922E+02 0.  0.
         -6    2    1    2    0  502  0.27416261430E+03  0.14620540943E+03 -0.14585108815E+03  0.38430114580E+03  0.17284001251E+03 0.  0.
        -24    2    5    5    0    0  0.67595256387E+02  0.53259185667E+02 -0.66283373343E+01  0.11837984502E+03  0.81019709369E+02 0.  0.
          5    1    3    3  501    0 -0.15220634502E+03 -0.60560831027E+02 -0.34921670682E+03  0.38575741605E+03  0.47000000000E+01 0. -1.
        -11    1    4    4    0    0 -0.22819597406E+02  0.19441144654E+02 -0.15928366714E+03  0.16208016149E+03  0.00000000000E+00 0.  1.
         12    1    4    4    0    0 -0.99136671877E+02 -0.10508572306E+03 -0.56517225335E+03  0.58334446501E+03  0.00000000000E+00 0. -1.
         -5    1    5    5    0  502  0.20656735792E+03  0.92946223765E+02 -0.13922275081E+03  0.26592130079E+03  0.47000000000E+01 0.  1.
         11    1    6    6    0    0  0.86356961882E+02  0.45887836886E+02 -0.26167474614E+01  0.97826713156E+02  0.00000000000E+00 0. -1.
        -12    1    6    6    0    0 -0.18761705495E+02  0.73713487808E+01 -0.40115898728E+01  0.20553131860E+02  0.00000000000E+00 0.  1.
</event>
<event>
12    1  0.8449700E-002  0.2008458E+03  0.7818608E-02  0.1149624E+00
         21   -1    0    0  503  502  0.00000000000E+00  0.00000000000E+00  0.44158324854E+02  0.44158324854E+02  0.00000000000E+00 0.  1.
         21   -1    0    0  501  503 -0.00000000000E+00 -0.00000000000E+00 -0.10869918334E+04  0.10869918334E+04  0.00000000000E+00 0.  1.
          6    2    1    2  501    0  0.61572000271E+02  0.83311979849E+02 -0.75859627869E+03  0.78473392527E+03  0.17206691209E+03 0.  0.
         24    2    3    3    0    0 -0.15340165862E+02  0.93959368388E+02 -0.45270733493E+03  0.46910917324E+03  0.77819031894E+02 0.  0.
         -6    2    1    2    0  502 -0.61572000271E+02 -0.83311979849E+02 -0.28423722988E+03  0.34641623300E+03  0.16876435178E+03 0.  0.
        -24    2    5    5    0    0 -0.85710654735E+02 -0.48906315206E+02 -0.10917678449E+03  0.16631994226E+03  0.77489411659E+02 0.  0.
          5    1    3    3  501    0  0.76912166134E+02 -0.10647388539E+02 -0.30588894376E+03  0.31562475203E+03  0.47000000000E+01 0. -1.
        -11    1    4    4    0    0  0.28546121605E+02  0.14253740637E+02 -0.11093971955E+03  0.11543687260E+03  0.00000000000E+00 0.  1.
         12    1    4    4    0    0 -0.43886287467E+02  0.79705627751E+02 -0.34176761537E+03  0.35367230064E+03  0.00000000000E+00 0. -1.
         -5    1    5    5    0  502  0.24138654464E+02 -0.34405664642E+02 -0.17506044539E+03  0.18009629074E+03  0.47000000000E+01 0.  1.
         13    1    6    6    0    0 -0.15502917825E+02  0.74565444199E+01  0.76491984810E+01  0.18826862542E+02  0.00000000000E+00 0. -1.
        -14    1    6    6    0    0 -0.70207736910E+02 -0.56362859626E+02 -0.11682598297E+03  0.14749307972E+03  0.00000000000E+00 0.  1.
</event>
<event>
12    1  0.8449700E-002  0.2165553E+03  0.7818608E-02  0.1136823E+00
         21   -1    0    0  503  502  0.00000000000E+00  0.00000000000E+00  0.84495436739E+02  0.84495436739E+02  0.00000000000E+00 0. -1.
         21   -1    0    0  501  503 -0.00000000000E+00 -0.00000000000E+00 -0.62367643423E+03  0.62367643423E+03  0.00000000000E+00 0. -1.
          6    2    1    2  501    0  0.12879189671E+03  0.13159423400E+02 -0.14920750756E+03  0.26298117276E+03  0.17359635316E+03 0.  0.
         24    2    3    3    0    0  0.89567625662E+02  0.76632082578E+02 -0.95730747799E+02  0.17106177471E+03  0.78758612521E+02 0.  0.
         -6    2    1    2    0  502 -0.12879189671E+03 -0.13159423400E+02 -0.38997348993E+03  0.44519069821E+03  0.17133275180E+03 0.  0.
        -24    2    5    5    0    0 -0.15331367484E+03 -0.35160096434E+02 -0.35632663035E+03  0.39786683133E+03  0.81166697014E+02 0.  0.
          5    1    3    3  501    0  0.39224271052E+02 -0.63472659179E+02 -0.53476759761E+02  0.91919398047E+02  0.47000000000E+01 0. -1.
        -13    1    4    4    0    0  0.75621081331E+02  0.22431338947E+02 -0.81276839115E+02  0.11325916071E+03  0.00000000000E+00 0.  1.
         14    1    4    4    0    0  0.13946544332E+02  0.54200743631E+02 -0.14453908684E+02  0.57802614000E+02  0.00000000000E+00 0. -1.
         -5    1    5    5    0  502  0.24521778128E+02  0.22000673034E+02 -0.33646859582E+02  0.47323866878E+02  0.47000000000E+01 0.  1.
         11    1    6    6    0    0 -0.14272127576E+03 -0.28066833532E+01 -0.27982890887E+03  0.31413605056E+03  0.00000000000E+00 0. -1.
        -12    1    6    6    0    0 -0.10592399082E+02 -0.32353413081E+02 -0.76497721481E+02  0.83730780768E+02  0.00000000000E+00 0.  1.
</event>
<event>
12    1  0.8449700E-002  0.2028485E+03  0.7818608E-02  0.1147573E+00
         21   -1    0    0  503  502  0.00000000000E+00  0.00000000000E+00  0.10406071144E+04  0.10406071144E+04  0.00000000000E+00 0. -1.
         21   -1    0    0  501  503 -0.00000000000E+00 -0.00000000000E+00 -0.40922387519E+02  0.40922387519E+02  0.00000000000E+00 0.  1.
          6    2    1    2  501    0  0.10568159492E+03 -0.72077314306E+01  0.60494860480E+03  0.63772311790E+03  0.17177720965E+03 0.  0.
         24    2    3    3    0    0  0.16110986879E+02  0.27878149392E+02  0.41604931099E+03  0.42568787068E+03  0.84121215886E+02 0.  0.
         -6    2    1    2    0  502 -0.10568159492E+03  0.72077314306E+01  0.39473612208E+03  0.44380638402E+03  0.17299407366E+03 0.  0.
        -24    2    5    5    0    0 -0.10852312069E+03 -0.34125324416E+02  0.37005545188E+03  0.39535309460E+03  0.80132555482E+02 0.  0.
          5    1    3    3  501    0  0.89570608046E+02 -0.35085880823E+02  0.18889929381E+03  0.21203524721E+03  0.47000000000E+01 0. -1.
        -11    1    4    4    0    0 -0.89858019329E+01 -0.17755001838E+02  0.29122003552E+02  0.35271458965E+02  0.00000000000E+00 0.  1.
         12    1    4    4    0    0  0.25096788812E+02  0.45633151230E+02  0.38692730744E+03  0.39041641172E+03  0.00000000000E+00 0. -1.
         -5    1    5    5    0  502  0.28415257692E+01  0.41333055847E+02  0.24680670197E+02  0.48453289421E+02  0.47000000000E+01 0.  1.
         13    1    6    6    0    0 -0.65416435711E+02 -0.59964751779E+02  0.22728131972E+03  0.24399155684E+03  0.00000000000E+00 0. -1.
        -14    1    6    6    0    0 -0.43106684983E+02  0.25839427363E+02  0.14277413216E+03  0.15136153775E+03  0.00000000000E+00 0.  1.
</event>
<event>
12    1  0.8449700E-002  0.2291594E+03  0.7818608E-02  0.1127565E+00
         21   -1    0    0  503  502  0.00000000000E+00  0.00000000000E+00  0.81030120354E+03  0.81030120354E+03  0.00000000000E+00 0.  1.
         21   -1    0    0  501  503 -0.00000000000E+00 -0.00000000000E+00 -0.69895128707E+02  0.69895128707E+02  0.00000000000E+00 0.  1.
          6    2    1    2  501    0  0.20264048379E+02 -0.14810363290E+03  0.49354448671E+03  0.54336599889E+03  0.17121661908E+03 0.  0.
         24    2    3    3    0    0  0.53430159904E+02 -0.13904463004E+03  0.28903538956E+03  0.33593379959E+03  0.84391173483E+02 0.  0.
         -6    2    1    2    0  502 -0.20264048379E+02  0.14810363290E+03  0.24686158813E+03  0.33683033336E+03  0.17369142767E+03 0.  0.
        -24    2    5    5    0    0 -0.64906755690E+02  0.95521541244E+02  0.22314827681E+03  0.26373957600E+03  0.80163325338E+02 0.  0.
          5    1    3    3  501    0 -0.33166111525E+02 -0.90590028609E+01  0.20450909715E+03  0.20743219929E+03  0.47000000000E+01 0. -1.
        -11    1    4    4    0    0  0.25690435363E+02  0.34887729716E+01  0.47261381812E+02  0.53905549035E+02  0.00000000000E+00 0.  1.
         12    1    4    4    0    0  0.27739724542E+02 -0.14253340301E+03  0.24177400775E+03  0.28202825056E+03  0.00000000000E+00 0. -1.
         -5    1    5    5    0  502  0.44642707311E+02  0.52582091653E+02  0.23713311319E+02  0.73090757367E+02  0.47000000000E+01 0.  1.
         11    1    6    6    0    0 -0.21853134153E+02 -0.11655507760E+02  0.46452214761E+02  0.52642364971E+02  0.00000000000E+00 0. -1.
        -12    1    6    6    0    0 -0.43053621537E+02  0.10717704900E+03  0.17669606205E+03  0.21109721103E+03  0.00000000000E+00 0.  1.
</event>
<event>
12    1  0.8449700E-002  0.2974193E+03  0.7818608E-02  0.1086594E+00
         21   -1    0    0  501  502  0.00000000000E+00  0.00000000000E+00  0.12691268059E+04  0.12691268059E+04  0.00000000000E+00 0.  1.
         21   -1    0    0  502  503 -0.00000000000E+00 -0.00000000000E+00 -0.70786343111E+02  0.70786343111E+02  0.00000000000E+00 0.  1.
         -6    2    1    2    0  503  0.23357462252E+03 -0.70138008972E+02  0.51185215312E+03  0.59176582653E+03  0.16946304083E+03 0.  0.
        -24    2    3    3    0    0  0.41889028484E+02 -0.37341029486E+02  0.12551662272E+03  0.15921959678E+03  0.80295792097E+02 0.  0.
          6    2    1    2  501    0 -0.23357462252E+03  0.70138008972E+02  0.68648830966E+03  0.74814732247E+03  0.17024033668E+03 0.  0.
         24    2    5    5    0    0 -0.87173308164E+02  0.86963340463E+02  0.23610375247E+03  0.27424356011E+03  0.65595274911E+02 0.  0.
          5    1    5    5  501    0 -0.14640131436E+03 -0.16825331492E+02  0.45038455719E+03  0.47390376236E+03  0.47000000000E+01 0. -1.
        -11    1    6    6    0    0 -0.88310336905E+02  0.48734057698E+02  0.18020574678E+03  0.20651352294E+03  0.00000000000E+00 0.  1.
         12    1    6    6    0    0  0.11370287415E+01  0.38229282765E+02  0.55898005692E+02  0.67730037173E+02  0.00000000000E+00 0. -1.
         -5    1    3    3    0  503  0.19168559404E+03 -0.32796979486E+02  0.38633553040E+03  0.43254622975E+03  0.47000000000E+01 0.  1.
         11    1    4    4    0    0 -0.66652876078E+01  0.51719857078E+01  0.79527936865E+02  0.79974172313E+02  0.00000000000E+00 0. -1.
        -12    1    4    4    0    0  0.48554316092E+02 -0.42513015193E+02  0.45988685857E+02  0.79245424466E+02  0.00000000000E+00 0.  1.
</event>
<event>
12    1  0.8449700E-002  0.1802410E+03  0.7818608E-02  0.1167665E+00
         21   -1    0    0  501  502  0.00000000000E+00  0.00000000000E+00  0.45319875478E+03  0.45319875478E+03  0.00000000000E+00 0. -1.
         21   -1    0    0  502  503 -0.00000000000E+00 -0.00000000000E+00 -0.71581518991E+02  0.71581518991E+02  0.00000000000E+00 0. -1.
         -6    2    1    2    0  503  0.22732954811E+02  0.48499583534E+02  0.18377889329E+03  0.25741312460E+03  0.17209833892E+03 0.  0.
        -24    2    3    3    0    0  0.48631177037E+02  0.80888869949E+02  0.16436687816E+03  0.21138378482E+03  0.93587569619E+02 0.  0.
          6    2    1    2  501    0 -0.22732954811E+02 -0.48499583534E+02  0.19783834249E+03  0.26736714917E+03  0.17168630072E+03 0.  0.
         24    2    5    5    0    0 -0.26588992258E+02 -0.80353852706E+02  0.71306996078E+02  0.13674618946E+03  0.80318842673E+02 0.  0.
          5    1    5    5  501    0  0.38560374472E+01  0.31854269172E+02  0.12653134641E+03  0.13062095971E+03  0.47000000000E+01 0. -1.
        -13    1    6    6    0    0  0.91427985075E+00 -0.51425871797E+02  0.80740169873E+02  0.95731035871E+02  0.00000000000E+00 0.  1.
         14    1    6    6    0    0 -0.27503272109E+02 -0.28927980909E+02 -0.94331737948E+01  0.41015153590E+02  0.00000000000E+00 0. -1.
         -5    1    3    3    0  503 -0.25898222226E+02 -0.32389286415E+02  0.19412015129E+02  0.46029339778E+02  0.47000000000E+01 0.  1.
         13    1    4    4    0    0 -0.37081472040E+01 -0.12759885091E+02 -0.19880444453E+01  0.13435674302E+02  0.00000000000E+00 0. -1.
        -14    1    4    4    0    0  0.52339324241E+02  0.93648755041E+02  0.16635492261E+03  0.19794811052E+03  0.00000000000E+00 0.  1.
</event>
<event>
12    1  0.8449700E-002  0.1898615E+03  0.7818608E-02  0.1159059E+00
         21   -1    0    0  503  502  0.00000000000E+00  0.00000000000E+00  0.76460467675E+02  0.76460467675E+02  0.00000000000E+00 0. -1.
         21   -1    0    0  501  503 -0.00000000000E+00 -0.00000000000E+00 -0.57206472743E+03  0.57206472743E+03  0.00000000000E+00 0. -1.
          6    2    1    2  501    0 -0.73775370572E+02 -0.18212980257E+02 -0.38611805019E+03  0.42935715693E+03  0.17171459335E+03 0.  0.
         24    2    3    3    0    0  0.61020580670E+01  0.39655991340E+02 -0.19459344156E+03  0.21387400865E+03  0.79155867229E+02 0.  0.
         -6    2    1    2    0  502  0.73775370572E+02  0.18212980257E+02 -0.10948620956E+03  0.21916803818E+03  0.17399103690E+03 0.  0.
        -24    2    5    5    0    0  0.39938266945E+02 -0.55076536237E+02 -0.32091832872E+02  0.10723822824E+03  0.76430765063E+02 0.  0.
          5    1    3    3  501    0 -0.79877428639E+02 -0.57868971596E+02 -0.19152460864E+03  0.21548314828E+03  0.47000000000E+01 0. -1.
        -11    1    4    4    0    0  0.40000314246E+02  0.66282784102E+01 -0.75037599965E+02  0.85291269324E+02  0.00000000000E+00 0.  1.
         12    1    4    4    0    0 -0.33898256179E+02  0.33027712929E+02 -0.11955584159E+03  0.12858273932E+03  0.00000000000E+00 0. -1.
         -5    1    5    5    0  502  0.33837103628E+02  0.73289516494E+02 -0.77394376692E+02  0.11192980994E+03  0.47000000000E+01 0.  1.
         13    1    6    6    0    0 -0.43775931273E+01 -0.11408980364E+02  0.21758072195E+02  0.24954796336E+02  0.00000000000E+00 0. -1.
        -14    1    6    6    0    0  0.44315860072E+02 -0.43667555873E+02 -0.53849905067E+02  0.82283431902E+02  0.00000000000E+00 0.  1.
</event>
<event>
12    1  0.8449700E-002  0.3230837E+03  0.7818608E-02  0.1074367E+00
         21   -1    0    0  503  502  0.00000000000E+00  0.00000000000E+00  0.14849668011E+03  0.14849668011E+03  0.00000000000E+00 0. -1.
         21   -1    0    0  501  503 -0.00000000000E+00 -0.00000000000E+00 -0.16779955702E+04  0.16779955702E+04  0.00000000000E+00 0.  1.
          6    2    1    2  501    0  0.22736857268E+03  0.15147303090E+03 -0.14612258753E+04  0.14962737283E+04  0.17033339202E+03 0.  0.
         24    2    3    3    0    0  0.13447273682E+03  0.51112935558E+02 -0.10542739506E+04  0.10669326703E+04  0.78462162531E+02 0.  0.
         -6    2    1    2    0  502 -0.22736857268E+03 -0.15147303090E+03 -0.68273014840E+02  0.33021852205E+03  0.17246020067E+03 0.  0.
        -24    2    5    5    0    0 -0.20390509360E+03 -0.17552236138E+03 -0.83960732868E+02  0.29284072592E+03  0.79504085105E+02 0.  0.
          5    1    3    3  501    0  0.92895835858E+02  0.10036009535E+03 -0.40695192472E+03  0.42934105800E+03  0.47000000000E+01 0. -1.
        -13    1    4    4    0    0  0.45636123926E+02  0.18741441506E+02 -0.64478373448E+03  0.64666835526E+03  0.00000000000E+00 0.  1.
         14    1    4    4    0    0  0.88836612897E+02  0.32371494053E+02 -0.40949021608E+03  0.42026431502E+03  0.00000000000E+00 0. -1.
         -5    1    5    5    0  502 -0.23463479077E+02  0.24049330479E+02  0.15687718028E+02  0.37377796133E+02  0.47000000000E+01 0.  1.
         11    1    6    6    0    0 -0.22459569775E+02 -0.46685266474E+02 -0.41299904024E+02  0.66254271203E+02  0.00000000000E+00 0. -1.
        -12    1    6    6    0    0 -0.18144552383E+03 -0.12883709491E+03 -0.42660828845E+02  0.22658645471E+03  0.00000000000E+00 0.  1.
</event>
<event>
12    1  0.8449700E-002  0.1855221E+03  0.7818608E-02  0.1163030E+00
         21   -1    0    0  503  502  0.00000000000E+00  0.00000000000E+00  0.10020542205E+03  0.10020542205E+03  0.00000000000E+00 0.  1.
         21   -1    0    0  501  503 -0.00000000000E+00 -0.00000000000E+00 -0.48224662045E+03  0.48224662045E+03  0.00000000000E+00 0.  1.
          6    2    1    2  501    0  0.20135494802E+02 -0.62070655019E+02 -0.34857157981E+03  0.39393499419E+03  0.17153550371E+03 0.  0.
         24    2    3    3    0    0 -0.53014221884E+02 -0.47113590235E+02 -0.15480906295E+03  0.18623184598E+03  0.75407270064E+02 0.  0.
         -6    2    1    2    0  502 -0.20135494802E+02  0.62070655019E+02 -0.33469618590E+02  0.18851704831E+03  0.17366708891E+03 0.  0.
        -24    2    5    5    0    0  0.23908215175E+02  0.98745872549E+01  0.38001421946E+02  0.89549995645E+02  0.76850396381E+02 0.  0.
          5    1    3    3  501    0  0.73149716686E+02 -0.14957064784E+02 -0.19376251686E+03  0.20770314821E+03  0.47000000000E+01 0. -1.
        -11    1    4    4    0    0 -0.48991415387E+01 -0.53906383674E+02 -0.69978027570E+02  0.88469340063E+02  0.00000000000E+00 0.  1.
         12    1    4    4    0    0 -0.48115080345E+02  0.67927934387E+01 -0.84831035379E+02  0.97762505915E+02  0.00000000000E+00 0. -1.
         -5    1    5    5    0  502 -0.44043709977E+02  0.52196067764E+02 -0.71471040536E+02  0.98967052668E+02  0.47000000000E+01 0.  1.
         13    1    6    6    0    0 -0.87480766286E+01 -0.26215183518E+02 -0.26403825427E+00  0.27637554302E+02  0.00000000000E+00 0. -1.
        -14    1    6    6    0    0  0.32656291803E+02  0.36089770773E+02  0.38265460201E+02  0.61912441344E+02  0.00000000000E+00 0.  1.
</event>
<event>
12    1  0.8449700E-002  0.1865945E+03  0.7818608E-02  0.1161947E+00
         21   -1    0    0  501  502  0.00000000000E+00  0.00000000000E+00  0.67658829617E+03  0.67658829617E+03  0.00000000000E+00 0.  1.
         21   -1    0    0  502  503 -0.00000000000E+00 -0.00000000000E+00 -0.87525655933E+02  0.87525655933E+02  0.00000000000E+00 0.  1.
         -6    2    1    2    0  503  0.52377025443E+02 -0.40808084208E+02  0.47012487046E+02  0.19084622557E+03  0.17263677286E+03 0.  0.
        -24    2    3    3    0    0 -0.25981127935E+02 -0.33451999793E+02 -0.10313219674E+02  0.93365771989E+02  0.82563609297E+02 0.  0.
          6    2    1    2  501    0 -0.52377025443E+02  0.40808084208E+02  0.54205015319E+03  0.57326772654E+03  0.17438137854E+03 0.  0.
         24    2    5    5    0    0 -0.88229676669E+02  0.68449166254E+02  0.44972285043E+03  0.47033151885E+03  0.80568798074E+02 0.  0.
          5    1    5    5  501    0  0.35852651226E+02 -0.27641082046E+02  0.92327302765E+02  0.10293620768E+03  0.47000000000E+01 0. -1.
        -13    1    6    6    0    0 -0.15565922222E+02  0.33066933015E+02  0.46783728689E+02  0.59366971152E+02  0.00000000000E+00 0.  1.
         14    1    6    6    0    0 -0.72663754447E+02  0.35382233239E+02  0.40293912174E+03  0.41096454770E+03  0.00000000000E+00 0. -1.
         -5    1    3    3    0  503  0.78358153378E+02 -0.73560844141E+01  0.57325706720E+02  0.97480453578E+02  0.47000000000E+01 0.  1.
         13    1    4    4    0    0  0.28703803598E+02 -0.20700231505E+01  0.29725164095E+01  0.28931456767E+02  0.00000000000E+00 0. -1.
        -14    1    4    4    0    0 -0.54684931534E+02 -0.31381976643E+02 -0.13285736084E+02  0.64434315222E+02  0.00000000000E+00 0.  1.
</event>
<event>
12    1  0.8449700E-002  0.1727869E+03  0.7818608E-02  0.1175032E+00
         21   -1    0    0  503  502  0.00000000000E+00  0.00000000000E+00  0.69195643916E+03  0.69195643916E+03  0.00000000000E+00 0. -1.
         21   -1    0    0  501  503 -0.00000000000E+00 -0.00000000000E+00 -0.50552839359E+02  0.50552839359E+02  0.00000000000E+00 0. -1.
          6    2    1    2  501    0 -0.11358221377E+02 -0.38183548468E+01  0.17785859083E+03  0.24780808132E+03  0.17213825202E+03 0.  0.
         24    2    3    3    0    0  0.42480800776E+02 -0.29214334718E+02  0.13847526676E+03  0.17627674333E+03  0.96124892431E+02 0.  0.
         -6    2    1    2    0  502  0.11358221377E+02  0.38183548468E+01  0.46354500897E+03  0.49470119720E+03  0.17237085062E+03 0.  0.
        -24    2    5    5    0    0  0.63126437294E+02  0.23879512566E+02  0.38241449321E+03  0.39628042289E+03  0.79007282859E+02 0.  0.
          5    1    3    3  501    0 -0.53839022154E+02  0.25395979871E+02  0.39383324066E+02  0.71531337989E+02  0.47000000000E+01 0. -1.
        -11    1    4    4    0    0  0.34056849620E+02  0.22560897048E+02  0.17545789052E+02  0.44460294591E+02  0.00000000000E+00 0.  1.
         12    1    4    4    0    0  0.84239511560E+01 -0.51775231766E+02  0.12092947771E+03  0.13181644874E+03  0.00000000000E+00 0. -1.
         -5    1    5    5    0  502 -0.51768215916E+02 -0.20061157719E+02  0.81130515764E+02  0.98420774313E+02  0.47000000000E+01 0.  1.
         13    1    6    6    0    0  0.55972162221E+02 -0.10089559860E+02  0.31858411583E+03  0.32362095269E+03  0.00000000000E+00 0. -1.
        -14    1    6    6    0    0  0.71542750723E+01  0.33969072426E+02  0.63830377376E+02  0.72659470197E+02  0.00000000000E+00 0.  1.
</event>
<event>
12    1  0.8449700E-002  0.1816202E+03  0.7818608E-02  0.1166851E+00
         21   -1    0    0  503  502  0.00000000000E+00  0.00000000000E+00  0.13658021176E+04  0.13658021176E+04  0.00000000000E+00 0.  1.
         21   -1    0    0  501  503 -0.00000000000E+00 -0.00000000000E+00 -0.25261414940E+02  0.25261414940E+02  0.00000000000E+00 0.  1.
          6    2    1    2  501    0  0.39559603453E+02 -0.31967739203E+02  0.50839557948E+03  0.53986292159E+03  0.17435311955E+03 0.  0.
         24    2    3    3    0    0  0.73977616565E+02 -0.79068731738E+01  0.47354514893E+03  0.48508913762E+03  0.74372420739E+02 0.  0.
         -6    2    1    2    0  502 -0.39559603453E+02  0.31967739203E+02  0.83214512321E+03  0.85120061099E+03  0.17172674655E+03 0.  0.
        -24    2    5    5    0    0  0.25200027986E+02  0.31949694389E+02  0.67989833104E+03  0.68568630370E+03  0.79045190542E+02 0.  0.
          5    1    3    3  501    0 -0.34418013112E+02 -0.24060866029E+02  0.34850430553E+02  0.54773783970E+02  0.47000000000E+01 0. -1.
        -11    1    4    4    0    0  0.72468263304E+02 -0.23798608270E+02  0.26025089808E+03  0.27119836447E+03  0.00000000000E+00 0.  1.
         12    1    4    4    0    0  0.15093532607E+01  0.15891735097E+02  0.21329425085E+03  0.21389077315E+03  0.00000000000E+00 0. -1.
         -5    1    5    5    0  502 -0.64759631438E+02  0.18044813841E-01  0.15224679218E+03  0.16551430729E+03  0.47000000000E+01 0.  1.
         13    1    6    6    0    0  0.12567030638E+02 -0.21143212158E+01  0.14529545333E+02  0.19326362846E+02  0.00000000000E+00 0. -1.
        -14    1    6    6    0    0  0.12632997347E+02  0.34064015605E+02  0.66536878570E+03  0.66635994085E+03  0.00000000000E+00 0.  1.
</event>
<event>
12    1  0.8449700E-002  0.4862310E+03  0.7818608E-02  0.1017453E+00
         21   -1    0    0  501  502  0.00000000000E+00  0.00000000000E+00  0.47853222280E+03  0.47853222280E+03  0.00000000000E+00 0. -1.
         21   -1    0    0  502  503 -0.00000000000E+00 -0.00000000000E+00 -0.60016697336E+03  0.60016697336E+03  0.00000000000E+00 0.  1.
         -6    2    1    2    0  503  0.29407175214E+03  0.34681268455E+03 -0.28785034970E+03  0.56484296408E+03  0.17155907634E+03 0.  0.
        -24    2    3    3    0    0  0.75498665315E+02  0.93005208580E+02 -0.47858720111E+02  0.15276226638E+03  0.81828085959E+02 0.  0.
          6    2    1    2  501    0 -0.29407175214E+03 -0.34681268455E+03  0.16621559914E+03  0.51385623208E+03  0.17223056720E+03 0.  0.
         24    2    5    5    0    0 -0.87448896453E+02 -0.92623338108E+02  0.20999557583E+02  0.15550582108E+03  0.86687292715E+02 0.  0.
          5    1    5    5  501    0 -0.20662285569E+03 -0.25418934644E+03  0.14521604156E+03  0.35835041100E+03  0.47000000000E+01 0. -1.
        -11    1    6    6    0    0  0.10854704110E+01 -0.10039241058E+01  0.27874637733E+02  0.27913823428E+02  0.00000000000E+00 0.  1.
         12    1    6    6    0    0 -0.88534366864E+02 -0.91619414002E+02 -0.68750801494E+01  0.12759199765E+03  0.00000000000E+00 0. -1.
         -5    1    3    3    0  503  0.21857308683E+03  0.25380747597E+03 -0.23999162959E+03  0.41208069770E+03  0.47000000000E+01 0.  1.
         13    1    4    4    0    0  0.59501597421E+02  0.88103689274E+02 -0.46370085973E+01  0.10641523391E+03  0.00000000000E+00 0. -1.
        -14    1    4    4    0    0  0.15997067894E+02  0.49015193059E+01 -0.43221711513E+02  0.46347032471E+02  0.00000000000E+00 0.  1.
</event>
<event>
12    1  0.8449700E-002  0.2180832E+03  0.7818608E-02  0.1135756E+00
         21   -1    0    0  501  502  0.00000000000E+00  0.00000000000E+00  0.22866420338E+04  0.22866420338E+04  0.00000000000E+00 0. -1.
         21   -1    0    0  502  503 -0.00000000000E+00 -0.00000000000E+00 -0.41448584066E+02  0.41448584066E+02  0.00000000000E+00 0. -1.
         -6    2    1    2    0  503  0.12844161642E+03 -0.11291515692E+02  0.29369569403E+03  0.36444508919E+03  0.17302692040E+03 0.  0.
        -24    2    3    3    0    0  0.10745686304E+03  0.56078807148E+02  0.20527607901E+03  0.25122301274E+03  0.79264894442E+02 0.  0.
          6    2    1    2  501    0 -0.12844161642E+03  0.11291515692E+02  0.19514977557E+04  0.19636455286E+04  0.17588497560E+03 0.  0.
         24    2    5    5    0    0 -0.10766570232E+02 -0.33957863199E+02  0.94798700738E+03  0.95223520899E+03  0.82483159285E+02 0.  0.
          5    1    5    5  501    0 -0.11767504619E+03  0.45249378891E+02  0.10035107483E+04  0.10114103196E+04  0.47000000000E+01 0. -1.
        -13    1    6    6    0    0  0.10984798626E+02 -0.16920885773E+01  0.16257812231E+02  0.19693791487E+02  0.00000000000E+00 0.  1.
         14    1    6    6    0    0 -0.21751368858E+02 -0.32265774621E+02  0.93172919515E+03  0.93254141750E+03  0.00000000000E+00 0. -1.
         -5    1    3    3    0  503  0.20984753383E+02 -0.67370322839E+02  0.88419615020E+02  0.11322207644E+03  0.47000000000E+01 0.  1.
         13    1    4    4    0    0  0.67778435596E+02 -0.70265864074E+01  0.76666689133E+02  0.10257226950E+03  0.00000000000E+00 0. -1.
        -14    1    4    4    0    0  0.39678427441E+02  0.63105393555E+02  0.12860938988E+03  0.14865074324E+03  0.00000000000E+00 0.  1.
</event>
<event>
12    1  0.8449700E-002  0.1885286E+03  0.7818608E-02  0.1160008E+00
         21   -1    0    0  503  502  0.00000000000E+00  0.00000000000E+00  0.29920745439E+02  0.29920745439E+02  0.00000000000E+00 0. -1.
         21   -1    0    0  501  503 -0.00000000000E+00 -0.00000000000E+00 -0.12894559867E+04  0.12894559867E+04  0.00000000000E+00 0. -1.
          6    2    1    2  501    0  0.73566192775E+02  0.22705943908E+02 -0.82159943923E+03  0.84295235749E+03  0.17209152756E+03 0.  0.
         24    2    3    3    0    0  0.86165818424E+01 -0.70029573927E+01 -0.67556715368E+03  0.68032213522E+03  0.79523214438E+02 0.  0.
         -6    2    1    2    0  502 -0.73566192775E+02 -0.22705943908E+02 -0.43793580207E+03  0.47642437468E+03  0.17106979116E+03 0.  0.
        -24    2    5    5    0    0  0.14991420990E+01  0.17633316666E+02 -0.11740795347E+03  0.14472835093E+03  0.82755584350E+02 0.  0.
          5    1    3    3  501    0  0.64949610933E+02  0.29708901301E+02 -0.14603228554E+03  0.16263022228E+03  0.47000000000E+01 0. -1.
        -13    1    4    4    0    0 -0.13420045681E+02  0.29707090270E+02 -0.18157217608E+03  0.18447510392E+03  0.00000000000E+00 0.  1.
         14    1    4    4    0    0  0.22036627523E+02 -0.36710047663E+02 -0.49399497760E+03  0.49584703130E+03  0.00000000000E+00 0. -1.
         -5    1    5    5    0  502 -0.75065334874E+02 -0.40339260574E+02 -0.32052784861E+03  0.33169602376E+03  0.47000000000E+01 0.  1.
         11    1    6    6    0    0 -0.36160593802E+02  0.22324373674E+02 -0.84128839138E+02  0.94252998779E+02  0.00000000000E+00 0. -1.
        -12    1    6    6    0    0  0.37659735901E+02 -0.46910570079E+01 -0.33279114328E+02  0.50475352148E+02  0.00000000000E+00 0.  1.
</event>
<event>
12    1  0.8449700E-002  0.1922459E+03  0.7818608E-02  0.1156484E+00
         21   -1    0    0  501  502  0.00000000000E+00  0.00000000000E+00  0.13949621580E+03  0.13949621580E+03  0.00000000000E+00 0.  1.
         21   -1    0    0  502  503 -0.00000000000E+00 -0.00000000000E+00 -0.27779471906E+03  0.27779471906E+03  0.00000000000E+00 0.  1.
         -6    2    1    2    0  503 -0.84881306094E+02 -0.57307417955E+01 -0.23941841358E+02  0.19373096266E+03  0.17239720589E+03 0.  0.
        -24    2    3    3    0    0 -0.23636829806E+02  0.60396764515E+02 -0.15692294668E+02  0.10310051530E+03  0.78593888166E+02 0.  0.
          6    2    1    2  501    0  0.84881306094E+02  0.57307417955E+01 -0.11435666190E+03  0.22355997220E+03  0.17223221977E+03 0.  0.
         24    2    5    5    0    0  0.70634416580E+02 -0.49284669432E+02 -0.11528341859E+02  0.10597841440E+03  0.60665659202E+02 0.  0.
          5    1    5    5  501    0  0.14246889514E+02  0.55015411227E+02 -0.10282832004E+03  0.11758155780E+03  0.47000000000E+01 0. -1.
        -11    1    6    6    0    0  0.23884987887E+02 -0.32121517266E+02  0.22256087434E+02  0.45799759231E+02  0.00000000000E+00 0.  1.
         12    1    6    6    0    0  0.46749428693E+02 -0.17163152166E+02 -0.33784429293E+02  0.60178655170E+02  0.00000000000E+00 0. -1.
         -5    1    3    3    0  503 -0.61244476288E+02 -0.66127506310E+02 -0.82495466908E+01  0.90630447352E+02  0.47000000000E+01 0.  1.
         11    1    4    4    0    0  0.24372381666E+01  0.63099601736E+02  0.12749725089E+02  0.64420923301E+02  0.00000000000E+00 0. -1.
        -12    1    4    4    0    0 -0.26074067973E+02 -0.27028372215E+01 -0.28442019757E+02  0.38679592003E+02  0.00000000000E+00 0.  1.
</event>
<event>
12    1  0.8449700E-002  0.2104798E+03  0.7818608E-02  0.1141478E+00
         21   -1    0    0  501  502  0.00000000000E+00  0.00000000000E+00  0.84118399340E+02  0.84118399340E+02  0.00000000000E+00 0.  1.
         21   -1    0    0  502  503 -0.00000000000E+00 -0.00000000000E+00 -0.12309749827E+04  0.12309749827E+04  0.00000000000E+00 0. -1.
         -6    2    1    2    0  503  0.11067615315E+03 -0.48481170294E+02 -0.10712455505E+04  0.10914445698E+04  0.17054203221E+03 0.  0.
        -24    2    3    3    0    0  0.34089092599E+01  0.16588197362E+02 -0.49094218539E+03  0.49771536405E+03  0.80059760534E+02 0.  0.
          6    2    1    2  501    0 -0.11067615315E+03  0.48481170294E+02 -0.75611032812E+02  0.22364881218E+03  0.17234305370E+03 0.  0.
         24    2    5    5    0    0 -0.50919695847E+02 -0.39355994703E+02 -0.38351606201E+02  0.11096981407E+03  0.81864181377E+02 0.  0.
          5    1    5    5  501    0 -0.59756457305E+02  0.87837164997E+02 -0.37259426611E+02  0.11267899811E+03  0.47000000000E+01 0. -1.
        -13    1    6    6    0    0 -0.44393075504E+02 -0.47443672353E+02  0.61557889397E+01  0.65265158673E+02  0.00000000000E+00 0.  1.
         14    1    6    6    0    0 -0.65266203431E+01  0.80876776504E+01 -0.44507395141E+02  0.45704655398E+02  0.00000000000E+00 0. -1.
         -5    1    3    3    0  503  0.10726724389E+03 -0.65069367656E+02 -0.58030336512E+03  0.59372920577E+03  0.47000000000E+01 0.  1.
         11    1    4    4    0    0  0.12438414681E+02 -0.55276392551E+01 -0.45078316241E+03  0.45098861235E+03  0.00000000000E+00 0. -1.
        -12    1    4    4    0    0 -0.90295054207E+01  0.22115836617E+02 -0.40159022982E+02  0.46726751698E+02  0.00000000000E+00 0.  1.
</event>
<event>
12    1  0.8449700E-002  0.1768830E+03  0.7818608E-02  0.1171100E+00
         21   -1    0    0  503  502  0.00000000000E+00  0.00000000000E+00  0.47020588370E+03  0.47020588370E+03  0.00000000000E+00 0. -1.
         21   -1    0    0  501  503 -0.00000000000E+00 -0.00000000000E+00 -0.69017555829E+02  0.69017555829E+02  0.00000000000E+00 0. -1.
          6    2    1    2  501    0  0.17469688746E+02  0.33512081858E+02  0.25591768121E+03  0.31109719980E+03  0.17279860680E+03 0.  0.
         24    2    3    3    0    0  0.18999153116E+02 -0.73233151991E+00  0.26297792063E+03  0.27578493437E+03  0.80860615633E+02 0.  0.
         -6    2    1    2    0  502 -0.17469688746E+02 -0.33512081858E+02  0.14527064666E+03  0.22812623973E+03  0.17178408196E+03 0.  0.
        -24    2    5    5    0    0 -0.68389875728E+01 -0.11684640537E+02 -0.27550381681E+01  0.78049118317E+02  0.76816482992E+02 0.  0.
          5    1    3    3  501    0 -0.15294643697E+01  0.34244413378E+02 -0.70602394192E+01  0.35312265426E+02  0.47000000000E+01 0. -1.
        -11    1    4    4    0    0  0.12356927123E+02 -0.39129048775E+02  0.97538970620E+02  0.10581883998E+03  0.00000000000E+00 0.  1.
         12    1    4    4    0    0  0.66422259933E+01  0.38396717255E+02  0.16543895001E+03  0.16996609439E+03  0.00000000000E+00 0. -1.
         -5    1    5    5    0  502 -0.10630701173E+02 -0.21827441322E+02  0.14802568483E+03  0.15007712141E+03  0.47000000000E+01 0.  1.
         13    1    6    6    0    0  0.90086354027E+01  0.33979145483E+01  0.33966372463E+02  0.35304614336E+02  0.00000000000E+00 0. -1.
        -14    1    6    6    0    0 -0.15847622975E+02 -0.15082555085E+02 -0.36721410631E+02  0.42744503981E+02  0.00000000000E+00 0.  1.
</event>
<event>
12    1  0.8449700E-002  0.1940746E+03  0.7818608E-02  0.1156665E+00
         21   -1    0    0  503  502  0.00000000000E+00  0.00000000000E+00  0.32788566225E+02  0.32788566225E+02  0.00000000000E+00 0. -1.
         21   -1    0    0  501  503 -0.00000000000E+00 -0.00000000000E+00 -0.13926484205E+04  0.13926484205E+04  0.00000000000E+00 0. -1.
          6    2    1    2  501    0  0.31569864791E+02 -0.83930250252E+02 -0.99449626031E+03  0.10117275356E+04  0.16287679770E+03 0.  0.
         24    2    3    3    0    0  0.69587350880E+02 -0.36572979018E+02 -0.44821792512E+03  0.46206386580E+03  0.80148147101E+02 0.  0.
         -6    2    1    2    0  502 -0.31569864791E+02  0.83930250252E+02 -0.36536359394E+03  0.41370945111E+03  0.17211627143E+03 0.  0.
        -24    2    5    5    0    0 -0.33219704559E+02  0.67315318748E+02 -0.37596550404E+03  0.39338044676E+03  0.88109107107E+02 0.  0.
          5    1    3    3  501    0 -0.38017486089E+02 -0.47357271234E+02 -0.54627833519E+03  0.54966366979E+03  0.47000000000E+01 0. -1.
        -11    1    4    4    0    0  0.71911550110E+02 -0.10568499992E+02 -0.40577848100E+03  0.41223675221E+03  0.00000000000E+00 0.  1.
         12    1    4    4    0    0 -0.23241992304E+01 -0.26004479026E+02 -0.42439444121E+02  0.49827113591E+02  0.00000000000E+00 0. -1.
         -5    1    5    5    0  502  0.16498397683E+01  0.16614931505E+02  0.10601910099E+02  0.20329004351E+02  0.47000000000E+01 0.  1.
         13    1    6    6    0    0  0.23555987495E+02  0.32319754104E+02 -0.22224983252E+03  0.22581948345E+03  0.00000000000E+00 0. -1.
        -14    1    6    6    0    0 -0.56775692054E+02  0.34995564643E+02 -0.15371567152E+03  0.16756096330E+03  0.00000000000E+00 0.  1.
</event>
<event>
12    1  0.8449700E-002  0.1892591E+03  0.7818608E-02  0.1159206E+00
         21   -1    0    0  501  502  0.00000000000E+00  0.00000000000E+00  0.28009417141E+03  0.28009417141E+03  0.00000000000E+00 0.  1.
         21   -1    0    0  502  503 -0.00000000000E+00 -0.00000000000E+00 -0.15316995065E+03  0.15316995065E+03  0.00000000000E+00 0.  1.
         -6    2    1    2    0  503  0.97952222641E+01 -0.77361727391E+02 -0.24992730596E+02  0.19057548193E+03  0.17208600897E+03 0.  0.
        -24    2    3    3    0    0  0.27711886917E+02 -0.98480923288E+02 -0.63329793132E+02  0.14304814588E+03  0.77367101624E+02 0.  0.
          6    2    1    2  501    0 -0.97952222641E+01  0.77361727391E+02  0.15191695136E+03  0.24268864013E+03  0.17244776802E+03 0.  0.
         24    2    5    5    0    0  0.60982702479E+02  0.36599901771E+02  0.74181041828E+02  0.12983474038E+03  0.79346014590E+02 0.  0.
          5    1    5    5  501    0 -0.70777924743E+02  0.40761825620E+02  0.77735909527E+02  0.11285389975E+03  0.47000000000E+01 0. -1.
        -13    1    6    6    0    0  0.21518652032E+02  0.57815988664E+02  0.45116191886E+02  0.76427820201E+02  0.00000000000E+00 0.  1.
         14    1    6    6    0    0  0.39464050447E+02 -0.21216086893E+02  0.29064849942E+02  0.53406920178E+02  0.00000000000E+00 0. -1.
         -5    1    3    3    0  503 -0.17916664653E+02  0.21119195898E+02  0.38337062536E+02  0.47527336045E+02  0.47000000000E+01 0.  1.
         11    1    4    4    0    0  0.10094182196E+02 -0.54512969532E+01 -0.45215070258E+02  0.46647740900E+02  0.00000000000E+00 0. -1.
        -12    1    4    4    0    0  0.17617704721E+02 -0.93029626335E+02 -0.18114722874E+02  0.96400404981E+02  0.00000000000E+00 0.  1.
</event>
<event>
12    1  0.8449700E-002  0.2142901E+03  0.7818608E-02  0.1138468E+00
         21   -1    0    0  503  502  0.00000000000E+00  0.00000000000E+00  0.42294691709E+03  0.42294691709E+03  0.00000000000E+00 0.  1.
         21   -1    0    0  501  503 -0.00000000000E+00 -0.00000000000E+00 -0.11317122538E+03  0.11317122538E+03  0.00000000000E+00 0. -1.
          6    2    1    2  501    0 -0.74338061295E+02  0.10321991656E+03  0.21315991770E+03  0.30225385654E+03  0.17245215205E+03 0.  0.
         24    2    3    3    0    0 -0.51966929812E+02  0.10169446712E+03  0.66234118399E+02  0.15355256193E+03  0.78416225342E+02 0.  0.
         -6    2    1    2    0  502  0.74338061295E+02 -0.10321991656E+03  0.96615774014E+02  0.23386428594E+03  0.17081392776E+03 0.  0.
        -24    2    5    5    0    0 -0.19934149098E+02 -0.66340345148E+02  0.62348569872E+02  0.12688913126E+03  0.86110950354E+02 0.  0.
          5    1    3    3  501    0 -0.22371131483E+02  0.15254494391E+01  0.14692579930E+03  0.14870129461E+03  0.47000000000E+01 0. -1.
        -13    1    4    4    0    0  0.11450946476E+02  0.16945142093E+02 -0.10332042423E+02  0.22913164696E+02  0.00000000000E+00 0.  1.
         14    1    4    4    0    0 -0.63417876288E+02  0.84749325030E+02  0.76566160823E+02  0.13063939723E+03  0.00000000000E+00 0. -1.
         -5    1    5    5    0  502  0.94272210392E+02 -0.36879571414E+02  0.34267204142E+02  0.10697515468E+03  0.47000000000E+01 0.  1.
         13    1    6    6    0    0  0.14927137845E+02  0.11520510102E+02  0.30442098825E+02  0.35808699755E+02  0.00000000000E+00 0. -1.
        -14    1    6    6    0    0 -0.34861286943E+02 -0.77860855250E+02  0.31906471047E+02  0.91080431500E+02  0.00000000000E+00 0.  1.
</event>
<event>
12    1  0.8449700E-002  0.2067521E+03  0.7818608E-02  0.1145078E+00
         21   -1    0    0  501  502  0.00000000000E+00  0.00000000000E+00  0.14607588580E+03  0.14607588580E+03  0.00000000000E+00 0.  1.
         21   -1    0    0  502  503 -0.00000000000E+00 -0.00000000000E+00 -0.42527698123E+03  0.42527698123E+03  0.00000000000E+00 0.  1.
         -6    2    1    2    0  503  0.41296437043E+02 -0.10512435956E+03  0.22652803410E+02  0.20798935278E+03  0.17317590676E+03 0.  0.
        -24    2    3    3    0    0 -0.95937832682E+01 -0.54078800004E+02  0.69811085752E+02  0.12172547119E+03  0.83228272574E+02 0.  0.
          6    2    1    2  501    0 -0.41296437043E+02  0.10512435956E+03 -0.30185389883E+03  0.36336351425E+03  0.16781162225E+03 0.  0.
         24    2    5    5    0    0 -0.38799849240E+02  0.42358992175E+02 -0.27952211016E+03  0.29653146297E+03  0.80613807386E+02 0.  0.
          5    1    5    5  501    0 -0.24965878031E+01  0.62765367383E+02 -0.22331788670E+02  0.66832051282E+02  0.47000000000E+01 0. -1.
        -13    1    6    6    0    0 -0.59803434544E+02  0.18741142526E+02 -0.13863298852E+03  0.15214068066E+03  0.00000000000E+00 0.  1.
         14    1    6    6    0    0  0.21003585304E+02  0.23617849650E+02 -0.14088912164E+03  0.14439078230E+03  0.00000000000E+00 0. -1.
         -5    1    3    3    0  503  0.50890220311E+02 -0.51045559553E+02 -0.47158282341E+02  0.86263881589E+02  0.47000000000E+01 0.  1.
         13    1    4    4    0    0 -0.41883589318E+02 -0.49033852755E+02  0.58712734253E+02  0.87210887701E+02  0.00000000000E+00 0. -1.
        -14    1    4    4    0    0  0.32289806050E+02 -0.50449472495E+01  0.11098351499E+02  0.34514583490E+02  0.00000000000E+00 0.  1.
</event>
<event>
12    1  0.8449700E-002  0.1775554E+03  0.7818608E-02  0.1170495E+00
         21   -1    0    0  503  502  0.00000000000E+00  0.00000000000E+00  0.75623032660E+02  0.75623032660E+02  0.00000000000E+00 0.  1.
         21   -1    0    0  501  503 -0.00000000000E+00 -0.00000000000E+00 -0.10632556557E+04  0.10632556557E+04  0.00000000000E+00 0.  1.
          6    2    1    2  501    0 -0.18903233290E+02 -0.38728672654E+02 -0.93812428327E+03  0.95455015067E+03  0.17097244507E+03 0.  0.
         24    2    3    3    0    0 -0.52444421126E+02 -0.52032656613E+02 -0.87604844898E+03  0.88259525874E+03  0.77818321248E+02 0.  0.
         -6    2    1    2    0  502  0.18903233290E+02  0.38728672654E+02 -0.49508339792E+02  0.18432853771E+03  0.17224602112E+03 0.  0.
        -24    2    5    5    0    0 -0.50224512202E+02 -0.80508283789E+01 -0.28948500151E+02  0.98236935798E+02  0.78899698545E+02 0.  0.
          5    1    3    3  501    0  0.33541187836E+02  0.13303983958E+02 -0.62075834286E+02  0.71954891931E+02  0.47000000000E+01 0. -1.
        -11    1    4    4    0    0  0.49500312484E+01 -0.29827139653E+02 -0.54741871910E+03  0.54825305753E+03  0.00000000000E+00 0.  1.
         12    1    4    4    0    0 -0.57394452374E+02 -0.22205516960E+02 -0.32862972988E+03  0.33434220121E+03  0.00000000000E+00 0. -1.
         -5    1    5    5    0  502  0.69127745492E+02  0.46779501033E+02 -0.20559839641E+02  0.86091601912E+02  0.47000000000E+01 0.  1.
         11    1    6    6    0    0 -0.31607783325E+02 -0.21923396646E+02 -0.52553749011E+02  0.65127442927E+02  0.00000000000E+00 0. -1.
        -12    1    6    6    0    0 -0.18616728877E+02  0.13872568267E+02  0.23605248860E+02  0.33109492871E+02  0.00000000000E+00 0.  1.
</event>
<event>
12    1  0.8449700E-002  0.1926925E+03  0.7818608E-02  0.1157250E+00
         21   -1    0    0  501  502  0.00000000000E+00  0.00000000000E+00  0.28109143940E+03  0.28109143940E+03  0.00000000000E+00 0.  1.
         21   -1    0    0  502  503 -0.00000000000E+00 -0.00000000000E+00 -0.14983053991E+03  0.14983053991E+03  0.00000000000E+00 0.  1.
         -6    2    1    2    0  503  0.16235237430E+02  0.76267077330E+02  0.14775590627E+03  0.24282135552E+03  0.17621053555E+03 0.  0.
        -24    2    3    3    0    0  0.73869665615E+02  0.49273611169E+02  0.12979282225E+03  0.17652552673E+03  0.80190202786E+02 0.  0.
          6    2    1    2  501    0 -0.16235237430E+02 -0.76267077330E+02 -0.16495006782E+02  0.18810062379E+03  0.17038048422E+03 0.  0.
         24    2    5    5    0    0  0.44535753207E+01 -0.43546824537E+02 -0.73837465114E+02  0.11875446714E+03  0.82063950367E+02 0.  0.
          5    1    5    5  501    0 -0.20688812751E+02 -0.32720252792E+02  0.57342458332E+02  0.69346156659E+02  0.47000000000E+01 0. -1.
        -13    1    6    6    0    0 -0.10683058886E+02 -0.38236439969E+02  0.34213311740E+01  0.39847943431E+02  0.00000000000E+00 0.  1.
         14    1    6    6    0    0  0.15136634207E+02 -0.53103845683E+01 -0.77258796288E+02  0.78906523705E+02  0.00000000000E+00 0. -1.
         -5    1    3    3    0  503 -0.57634428185E+02  0.26993466160E+02  0.17963084017E+02  0.66295828790E+02  0.47000000000E+01 0.  1.
         13    1    4    4    0    0 -0.72007235694E+01 -0.12616636868E+02  0.50192754453E+01  0.15369550149E+02  0.00000000000E+00 0. -1.
        -14    1    4    4    0    0  0.81070389184E+02  0.61890248037E+02  0.12477354681E+03  0.16115597658E+03  0.00000000000E+00 0.  1.
</event>
<event>
12    1  0.8449700E-002  0.1887380E+03  0.7818608E-02  0.1159918E+00
         21   -1    0    0  501  502  0.00000000000E+00  0.00000000000E+00  0.12807766558E+03  0.12807766558E+03  0.00000000000E+00 0. -1.
         21   -1    0    0  502  503 -0.00000000000E+00 -0.00000000000E+00 -0.31680003952E+03  0.31680003952E+03  0.00000000000E+00 0.  1.
         -6    2    1    2    0  503 -0.70693103835E+02 -0.18537632235E+02 -0.17378251905E+03  0.25554936264E+03  0.17252232922E+03 0.  0.
        -24    2    3    3    0    0  0.24082744925E+02  0.33691390302E+01 -0.93350900430E+02  0.12924139215E+03  0.86009401418E+02 0.  0.
          6    2    1    2  501    0  0.70693103835E+02  0.18537632235E+02 -0.14939854883E+02  0.18932834246E+03  0.17401397432E+03 0.  0.
         24    2    5    5    0    0  0.48607304906E+02  0.72209269988E+02  0.21678506518E+02  0.12054301259E+03  0.80522117944E+02 0.  0.
          5    1    5    5  501    0  0.22085798930E+02 -0.53671637753E+02 -0.36618361401E+02  0.68785329869E+02  0.47000000000E+01 0. -1.
        -13    1    6    6    0    0 -0.15258121948E+02  0.27315212229E+02 -0.14520120516E+02  0.34492970361E+02  0.00000000000E+00 0.  1.
         14    1    6    6    0    0  0.63865426854E+02  0.44894057759E+02  0.36198627034E+02  0.86050042234E+02  0.00000000000E+00 0. -1.
         -5    1    3    3    0  503 -0.94775848760E+02 -0.21906771265E+02 -0.80431618617E+02  0.12630797049E+03  0.47000000000E+01 0.  1.
         13    1    4    4    0    0  0.18985499186E+02  0.31307647664E+02 -0.93952887569E+02  0.10083532647E+03  0.00000000000E+00 0. -1.
        -14    1    4    4    0    0  0.50972457381E+01 -0.27938508634E+02  0.60198713896E+00  0.28406065678E+02  0.00000000000E+00 0.  1.
</event>
<event>
12    1  0.8449700E-002  0.2677129E+03  0.7818608E-02  0.1102661E+00
         21   -1    0    0  503  502  0.00000000000E+00  0.00000000000E+00  0.13845149899E+04  0.13845149899E+04  0.00000000000E+00 0.  1.
         21   -1    0    0  501  503 -0.00000000000E+00 -0.00000000000E+00 -0.61033078774E+02  0.61033078774E+02  0.00000000000E+00 0. -1.
          6    2    1    2  501    0 -0.16065185955E+02  0.20339757623E+03  0.94518829356E+03  0.98237013782E+03  0.17332487753E+03 0.  0.
         24    2    3    3    0    0 -0.70315383362E+01  0.47302668425E+02  0.19387093814E+03  0.21494125799E+03  0.79541302227E+02 0.  0.
         -6    2    1    2    0  502  0.16065185955E+02 -0.20339757623E+03  0.37829361760E+03  0.46317793089E+03  0.17262407228E+03 0.  0.
        -24    2    5    5    0    0  0.43616254451E+02 -0.33644603980E+02  0.12465583902E+03  0.15669898270E+03  0.77337933427E+02 0.  0.
          5    1    3    3  501    0 -0.90336476191E+01  0.15609490781E+03  0.75131735542E+03  0.76742887983E+03  0.47000000000E+01 0. -1.
        -11    1    4    4    0    0  0.18048900419E+02 -0.11332539748E+02  0.94447462408E+02  0.96822065764E+02  0.00000000000E+00 0.  1.
         12    1    4    4    0    0 -0.25080438755E+02  0.58635208174E+02  0.99423475729E+02  0.11811919222E+03  0.00000000000E+00 0. -1.
         -5    1    5    5    0  502 -0.27551068496E+02 -0.16975297225E+03  0.25363777858E+03  0.30647894820E+03  0.47000000000E+01 0.  1.
         13    1    6    6    0    0  0.31685873735E+02 -0.38705485308E+02  0.24483020973E+02  0.55691359323E+02  0.00000000000E+00 0. -1.
        -14    1    6    6    0    0  0.11930380717E+02  0.50608813281E+01  0.10017281805E+03  0.10100762337E+03  0.00000000000E+00 0.  1.
</event>
<event>
12    1  0.8449700E-002  0.2046243E+03  0.7818608E-02  0.1145932E+00
         21   -1    0    0  503  502  0.00000000000E+00  0.00000000000E+00  0.14742302068E+04  0.14742302068E+04  0.00000000000E+00 0.  1.
         21   -1    0    0  501  503 -0.00000000000E+00 -0.00000000000E+00 -0.29244567743E+02  0.29244567743E+02  0.00000000000E+00 0.  1.
          6    2    1    2  501    0 -0.73018380614E+02  0.83334373540E+02  0.85228508364E+03  0.87650496644E+03  0.17203136541E+03 0.  0.
         24    2    3    3    0    0 -0.54383813494E+02 -0.20359852805E+02  0.44412463654E+03  0.45494028547E+03  0.79698480442E+02 0.  0.
         -6    2    1    2    0  502  0.73018380614E+02 -0.83334373540E+02  0.59270055538E+03  0.62696980806E+03  0.17181644319E+03 0.  0.
        -24    2    5    5    0    0  0.87657810956E+02 -0.41526693959E+02  0.55337440640E+03  0.56754901215E+03  0.80500244751E+02 0.  0.
          5    1    3    3  501    0 -0.18634567120E+02  0.10369422634E+03  0.40816044710E+03  0.42156468098E+03  0.47000000000E+01 0. -1.
        -13    1    4    4    0    0 -0.22424076018E+02  0.28387984923E+02  0.23793951073E+03  0.24067390312E+03  0.00000000000E+00 0.  1.
         14    1    4    4    0    0 -0.31959737477E+02 -0.48747837728E+02  0.20618512580E+03  0.21426638235E+03  0.00000000000E+00 0. -1.
         -5    1    5    5    0  502 -0.14639430342E+02 -0.41807679581E+02  0.39326148979E+02  0.59420795906E+02  0.47000000000E+01 0.  1.
         11    1    6    6    0    0  0.26495217835E+01 -0.40653266172E+02  0.16147899386E+03  0.16653880471E+03  0.00000000000E+00 0. -1.
        -12    1    6    6    0    0  0.85008289173E+02 -0.87342778756E+00  0.39189541253E+03  0.40101020744E+03  0.00000000000E+00 0.  1.
</event>
<event>
12    1  0.8449700E-002  0.1847603E+03  0.7818608E-02  0.1166570E+00
         21   -1    0    0  501  502  0.00000000000E+00  0.00000000000E+00  0.25269968198E+03  0.25269968198E+03  0.00000000000E+00 0. -1.
         21   -1    0    0  502  503 -0.00000000000E+00 -0.00000000000E+00 -0.15909006733E+03  0.15909006733E+03  0.00000000000E+00 0. -1.
         -6    2    1    2    0  503 -0.31335106846E+02  0.61617238223E+02 -0.49329806335E+02  0.17819172460E+03  0.15665340071E+03 0.  0.
        -24    2    3    3    0    0  0.23146170529E+01 -0.23241114066E+02 -0.17388749817E+02  0.81364223530E+02  0.75975400067E+02 0.  0.
          6    2    1    2  501    0  0.31335106846E+02 -0.61617238223E+02  0.14293942098E+03  0.23359802471E+03  0.17134113958E+03 0.  0.
         24    2    5    5    0    0  0.70368294361E+02  0.56150136674E+01  0.65548213155E+02  0.12380160186E+03  0.77762736232E+02 0.  0.
          5    1    5    5  501    0 -0.39033187515E+02 -0.67232251891E+02  0.77391207822E+02  0.10979642285E+03  0.47000000000E+01 0. -1.
        -11    1    6    6    0    0  0.66340119951E+02 -0.26047215035E+02  0.55527583869E+02  0.90348112855E+02  0.00000000000E+00 0.  1.
         12    1    6    6    0    0  0.40281744098E+01  0.31662228703E+02  0.10020629286E+02  0.33453489008E+02  0.00000000000E+00 0. -1.
         -5    1    3    3    0  503 -0.33649723899E+02  0.84858352290E+02 -0.31941056518E+02  0.96827501069E+02  0.47000000000E+01 0.  1.
         11    1    4    4    0    0  0.14214198613E+02 -0.48060453675E+01 -0.44224132241E+02  0.46700271806E+02  0.00000000000E+00 0. -1.
        -12    1    4    4    0    0 -0.11899581560E+02 -0.18435068699E+02  0.26835382425E+02  0.34663951724E+02  0.00000000000E+00 0.  1.
</event>
<event>
12    1  0.8449700E-002  0.1838512E+03  0.7818608E-02  0.1164205E+00
         21   -1    0    0  503  502  0.00000000000E+00  0.00000000000E+00  0.15048477476E+03  0.15048477476E+03  0.00000000000E+00 0.  1.
         21   -1    0    0  501  503 -0.00000000000E+00 -0.00000000000E+00 -0.25141311562E+03  0.25141311562E+03  0.00000000000E+00 0. -1.
          6    2    1    2  501    0  0.48738062228E+02  0.47483063477E+02 -0.11652334319E+03  0.21738648237E+03  0.17043812127E+03 0.  0.
         24    2    3    3    0    0 -0.23552360581E+02 -0.51152846698E+01 -0.88053433046E+02  0.12344438722E+03  0.83091695362E+02 0.  0.
         -6    2    1    2    0  502 -0.48738062228E+02 -0.47483063477E+02  0.15595002320E+02  0.18451140801E+03  0.17079583005E+03 0.  0.
        -24    2    5    5    0    0  0.26285887004E+02  0.11595736669E+02  0.28485520824E+02  0.88037820681E+02  0.78190945825E+02 0.  0.
          5    1    3    3  501    0  0.72290422809E+02  0.52598348147E+02 -0.28469910143E+02  0.93942095151E+02  0.47000000000E+01 0. -1.
        -11    1    4    4    0    0 -0.46948571450E+02  0.37963132460E+00 -0.87621772984E+02  0.99407683717E+02  0.00000000000E+00 0.  1.
         12    1    4    4    0    0  0.23396210868E+02 -0.54949159944E+01 -0.43166006212E+00  0.24036703501E+02  0.00000000000E+00 0. -1.
         -5    1    5    5    0  502 -0.75023949232E+02 -0.59078800147E+02 -0.12890518505E+02  0.96473587331E+02  0.47000000000E+01 0.  1.
         11    1    6    6    0    0 -0.16544461476E+02  0.19466528606E+02  0.35697282935E+02  0.43897163353E+02  0.00000000000E+00 0. -1.
        -12    1    6    6    0    0  0.42830348479E+02 -0.78707919362E+01 -0.72117621108E+01  0.44140657328E+02  0.00000000000E+00 0.  1.
</event>
<event>
12    1  0.8449700E-002  0.1884278E+03  0.7818608E-02  0.1160942E+00
         21   -1    0    0  501  502  0.00000000000E+00  0.00000000000E+00  0.48144662988E+03  0.48144662988E+03  0.00000000000E+00 0. -1.
         21   -1    0    0  502  503 -0.00000000000E+00 -0.00000000000E+00 -0.11579287446E+03  0.11579287446E+03  0.00000000000E+00 0.  1.
         -6    2    1    2    0  503 -0.54146936639E+02 -0.34092727977E+02 -0.22697921216E+01  0.18387188739E+03  0.17236448059E+03 0.  0.
        -24    2    3    3    0    0 -0.84944500917E+02 -0.17437117570E+02 -0.57174241486E+02  0.11858415590E+03  0.57216141391E+02 0.  0.
          6    2    1    2  501    0  0.54146936639E+02  0.34092727977E+02  0.36792354755E+03  0.41336761695E+03  0.17723104993E+03 0.  0.
         24    2    5    5    0    0  0.64143685746E+02 -0.15398759181E+02  0.11233504630E+03  0.15279725359E+03  0.79851761861E+02 0.  0.
          5    1    5    5  501    0 -0.99967491072E+01  0.49491487158E+02  0.25558850124E+03  0.26057036336E+03  0.47000000000E+01 0. -1.
        -13    1    6    6    0    0  0.64657009726E+01  0.50908293300E+01 -0.11803251788E+02  0.14388835432E+02  0.00000000000E+00 0.  1.
         14    1    6    6    0    0  0.57677984774E+02 -0.20489588511E+02  0.12413829809E+03  0.13840841816E+03  0.00000000000E+00 0. -1.
         -5    1    3    3    0  503  0.30797564278E+02 -0.16655610407E+02  0.54904449364E+02  0.65287731493E+02  0.47000000000E+01 0.  1.
         13    1    4    4    0    0 -0.50610427887E+02  0.18613035290E+02 -0.26216196543E+02  0.59959565165E+02  0.00000000000E+00 0. -1.
        -14    1    4    4    0    0 -0.34334073031E+02 -0.36050152860E+02 -0.30958044943E+02  0.58624590734E+02  0.00000000000E+00 0.  1.
</event>
<event>
12    1  0.8449700E-002  0.1899843E+03  0.7818608E-02  0.1162516E+00
         21   -1    0    0  501  502  0.00000000000E+00  0.00000000000E+00  0.43737511235E+03  0.43737511235E+03  0.00000000000E+00 0. -1.
         21   -1    0    0  502  503 -0.00000000000E+00 -0.00000000000E+00 -0.99661777605E+02  0.99661777605E+02  0.00000000000E+00 0. -1.
         -6    2    1    2    0  503 -0.69000704883E+02  0.43151680734E+02  0.42166729107E+02  0.19460746002E+03  0.17167080598E+03 0.  0.
        -24    2    3    3    0    0 -0.67050432483E+02  0.19441141365E+02 -0.43777419581E+02  0.10530751638E+03  0.65570512184E+02 0.  0.
          6    2    1    2  501    0  0.69000704883E+02 -0.43151680734E+02  0.29554660564E+03  0.34242942994E+03  0.15260063420E+03 0.  0.
         24    2    5    5    0    0  0.30649096303E+02 -0.49645381093E+02  0.91824329053E+02  0.13497372382E+03  0.79888470674E+02 0.  0.
          5    1    5    5  501    0  0.38351608581E+02  0.64937003595E+01  0.20372227659E+03  0.20745570612E+03  0.47000000000E+01 0. -1.
        -11    1    6    6    0    0  0.10913684769E+01 -0.19098557005E+02 -0.12139289703E+02  0.22656308599E+02  0.00000000000E+00 0.  1.
         12    1    6    6    0    0  0.29557727826E+02 -0.30546824089E+02  0.10396361876E+03  0.11231741522E+03  0.00000000000E+00 0. -1.
         -5    1    3    3    0  503 -0.19502723999E+01  0.23710539369E+02  0.85944148688E+02  0.89299943635E+02  0.47000000000E+01 0.  1.
         11    1    4    4    0    0 -0.28591725542E+02 -0.24112108322E+02 -0.13297447170E+02  0.39695121091E+02  0.00000000000E+00 0. -1.
        -12    1    4    4    0    0 -0.38458706941E+02  0.43553249687E+02 -0.30479972410E+02  0.65612395293E+02  0.00000000000E+00 0.  1.
</event>
<event>
12    1  0.8449700E-002  0.2547027E+03  0.7818608E-02  0.1110622E+00
         21   -1    0    0  503  502  0.00000000000E+00  0.00000000000E+00  0.10239880926E+04  0.10239880926E+04  0.00000000000E+00 0.  1.
         21   -1    0    0  501  503 -0.00000000000E+00 -0.00000000000E+00 -0.10753660122E+03  0.10753660122E+03  0.00000000000E+00 0.  1.
          6    2    1    2  501    0 -0.38485262898E+02 -0.18406846534E+03  0.94779948154E+02  0.27176588283E+03  0.17178807032E+03 0.  0.
         24    2    3    3    0    0 -0.50223119794E+02 -0.78472214980E+02 -0.99131520476E+01  0.12253089831E+03  0.78963916898E+02 0.  0.
         -6    2    1    2    0  502  0.38485262898E+02  0.18406846534E+03  0.82167154326E+03  0.85975881102E+03  0.16934808156E+03 0.  0.
        -24    2    5    5    0    0  0.57001855766E+02  0.63868714553E+02  0.30737688047E+03  0.33125910952E+03  0.89014755735E+02 0.  0.
          5    1    3    3  501    0  0.11737856896E+02 -0.10559625036E+03  0.10469310020E+03  0.14923498452E+03  0.47000000000E+01 0. -1.
        -11    1    4    4    0    0 -0.17445169718E+02 -0.48207258576E+02 -0.43060357087E+02  0.66951236571E+02  0.00000000000E+00 0.  1.
         12    1    4    4    0    0 -0.32777950076E+02 -0.30264956404E+02  0.33147205040E+02  0.55579661741E+02  0.00000000000E+00 0. -1.
         -5    1    5    5    0  502 -0.18516592868E+02  0.12019975078E+03  0.51429466280E+03  0.52849970150E+03  0.47000000000E+01 0.  1.
         11    1    6    6    0    0 -0.67244951087E+01 -0.17119617231E+02  0.71973877374E+02  0.74286870662E+02  0.00000000000E+00 0. -1.
        -12    1    6    6    0    0  0.63726350875E+02  0.80988331784E+02  0.23540300309E+03  0.25697223886E+03  0.00000000000E+00 0.  1.
</event>
<event>
12    1  0.8449700E-002  0.3954994E+03  0.7818608E-02  0.1045357E+00
         21   -1    0    0  503  502  0.00000000000E+00  0.00000000000E+00  0.24076275240E+04  0.24076275240E+04  0.00000000000E+00 0. -1.
         21   -1    0    0  501  503 -0.00000000000E+00 -0.00000000000E+00 -0.67813393817E+02  0.67813393817E+02  0.00000000000E+00 0.  1.
          6    2    1    2  501    0  0.16387196803E+02 -0.35546973202E+03  0.91565571502E+03  0.99738579064E+03  0.17241158990E+03 0.  0.
         24    2    3    3    0    0 -0.51804810386E+02 -0.14412114368E+03  0.38887026215E+03  0.42568361381E+03  0.80819650154E+02 0.  0.
         -6    2    1    2    0  502 -0.16387196803E+02  0.35546973202E+03  0.14241584152E+04  0.14780551272E+04  0.17260503148E+03 0.  0.
        -24    2    5    5    0    0  0.41049227773E+02  0.23159190759E+03  0.74565989770E+03  0.78593737241E+03  0.79806137356E+02 0.  0.
          5    1    3    3  501    0  0.68192007189E+02 -0.21134858833E+03  0.52678545287E+03  0.57170217683E+03  0.47000000000E+01 0. -1.
        -11    1    4    4    0    0 -0.43629102980E+01 -0.79357868198E+02  0.11148575728E+03  0.13691523037E+03  0.00000000000E+00 0.  1.
         12    1    4    4    0    0 -0.47441900088E+02 -0.64763275483E+02  0.27738450487E+03  0.28876838344E+03  0.00000000000E+00 0. -1.
         -5    1    5    5    0  502 -0.57436424576E+02  0.12387782443E+03  0.67849851751E+03  0.69211775481E+03  0.47000000000E+01 0.  1.
         11    1    6    6    0    0  0.46582672580E+02  0.98066238710E+02  0.42269133166E+03  0.43641138210E+03  0.00000000000E+00 0. -1.
        -12    1    6    6    0    0 -0.55334448069E+01  0.13352566888E+03  0.32296856603E+03  0.34952599032E+03  0.00000000000E+00 0.  1.
</event>
<event>
12    1  0.8449700E-002  0.1898042E+03  0.7818608E-02  0.1159003E+00
         21   -1    0    0  503  502  0.00000000000E+00  0.00000000000E+00  0.31388179651E+03  0.31388179651E+03  0.00000000000E+00 0.  1.
         21   -1    0    0  501  503 -0.00000000000E+00 -0.00000000000E+00 -0.17682928515E+03  0.17682928515E+03  0.00000000000E+00 0.  1.
          6    2    1    2  501    0  0.58677643048E+02  0.50822061482E+02 -0.77764815606E+02  0.20511706820E+03  0.17320420720E+03 0.  0.
         24    2    3    3    0    0  0.66371895752E+02  0.96255517356E+02 -0.69646372746E+02  0.15809154798E+03  0.80448537208E+02 0.  0.
         -6    2    1    2    0  502 -0.58677643048E+02 -0.50822061482E+02  0.21481732696E+03  0.28559401346E+03  0.17143951947E+03 0.  0.
        -24    2    5    5    0    0 -0.10307969695E+03 -0.23894200099E+02  0.17861361844E+03  0.22211605965E+03  0.78970643523E+02 0.  0.
          5    1    3    3  501    0 -0.76942527032E+01 -0.45433455875E+02 -0.81184428597E+01  0.47025520219E+02  0.47000000000E+01 0. -1.
        -13    1    4    4    0    0  0.25360306505E+02  0.91514910887E+02 -0.67953035790E+02  0.11677216763E+03  0.00000000000E+00 0.  1.
         14    1    4    4    0    0  0.41011589247E+02  0.47406064694E+01 -0.16933369568E+01  0.41319380348E+02  0.00000000000E+00 0. -1.
         -5    1    5    5    0  502  0.44402053905E+02 -0.26927861382E+02  0.36203708523E+02  0.63477953814E+02  0.47000000000E+01 0.  1.
         11    1    6    6    0    0 -0.51950489763E+02  0.17307308233E+02  0.12796379023E+03  0.13918738418E+03  0.00000000000E+00 0. -1.
        -12    1    6    6    0    0 -0.51129207191E+02 -0.41201508332E+02  0.50649828205E+02  0.82928675463E+02  0.00000000000E+00 0.  1.
</event>
<event>
12    1  0.8449700E-002  0.1907378E+03  0.7818608E-02  0.1158198E+00
         21   -1    0    0  501  502  0.00000000000E+00  0.00000000000E+00  0.28511221588E+04  0.28511221588E+04  0.00000000000E+00 0. -1.
         21   -1    0    0  502  503 -0.00000000000E+00 -0.00000000000E+00 -0.19105108016E+02  0.19105108016E+02  0.00000000000E+00 0. -1.
         -6    2    1    2    0  503  0.68377007721E+02  0.36173511232E+02  0.58567632313E+03  0.61595265449E+03  0.17434729421E+03 0.  0.
        -24    2    3    3    0    0  0.38315840118E+02  0.51624584798E+02  0.16902435179E+03  0.19790557019E+03  0.80400135909E+02 0.  0.
          6    2    1    2  501    0 -0.68377007721E+02 -0.36173511232E+02  0.22463407277E+04  0.22542746123E+04  0.17240482871E+03 0.  0.
         24    2    5    5    0    0 -0.48536108747E+02 -0.30042397586E+02  0.61128201069E+03  0.61907726958E+03  0.79578072383E+02 0.  0.
          5    1    5    5  501    0 -0.19840898974E+02 -0.61311136457E+01  0.16350587170E+04  0.16351973428E+04  0.47000000000E+01 0. -1.
        -11    1    6    6    0    0 -0.68866518898E+02 -0.11301513569E+02  0.46455104568E+03  0.46976376582E+03  0.00000000000E+00 0.  1.
         12    1    6    6    0    0  0.20330410151E+02 -0.18740884017E+02  0.14673096501E+03  0.14931350375E+03  0.00000000000E+00 0. -1.
         -5    1    3    3    0  503  0.30061167603E+02 -0.15451073566E+02  0.41665197134E+03  0.41804708430E+03  0.47000000000E+01 0.  1.
         13    1    4    4    0    0  0.26139361673E+01 -0.21233245730E+02  0.28435726864E+02  0.35584743202E+02  0.00000000000E+00 0. -1.
        -14    1    4    4    0    0  0.35701903951E+02  0.72857830527E+02  0.14058862493E+03  0.16232082699E+03  0.00000000000E+00 0.  1.
</event>
<event>
12    1  0.8449700E-002  0.1873350E+03  0.7818608E-02  0.1160896E+00
         21   -1    0    0  503  502  0.00000000000E+00  0.00000000000E+00  0.66572442481E+03  0.66572442481E+03  0.00000000000E+00 0.  1.
         21   -1    0    0  501  503 -0.00000000000E+00 -0.00000000000E+00 -0.16010152603E+03  0.16010152603E+03  0.00000000000E+00 0.  1.
          6    2    1    2  501    0  0.32954597732E+02 -0.66364933932E+02 -0.85382235546E+02  0.20584088109E+03  0.17201753461E+03 0.  0.
         24    2    3    3    0    0  0.55176731796E+01 -0.10071455774E+03 -0.95655739841E+02  0.16045017306E+03  0.80127215193E+02 0.  0.
         -6    2    1    2    0  502 -0.32954597732E+02  0.66364933932E+02  0.59100513432E+03  0.61998506975E+03  0.17205844342E+03 0.  0.
        -24    2    5    5    0    0 -0.74298337966E+02  0.71026271380E+01  0.42515632283E+03  0.43901754743E+03  0.80048846150E+02 0.  0.
          5    1    3    3  501    0  0.27436924552E+02  0.34349623804E+02  0.10273504295E+02  0.45390708023E+02  0.47000000000E+01 0. -1.
        -13    1    4    4    0    0  0.11102160086E+00 -0.18998823441E+02  0.13991749523E+02  0.23595268014E+02  0.00000000000E+00 0.  1.
         14    1    4    4    0    0  0.54066515788E+01 -0.81715734295E+02 -0.10964748936E+03  0.13685490505E+03  0.00000000000E+00 0. -1.
         -5    1    5    5    0  502  0.41343740234E+02  0.59262306794E+02  0.16584881150E+03  0.18096752233E+03  0.47000000000E+01 0.  1.
         13    1    6    6    0    0 -0.34852075626E+01  0.27246070008E+02  0.53500204049E+02  0.60139561322E+02  0.00000000000E+00 0. -1.
        -14    1    6    6    0    0 -0.70813130403E+02 -0.20143442870E+02  0.37165611878E+03  0.37887798610E+03  0.00000000000E+00 0.  1.
</event>
<event>
12    1  0.8449700E-002  0.2088517E+03  0.7818608E-02  0.1142490E+00
         21   -1    0    0  501  502  0.00000000000E+00  0.00000000000E+00  0.11157904610E+04  0.11157904610E+04  0.00000000000E+00 0.  1.
         21   -1    0    0  502  503 -0.00000000000E+00 -0.00000000000E+00 -0.50045438474E+03  0.50045438474E+03  0.00000000000E+00 0.  1.
         -6    2    1    2    0  503 -0.11090566037E+03 -0.42982714458E+02 -0.46825552451E+03  0.51272046770E+03  0.17167254445E+03 0.  0.
        -24    2    3    3    0    0 -0.29361642584E+02 -0.20255443191E+02 -0.38126997596E+03  0.39125223583E+03  0.80244180099E+02 0.  0.
          6    2    1    2  501    0  0.11090566037E+03  0.42982714458E+02  0.10835916008E+04  0.11035243781E+04  0.17160336957E+03 0.  0.
         24    2    5    5    0    0  0.66574433800E+02  0.41945606758E+02  0.10185390363E+04  0.10246557570E+04  0.79410721821E+02 0.  0.
          5    1    5    5  501    0  0.44331226571E+02  0.10371077003E+01  0.65052564492E+02  0.78868621065E+02  0.47000000000E+01 0. -1.
        -11    1    6    6    0    0  0.74524961065E+02  0.58647816434E+01  0.70082946445E+03  0.70480515302E+03  0.00000000000E+00 0.  1.
         12    1    6    6    0    0 -0.79505272651E+01  0.36080825115E+02  0.31770957186E+03  0.31985060399E+03  0.00000000000E+00 0. -1.
         -5    1    3    3    0  503 -0.81544017787E+02 -0.22727271267E+02 -0.86985548547E+02  0.12146823186E+03  0.47000000000E+01 0.  1.
         11    1    4    4    0    0 -0.41092947416E+02  0.19893037906E+02 -0.18190566246E+03  0.18754741619E+03  0.00000000000E+00 0. -1.
        -12    1    4    4    0    0  0.11731304832E+02 -0.40148481098E+02 -0.19936431350E+03  0.20370481965E+03  0.00000000000E+00 0.  1.
</event>
<event>
12    1  0.8449700E-002  0.3785351E+03  0.7818608E-02  0.1051492E+00
         21   -1    0    0  501  502  0.00000000000E+00  0.00000000000E+00  0.23142391541E+03  0.23142391541E+03  0.00000000000E+00 0.  1.
         21   -1    0    0  502  503 -0.00000000000E+00 -0.00000000000E+00 -0.72419631759E+03  0.72419631759E+03  0.00000000000E+00 0. -1.
         -6    2    1    2    0  503 -0.33675678331E+03 -0.11176205558E+02 -0.64232190536E+02  0.38394612470E+03  0.17250743085E+03 0.  0.
        -24    2    3    3    0    0 -0.11107516190E+03  0.28519678034E+02 -0.63774473534E+02  0.15475132346E+03  0.82034901172E+02 0.  0.
          6    2    1    2  501    0  0.33675678331E+03  0.11176205558E+02 -0.42854021165E+03  0.57167410830E+03  0.17214683972E+03 0.  0.
         24    2    5    5    0    0  0.58985121148E+02 -0.18831971591E+01 -0.12862733931E+03  0.16265398008E+03  0.80178138342E+02 0.  0.
          5    1    5    5  501    0  0.27777166216E+03  0.13059402717E+02 -0.29991287234E+03  0.40902012822E+03  0.47000000000E+01 0. -1.
        -11    1    6    6    0    0  0.54228629884E+02  0.17339762209E+02 -0.34727861966E+02  0.66689099928E+02  0.00000000000E+00 0.  1.
         12    1    6    6    0    0  0.47564912640E+01 -0.19222959368E+02 -0.93899477347E+02  0.95964880149E+02  0.00000000000E+00 0. -1.
         -5    1    3    3    0  503 -0.22568162140E+03 -0.39695883592E+02 -0.45771700271E+00  0.22919480125E+03  0.47000000000E+01 0.  1.
         13    1    4    4    0    0 -0.42419892939E+02 -0.26189114112E+02 -0.39682437063E+02  0.63718229937E+02  0.00000000000E+00 0. -1.
        -14    1    4    4    0    0 -0.68655268964E+02  0.54708792146E+02 -0.24092036470E+02  0.91033093520E+02  0.00000000000E+00 0.  1.
</event>
<event>
12    1  0.8449700E-002  0.2299396E+03  0.7818608E-02  0.1126974E+00
         21   -1    0    0  503  502  0.00000000000E+00  0.00000000000E+00  0.48702414505E+02  0.48702414505E+02  0.00000000000E+00 0. -1.
         21   -1    0    0  501  503 -0.00000000000E+00 -0.00000000000E+00 -0.11844457149E+04  0.11844457149E+04  0.00000000000E+00 0.  1.
          6    2    1    2  501    0  0.15513825357E+02  0.14671233819E+03 -0.75098058846E+03  0.78491320071E+03  0.17421739135E+03 0.  0.
         24    2    3    3    0    0  0.29113624240E+02  0.13272783258E+03 -0.74847393006E+03  0.76469206664E+03  0.77951601271E+02 0.  0.
         -6    2    1    2    0  502 -0.15513825357E+02 -0.14671233819E+03 -0.38476271195E+03  0.44823492871E+03  0.17637181707E+03 0.  0.
        -24    2    5    5    0    0  0.34292211600E+02 -0.15568612487E+03 -0.28094047897E+03  0.33263944339E+03  0.79418645947E+02 0.  0.
          5    1    3    3  501    0 -0.13599798883E+02  0.13984505610E+02 -0.25066584002E+01  0.20221134071E+02  0.47000000000E+01 0. -1.
        -13    1    4    4    0    0 -0.16817615452E+02  0.35945217535E+02 -0.34362738121E+03  0.34591135854E+03  0.00000000000E+00 0.  1.
         14    1    4    4    0    0  0.45931239692E+02  0.96782615045E+02 -0.40484654885E+03  0.41878070809E+03  0.00000000000E+00 0. -1.
         -5    1    5    5    0  502 -0.49806036957E+02  0.89737866815E+01 -0.10382223298E+03  0.11559548532E+03  0.47000000000E+01 0.  1.
         13    1    6    6    0    0 -0.31641057888E+01  0.52207617003E+01  0.67395059389E+00  0.61418342193E+01  0.00000000000E+00 0. -1.
        -14    1    6    6    0    0  0.37456317388E+02 -0.16090688657E+03 -0.28161442956E+03  0.32649760917E+03  0.00000000000E+00 0.  1.
</event>
<event>
12    1  0.8449700E-002  0.2097399E+03  0.7818608E-02  0.1141891E+00
         21   -1    0    0  501  502  0.00000000000E+00  0.00000000000E+00  0.75160080466E+03  0.75160080466E+03  0.00000000000E+00 0. -1.
         21   -1    0    0  502  503 -0.00000000000E+00 -0.00000000000E+00 -0.60901508873E+02  0.60901508873E+02  0.00000000000E+00 0. -1.
         -6    2    1    2    0  503 -0.56726299226E+02  0.10599764859E+03  0.42876171918E+03  0.47731273675E+03  0.17186466274E+03 0.  0.
        -24    2    3    3    0    0 -0.22349548521E+02  0.87441100302E+02  0.13317065006E+03  0.17911435208E+03  0.78753290364E+02 0.  0.
          6    2    1    2  501    0  0.56726299226E+02 -0.10599764859E+03  0.26193757661E+03  0.33518957679E+03  0.17113557145E+03 0.  0.
         24    2    5    5    0    0 -0.14024379936E+02 -0.89701553490E+01  0.12769589115E+03  0.15501490276E+03  0.86291555445E+02 0.  0.
          5    1    5    5  501    0  0.70750679163E+02 -0.97027493239E+02  0.13424168545E+03  0.18017467402E+03  0.47000000000E+01 0. -1.
        -13    1    6    6    0    0 -0.41821768838E+02 -0.29606866778E+02  0.59414907592E+02  0.78458639762E+02  0.00000000000E+00 0.  1.
         14    1    6    6    0    0  0.27797388901E+02  0.20636711429E+02  0.68280983562E+02  0.76556263000E+02  0.00000000000E+00 0. -1.
         -5    1    3    3    0  503 -0.34376750705E+02  0.18556548286E+02  0.29559106913E+03  0.29819838467E+03  0.47000000000E+01 0.  1.
         11    1    4    4    0    0 -0.16028205845E+02  0.99260002963E+02  0.13160794578E+03  0.16562035794E+03  0.00000000000E+00 0. -1.
        -12    1    4    4    0    0 -0.63213426755E+01 -0.11818902660E+02  0.15627042797E+01  0.13493994145E+02  0.00000000000E+00 0.  1.
</event>
<event>
12    1  0.8449700E-002  0.2572487E+03  0.7818608E-02  0.1108817E+00
         21   -1    0    0  501  502  0.00000000000E+00  0.00000000000E+00  0.68194854956E+02  0.68194854956E+02  0.00000000000E+00 0. -1.
         21   -1    0    0  502  503 -0.00000000000E+00 -0.00000000000E+00 -0.97233992565E+03  0.97233992565E+03  0.00000000000E+00 0. -1.
         -6    2    1    2    0  503 -0.18672546961E+03  0.41311290865E+02 -0.42752537884E+03  0.49895372998E+03  0.17205769774E+03 0.  0.
        -24    2    3    3    0    0 -0.16854377427E+03  0.11173980752E+02 -0.42366047135E+03  0.46323456123E+03  0.81032104997E+02 0.  0.
          6    2    1    2  501    0  0.18672546961E+03 -0.41311290865E+02 -0.47661969185E+03  0.54158105063E+03  0.17196127467E+03 0.  0.
         24    2    5    5    0    0  0.13723174908E+03 -0.26361584158E+01 -0.19807430436E+03  0.25600266011E+03  0.86396930771E+02 0.  0.
          5    1    5    5  501    0  0.49493720528E+02 -0.38675132449E+02 -0.27854538749E+03  0.28557839052E+03  0.47000000000E+01 0. -1.
        -13    1    6    6    0    0  0.10008481806E+03  0.28242520626E+02 -0.17230141431E+03  0.20125205129E+03  0.00000000000E+00 0.  1.
         14    1    6    6    0    0  0.37146931023E+02 -0.30878679042E+02 -0.25772890053E+02  0.54750608814E+02  0.00000000000E+00 0. -1.
         -5    1    3    3    0  503 -0.18181695336E+02  0.30137310113E+02 -0.38649074912E+01  0.35719168748E+02  0.47000000000E+01 0.  1.
         13    1    4    4    0    0 -0.64539211735E+02  0.33062098251E+02 -0.24341927553E+03  0.25399085789E+03  0.00000000000E+00 0. -1.
        -14    1    4    4    0    0 -0.10400456254E+03 -0.21888117499E+02 -0.18024119582E+03  0.20924370334E+03  0.00000000000E+00 0.  1.
</event>
<event>
12    1  0.8449700E-002  0.4087524E+03  0.7818608E-02  0.1040898E+00
         21   -1    0    0  501  502  0.00000000000E+00  0.00000000000E+00  0.92421167278E+03  0.92421167278E+03  0.00000000000E+00 0. -1.
         21   -1    0    0  502  503 -0.00000000000E+00 -0.00000000000E+00 -0.33148860689E+03  0.33148860689E+03  0.00000000000E+00 0.  1.
         -6    2    1    2    0  503 -0.36794124862E+03  0.43554293226E+02 -0.12802604725E+03  0.42711243860E+03  0.16957779199E+03 0.  0.
        -24    2    3    3    0    0 -0.16138631862E+03 -0.24632579298E+02 -0.22452095293E+02  0.18528122055E+03  0.84691949467E+02 0.  0.
          6    2    1    2  501    0  0.36794124862E+03 -0.43554293226E+02  0.72074911314E+03  0.82858784107E+03  0.17262904556E+03 0.  0.
         24    2    5    5    0    0  0.10226451845E+03 -0.50128639103E+02  0.30950415247E+03  0.33892279774E+03  0.78134053003E+02 0.  0.
          5    1    5    5  501    0  0.26567673017E+03  0.65743458773E+01  0.41124496067E+03  0.48966504333E+03  0.47000000000E+01 0. -1.
        -11    1    6    6    0    0 -0.17067734141E+01 -0.30911468407E+02  0.51425516357E+02  0.60025125465E+02  0.00000000000E+00 0.  1.
         12    1    6    6    0    0  0.10397129187E+03 -0.19217170696E+02  0.25807863611E+03  0.27889767227E+03  0.00000000000E+00 0. -1.
         -5    1    3    3    0  503 -0.20655493000E+03  0.68186872523E+02 -0.10557395195E+03  0.24183121805E+03  0.47000000000E+01 0.  1.
         11    1    4    4    0    0 -0.16027778418E+03 -0.42623026134E+02 -0.21436974259E+02  0.16722809072E+03  0.00000000000E+00 0. -1.
        -12    1    4    4    0    0 -0.11085344360E+01  0.17990446837E+02 -0.10151210339E+01  0.18053129831E+02  0.00000000000E+00 0.  1.
</event>
<event>
12    1  0.8449700E-002  0.1882688E+03  0.7818608E-02  0.1160788E+00
         21   -1    0    0  501  502  0.00000000000E+00  0.00000000000E+00  0.46156396569E+02  0.46156396569E+02  0.00000000000E+00 0.  1.
         21   -1    0    0  502  503 -0.00000000000E+00 -0.00000000000E+00 -0.13758045755E+04  0.13758045755E+04  0.00000000000E+00 0.  1.
         -6    2    1    2    0  503  0.21706755710E+02  0.70548913527E+02 -0.11457616817E+04  0.11611265915E+04  0.17319583660E+03 0.  0.
        -24    2    3    3    0    0 -0.38902783653E+02  0.21329135694E+01 -0.40998950827E+03  0.41968404720E+03  0.80779494242E+02 0.  0.
          6    2    1    2  501    0 -0.21706755710E+02 -0.70548913527E+02 -0.18388649719E+03  0.26083438052E+03  0.16962310506E+03 0.  0.
         24    2    5    5    0    0 -0.57604159553E+02 -0.36851589467E+02 -0.45733722409E+02  0.11409511368E+03  0.79055947007E+02 0.  0.
          5    1    5    5  501    0  0.35897403843E+02 -0.33697324060E+02 -0.13815277478E+03  0.14673926684E+03  0.47000000000E+01 0. -1.
        -11    1    6    6    0    0 -0.48152446588E+02 -0.15850933295E+02 -0.66134659957E+02  0.83328887226E+02  0.00000000000E+00 0.  1.
         12    1    6    6    0    0 -0.94517129648E+01 -0.21000656173E+02  0.20400937548E+02  0.30766226458E+02  0.00000000000E+00 0. -1.
         -5    1    3    3    0  503  0.60609539363E+02  0.68415999958E+02 -0.73577217346E+03  0.74144254433E+03  0.47000000000E+01 0.  1.
         13    1    4    4    0    0 -0.54456922021E+02 -0.35197983229E+01 -0.15812860235E+03  0.16728000543E+03  0.00000000000E+00 0. -1.
        -14    1    4    4    0    0  0.15554138368E+02  0.56527118924E+01 -0.25186090592E+03  0.25240404177E+03  0.00000000000E+00 0.  1.
</event>
<event>
12    1  0.8449700E-002  0.2161138E+03  0.7818608E-02  0.1136982E+00
         21   -1    0    0  501  502  0.00000000000E+00  0.00000000000E+00  0.15263578841E+03  0.15263578841E+03  0.00000000000E+00 0. -1.
         21   -1    0    0  502  503 -0.00000000000E+00 -0.00000000000E+00 -0.35106904814E+03  0.35106904814E+03  0.00000000000E+00 0. -1.
         -6    2    1    2    0  503  0.86028944156E+02  0.98565909599E+02 -0.19052201108E+03  0.28744626943E+03  0.17091080520E+03 0.  0.
        -24    2    3    3    0    0  0.11009107205E+03  0.11401478765E+03 -0.19206896526E+03  0.25842667434E+03  0.69097341850E+02 0.  0.
          6    2    1    2  501    0 -0.86028944156E+02 -0.98565909599E+02 -0.79112486452E+01  0.21625856713E+03  0.17201442449E+03 0.  0.
         24    2    5    5    0    0 -0.13027490527E+03 -0.63085873114E+02 -0.14266310745E+02  0.15899588401E+03  0.64224490503E+02 0.  0.
          5    1    5    5  501    0  0.44245961111E+02 -0.35480036485E+02  0.63550620999E+01  0.57262683118E+02  0.47000000000E+01 0. -1.
        -11    1    6    6    0    0 -0.20669613408E+02  0.70875005831E+01 -0.18722569340E+02  0.28774992365E+02  0.00000000000E+00 0.  1.
         12    1    6    6    0    0 -0.10960529186E+03 -0.70173373697E+02  0.44562585944E+01  0.13022089164E+03  0.00000000000E+00 0. -1.
         -5    1    3    3    0  503 -0.24062127894E+02 -0.15448878050E+02  0.15469541717E+01  0.29019595087E+02  0.47000000000E+01 0.  1.
         11    1    4    4    0    0  0.30277320508E+01  0.45655299055E+02 -0.46730692916E+02  0.65401308500E+02  0.00000000000E+00 0. -1.
        -12    1    4    4    0    0  0.10706334000E+03  0.68359488594E+02 -0.14533827234E+03  0.19302536584E+03  0.00000000000E+00 0.  1.
</event>
<event>
12    1  0.8449700E-002  0.1898814E+03  0.7818608E-02  0.1159640E+00
         21   -1    0    0  501  502  0.00000000000E+00  0.00000000000E+00  0.73607203223E+03  0.73607203223E+03  0.00000000000E+00 0.  1.
         21   -1    0    0  502  503 -0.00000000000E+00 -0.00000000000E+00 -0.71960124140E+02  0.71960124140E+02  0.00000000000E+00 0.  1.
         -6    2    1    2    0  503 -0.52453428614E+02  0.56622925594E+02  0.95122471810E+02  0.20819556248E+03  0.16834366551E+03 0.  0.
        -24    2    3    3    0    0 -0.83997547064E+02  0.49303610858E+01  0.94421158457E+02  0.14745237789E+03  0.75808655226E+02 0.  0.
          6    2    1    2  501    0  0.52453428614E+02 -0.56622925594E+02  0.56898943628E+03  0.59983659389E+03  0.17348614612E+03 0.  0.
         24    2    5    5    0    0  0.56704643113E+02  0.17543532944E+02  0.43593267866E+03  0.44737372253E+03  0.81134180108E+02 0.  0.
          5    1    5    5  501    0 -0.42512144993E+01 -0.74166458537E+02  0.13305675762E+03  0.15246287136E+03  0.47000000000E+01 0. -1.
        -13    1    6    6    0    0  0.40669623749E+02 -0.25676936245E+02  0.30014365440E+03  0.30397292088E+03  0.00000000000E+00 0.  1.
         14    1    6    6    0    0  0.16035019364E+02  0.43220469189E+02  0.13578902426E+03  0.14340080165E+03  0.00000000000E+00 0. -1.
         -5    1    3    3    0  503  0.31544118450E+02  0.51692564508E+02  0.70131335343E+00  0.60743184594E+02  0.47000000000E+01 0.  1.
         13    1    4    4    0    0 -0.17766527675E+02 -0.79912680695E+01  0.74629277487E+02  0.77130013155E+02  0.00000000000E+00 0. -1.
        -14    1    4    4    0    0 -0.66231019389E+02  0.12921629155E+02  0.19791880969E+02  0.70322364733E+02  0.00000000000E+00 0.  1.
</event>
<event>
12    1  0.8449700E-002  0.1789006E+03  0.7818608E-02  0.1169825E+00
         21   -1    0    0  501  502  0.00000000000E+00  0.00000000000E+00  0.19347360073E+02  0.19347360073E+02  0.00000000000E+00 0. -1.
         21   -1    0    0  502  503 -0.00000000000E+00 -0.00000000000E+00 -0.16203658035E+04  0.16203658035E+04  0.00000000000E+00 0. -1.
         -6    2    1    2    0  503  0.37911163795E+02  0.40238157262E+02 -0.78311958530E+03  0.80329429412E+03  0.17014426951E+03 0.  0.
        -24    2    3    3    0    0  0.25150773918E+02  0.48514190839E+02 -0.22329903677E+03  0.24324745962E+03  0.79502695842E+02 0.  0.
          6    2    1    2  501    0 -0.37911163795E+02 -0.40238157262E+02 -0.81789885812E+03  0.83641886944E+03  0.16607714295E+03 0.  0.
         24    2    5    5    0    0  0.10234106293E+02 -0.95919176009E+01 -0.70581936464E+03  0.71055758908E+03  0.80711647733E+02 0.  0.
          5    1    5    5  501    0 -0.48145270088E+02 -0.30646239661E+02 -0.11207949348E+03  0.12586128037E+03  0.47000000000E+01 0. -1.
        -13    1    6    6    0    0 -0.15645966204E+02  0.16901487462E+02 -0.70649583005E+02  0.74308950441E+02  0.00000000000E+00 0.  1.
         14    1    6    6    0    0  0.25880072497E+02 -0.26493405063E+02 -0.63516978163E+03  0.63624863863E+03  0.00000000000E+00 0. -1.
         -5    1    3    3    0  503  0.12760389877E+02 -0.82760335768E+01 -0.55982054853E+03  0.56004683450E+03  0.47000000000E+01 0.  1.
         11    1    4    4    0    0  0.43353079903E+02  0.34146203311E+02 -0.74830465372E+02  0.92978767928E+02  0.00000000000E+00 0. -1.
        -12    1    4    4    0    0 -0.18202305985E+02  0.14367987527E+02 -0.14846857140E+03  0.15026869169E+03  0.00000000000E+00 0.  1.
</event>
<event>
12    1  0.8449700E-002  0.2052219E+03  0.7818608E-02  0.1145462E+00
         21   -1    0    0  503  502  0.00000000000E+00  0.00000000000E+00  0.61168441704E+03  0.61168441704E+03  0.00000000000E+00 0. -1.
         21   -1    0    0  501  503 -0.00000000000E+00 -0.00000000000E+00 -0.68899377333E+02  0.68899377333E+02  0.00000000000E+00 0.  1.
          6    2    1    2  501    0  0.15118217874E+02 -0.10987613343E+03  0.25595391956E+03  0.32789678521E+03  0.17234432862E+03 0.  0.
         24    2    3    3    0    0  0.37275368575E+02 -0.42690196464E+02  0.46560882632E+02  0.10682570306E+03  0.77665365933E+02 0.  0.
         -6    2    1    2    0  502 -0.15118217874E+02  0.10987613343E+03  0.28683112015E+03  0.35268700916E+03  0.17266936536E+03 0.  0.
        -24    2    5    5    0    0  0.11188362242E+02  0.10494383510E+03  0.29587217732E+03  0.32404797218E+03  0.79550958429E+02 0.  0.
          5    1    3    3  501    0 -0.22157150700E+02 -0.67185936964E+02  0.20939303693E+03  0.22107108216E+03  0.47000000000E+01 0. -1.
        -13    1    4    4    0    0 -0.16054556150E+02 -0.36561078466E+02  0.79840045424E+01  0.40721070225E+02  0.00000000000E+00 0.  1.
         14    1    4    4    0    0  0.53329924725E+02 -0.61291179982E+01  0.38576878089E+02  0.66104632831E+02  0.00000000000E+00 0. -1.
         -5    1    5    5    0  502 -0.26306580116E+02  0.49322983250E+01 -0.90410571725E+01  0.28639036977E+02  0.47000000000E+01 0.  1.
         11    1    6    6    0    0  0.11515340310E+02  0.11047255638E+03  0.20625953942E+03  0.23426435149E+03  0.00000000000E+00 0. -1.
        -12    1    6    6    0    0 -0.32697806796E+00 -0.55287212786E+01  0.89612637898E+02  0.89783620693E+02  0.00000000000E+00 0.  1.
</event>
<event>
12    1  0.8449700E-002  0.2023353E+03  0.7818608E-02  0.1147875E+00
         21   -1    0    0  501  502  0.00000000000E+00  0.00000000000E+00  0.40420394956E+03  0.40420394956E+03  0.00000000000E+00 0. -1.
         21   -1    0    0  502  503 -0.00000000000E+00 -0.00000000000E+00 -0.15964824957E+03  0.15964824957E+03  0.00000000000E+00 0. -1.
         -6    2    1    2    0  503 -0.10443480160E+03  0.18867949970E+02 -0.48587214178E+02  0.20766077247E+03  0.17175462649E+03 0.  0.
        -24    2    3    3    0    0 -0.14064205225E+03  0.99216635571E+01 -0.49740726049E+02  0.17005197523E+03  0.81024121007E+02 0.  0.
          6    2    1    2  501    0  0.10443480160E+03 -0.18867949970E+02  0.29314291417E+03  0.35619142666E+03  0.17226995378E+03 0.  0.
         24    2    5    5    0    0  0.20157595727E+02  0.46785758399E+02  0.14937468050E+03  0.17701427447E+03  0.80162474626E+02 0.  0.
          5    1    5    5  501    0  0.84277205872E+02 -0.65653708370E+02  0.14376823367E+03  0.17917715218E+03  0.47000000000E+01 0. -1.
        -11    1    6    6    0    0  0.24488470608E+02  0.40196745034E+01  0.36512812866E+01  0.25083357647E+02  0.00000000000E+00 0.  1.
         12    1    6    6    0    0 -0.43308748812E+01  0.42766083896E+02  0.14572339922E+03  0.15193091683E+03  0.00000000000E+00 0. -1.
         -5    1    3    3    0  503  0.36207250649E+02  0.89462864133E+01  0.11535118715E+01  0.37608797240E+02  0.47000000000E+01 0.  1.
         11    1    4    4    0    0 -0.10076616510E+03  0.13573404887E+02  0.54997992420E+01  0.10182487486E+03  0.00000000000E+00 0. -1.
        -12    1    4    4    0    0 -0.39875887147E+02 -0.36517413300E+01 -0.55240525291E+02  0.68227100371E+02  0.00000000000E+00 0.  1.
</event>
<event>
12    1  0.8449700E-002  0.1763862E+03  0.7818608E-02  0.1171724E+00
         21   -1    0    0  503  502  0.00000000000E+00  0.00000000000E+00  0.54411830600E+03  0.54411830600E+03  0.00000000000E+00 0.  1.
         21   -1    0    0  501  503 -0.00000000000E+00 -0.00000000000E+00 -0.63112918962E+02  0.63112918962E+02  0.00000000000E+00 0. -1.
          6    2    1    2  501    0 -0.32037825511E+01 -0.31287540063E+02  0.14272498855E+03  0.22572668007E+03  0.17202597872E+03 0.  0.
         24    2    3    3    0    0  0.49353503217E+02  0.63713303350E+01  0.33360757247E+02  0.98592562321E+02  0.78301922652E+02 0.  0.
         -6    2    1    2    0  502  0.32037825511E+01  0.31287540063E+02  0.33828039849E+03  0.38150454489E+03  0.17355954421E+03 0.  0.
        -24    2    5    5    0    0  0.31329778364E+02  0.77218791735E+02  0.16640633276E+03  0.20132814247E+03  0.76796201456E+02 0.  0.
          5    1    3    3  501    0 -0.52557285768E+02 -0.37658870398E+02  0.10936423131E+03  0.12713411775E+03  0.47000000000E+01 0. -1.
        -13    1    4    4    0    0  0.26299479271E+02  0.12333897576E+02  0.57664336454E+02  0.64567509926E+02  0.00000000000E+00 0.  1.
         14    1    4    4    0    0  0.23054023945E+02 -0.59625672414E+01 -0.24303579207E+02  0.34025052395E+02  0.00000000000E+00 0. -1.
         -5    1    5    5    0  502 -0.28125995813E+02 -0.45931251672E+02  0.17187406572E+03  0.18017640242E+03  0.47000000000E+01 0.  1.
         13    1    6    6    0    0 -0.23139463314E+02  0.15521951831E+02  0.23649539192E+02  0.36546770788E+02  0.00000000000E+00 0. -1.
        -14    1    6    6    0    0  0.54469241677E+02  0.61696839904E+02  0.14275679357E+03  0.16478137168E+03  0.00000000000E+00 0.  1.
</event>
<event>
12    1  0.8449700E-002  0.1810351E+03  0.7818608E-02  0.1166974E+00
         21   -1    0    0  501  502  0.00000000000E+00  0.00000000000E+00  0.85143603394E+03  0.85143603394E+03  0.00000000000E+00 0.  1.
         21   -1    0    0  502  503 -0.00000000000E+00 -0.00000000000E+00 -0.66103751236E+02  0.66103751236E+02  0.00000000000E+00 0.  1.
         -6    2    1    2    0  503  0.15888035746E+02 -0.51301791973E+02  0.94921646212E+02  0.20378874242E+03  0.17214943821E+03 0.  0.
        -24    2    3    3    0    0  0.76154898444E+02 -0.20922738313E+02  0.58471029940E+02  0.12694006600E+03  0.80359128156E+02 0.  0.
          6    2    1    2  501    0 -0.15888035746E+02  0.51301791973E+02  0.69041063649E+03  0.71375104276E+03  0.17288551274E+03 0.  0.
         24    2    5    5    0    0 -0.40574886328E+02 -0.23446187087E+02  0.26485413158E+03  0.28094955265E+03  0.81172008911E+02 0.  0.
          5    1    5    5  501    0  0.24686850583E+02  0.74747979060E+02  0.42555650492E+03  0.43280149011E+03  0.47000000000E+01 0. -1.
        -11    1    6    6    0    0 -0.55743143426E+02 -0.25817980837E+02  0.25591315284E+03  0.26318322130E+03  0.00000000000E+00 0.  1.
         12    1    6    6    0    0  0.15168257098E+02  0.23717937504E+01  0.89409787323E+01  0.17766331351E+02  0.00000000000E+00 0. -1.
         -5    1    3    3    0  503 -0.60266862698E+02 -0.30379053660E+02  0.36450616272E+02  0.76848676419E+02  0.47000000000E+01 0.  1.
         11    1    4    4    0    0  0.36675493590E+02 -0.19808635556E+02  0.73650924638E+02  0.84628201993E+02  0.00000000000E+00 0. -1.
        -12    1    4    4    0    0  0.39479404854E+02 -0.11141027572E+01 -0.15179894698E+02  0.42311864005E+02  0.00000000000E+00 0.  1.
</event>
<event>
12    1  0.8449700E-002  0.2006939E+03  0.7818608E-02  0.1149333E+00
         21   -1    0    0  501  502  0.00000000000E+00  0.00000000000E+00  0.22846508268E+03  0.22846508268E+03  0.00000000000E+00 0. -1.
         21   -1    0    0  502  503 -0.00000000000E+00 -0.00000000000E+00 -0.41048393028E+03  0.41048393028E+03  0.00000000000E+00 0. -1.
         -6    2    1    2    0  503  0.10275286364E+03 -0.76920786146E+01 -0.33261499889E+03  0.38803617961E+03  0.17123673712E+03 0.  0.
        -24    2    3    3    0    0  0.10563577589E+03  0.30139345384E+01 -0.13247790853E+03  0.18753711517E+03  0.80322925556E+02 0.  0.
          6    2    1    2  501    0 -0.10275286364E+03  0.76920786146E+01  0.15059615129E+03  0.25091283335E+03  0.17222290816E+03 0.  0.
         24    2    5    5    0    0 -0.19300217016E+02  0.53105374644E+02  0.11340539945E+03  0.14877589729E+03  0.77979508826E+02 0.  0.
          5    1    5    5  501    0 -0.83452646626E+02 -0.45413296029E+02  0.37190751834E+02  0.10213693606E+03  0.47000000000E+01 0. -1.
        -13    1    6    6    0    0  0.78970780487E+01 -0.63494397087E+01  0.69003737233E+02  0.69743780930E+02  0.00000000000E+00 0.  1.
         14    1    6    6    0    0 -0.27197295065E+02  0.59454814353E+02  0.44401662220E+02  0.79032116361E+02  0.00000000000E+00 0. -1.
         -5    1    3    3    0  503 -0.28829122524E+01 -0.10706013153E+02 -0.20013709036E+03  0.20049906444E+03  0.47000000000E+01 0.  1.
         11    1    4    4    0    0  0.66604042215E+02  0.16842325650E+02 -0.12878543378E+03  0.14596386651E+03  0.00000000000E+00 0. -1.
        -12    1    4    4    0    0  0.39031733680E+02 -0.13828391111E+02 -0.36924747473E+01  0.41573248665E+02  0.00000000000E+00 0.  1.
</event>
<event>
12    1  0.8449700E-002  0.3579247E+03  0.7818608E-02  0.1059588E+00
         21   -1    0    0  503  502  0.00000000000E+00  0.00000000000E+00  0.96214129147E+03  0.96214129147E+03  0.00000000000E+00 0. -1.
         21   -1    0    0  501  503 -0.00000000000E+00 -0.00000000000E+00 -0.18208026174E+03  0.18208026174E+03  0.00000000000E+00 0.  1.
          6    2    1    2  501    0  0.31068349296E+03 -0.37057585936E+02  0.90737995894E+02  0.36751291183E+03  0.17010249554E+03 0.  0.
         24    2    3    3    0    0  0.23793864211E+03 -0.57446117162E+02  0.12295888405E+03  0.28524638665E+03  0.79572357929E+02 0.  0.
         -6    2    1    2    0  502 -0.31068349296E+03  0.37057585936E+02  0.68932303384E+03  0.77670864139E+03  0.17381763765E+03 0.  0.
        -24    2    5    5    0    0 -0.59737271003E+02  0.33025108301E+02  0.16561101557E+03  0.19594480362E+03  0.79423914915E+02 0.  0.
          5    1    3    3  501    0  0.72744850849E+02  0.20388531226E+02 -0.32220888156E+02  0.82266525173E+02  0.47000000000E+01 0. -1.
        -13    1    4    4    0    0  0.17642816249E+01 -0.14853929064E+02 -0.12744221480E+01  0.15012529770E+02  0.00000000000E+00 0.  1.
         14    1    4    4    0    0  0.23617436049E+03 -0.42592188098E+02  0.12423330620E+03  0.27023385688E+03  0.00000000000E+00 0. -1.
         -5    1    5    5    0  502 -0.25094622196E+03  0.40324776354E+01  0.52371201826E+03  0.58076383777E+03  0.47000000000E+01 0.  1.
         11    1    6    6    0    0 -0.91617272499E+01  0.34199647139E+02  0.12827085096E+03  0.13306751789E+03  0.00000000000E+00 0. -1.
        -12    1    6    6    0    0 -0.50575543753E+02 -0.11745388376E+01  0.37340164610E+02  0.62877285727E+02  0.00000000000E+00 0.  1.
</event>
<event>
12    1  0.8449700E-002  0.1909882E+03  0.7818608E-02  0.1157753E+00
         21   -1    0    0  503  502  0.00000000000E+00  0.00000000000E+00  0.29840916542E+03  0.29840916542E+03  0.00000000000E+00 0. -1.
         21   -1    0    0  501  503 -0.00000000000E+00 -0.00000000000E+00 -0.27102398238E+03  0.27102398238E+03  0.00000000000E+00 0.  1.
          6    2    1    2  501    0 -0.39590358216E+02  0.69014217230E+02 -0.19761408885E+03  0.27482324947E+03  0.17362641417E+03 0.  0.
         24    2    3    3    0    0  0.24951927031E+02  0.86346854984E+02 -0.10692098553E+03  0.16206928765E+03  0.82194761548E+02 0.  0.
         -6    2    1    2    0  502  0.39590358216E+02 -0.69014217230E+02  0.22499927188E+03  0.29460989833E+03  0.17274247076E+03 0.  0.
        -24    2    5    5    0    0 -0.26872089867E+02 -0.54503824613E+02  0.60550513712E+02  0.11658379754E+03  0.78947077379E+02 0.  0.
          5    1    3    3  501    0 -0.64542285246E+02 -0.17332637755E+02 -0.90693103318E+02  0.11275396182E+03  0.47000000000E+01 0. -1.
        -13    1    4    4    0    0  0.33807367241E+02  0.26225249814E+02 -0.88936821345E+02  0.98693768793E+02  0.00000000000E+00 0.  1.
         14    1    4    4    0    0 -0.88554402100E+01  0.60121605170E+02 -0.17984164185E+02  0.63375518861E+02  0.00000000000E+00 0. -1.
         -5    1    5    5    0  502  0.66462448082E+02 -0.14510392617E+02  0.16444875817E+03  0.17802610079E+03  0.47000000000E+01 0.  1.
         11    1    6    6    0    0 -0.15792444641E+02 -0.49090408832E+02  0.79030800561E+02  0.94367033356E+02  0.00000000000E+00 0. -1.
        -12    1    6    6    0    0 -0.11079645226E+02 -0.54134157813E+01 -0.18480286849E+02  0.22216764184E+02  0.00000000000E+00 0.  1.
</event>
<event>
12    1  0.8449700E-002  0.2002357E+03  0.7818608E-02  0.1149721E+00
         21   -1    0    0  503  502  0.00000000000E+00  0.00000000000E+00  0.12710545487E+03  0.12710545487E+03  0.00000000000E+00 0.  1.
         21   -1    0    0  501  503 -0.00000000000E+00 -0.00000000000E+00 -0.11435743830E+04  0.11435743830E+04  0.00000000000E+00 0.  1.
          6    2    1    2  501    0 -0.68104860593E+02  0.72626876599E+02 -0.10490339318E+04  0.10678132956E+04  0.17274289818E+03 0.  0.
         24    2    3    3    0    0 -0.67494414297E+02  0.11054216183E+03 -0.80686678742E+03  0.82265017167E+03  0.94573922432E+02 0.  0.
         -6    2    1    2    0  502  0.68104860593E+02 -0.72626876599E+02  0.32565003738E+02  0.20286654223E+03  0.17372800364E+03 0.  0.
        -24    2    5    5    0    0  0.94845377134E+02 -0.53286793106E+02 -0.24416838293E+02  0.13685052618E+03  0.79352105456E+02 0.  0.
          5    1    3    3  501    0 -0.61044629553E+00 -0.37915285235E+02 -0.24216714441E+03  0.24516312393E+03  0.47000000000E+01 0. -1.
        -13    1    4    4    0    0  0.19194037332E+01  0.78983467398E+02 -0.30711034650E+03  0.31711013412E+03  0.00000000000E+00 0.  1.
         14    1    4    4    0    0 -0.69413818030E+02  0.31558694437E+02 -0.49975644091E+03  0.50554003755E+03  0.00000000000E+00 0. -1.
         -5    1    5    5    0  502 -0.26740516541E+02 -0.19340083493E+02  0.56981842031E+02  0.66016016055E+02  0.47000000000E+01 0.  1.
         13    1    6    6    0    0  0.13490721037E+02 -0.21658057701E+02 -0.40720373498E+02  0.48054342522E+02  0.00000000000E+00 0. -1.
        -14    1    6    6    0    0  0.81354656097E+02 -0.31628735405E+02  0.16303535205E+02  0.88796183658E+02  0.00000000000E+00 0.  1.
</event>
<event>
12    1  0.8449700E-002  0.2433596E+03  0.7818608E-02  0.1119574E+00
         21   -1    0    0  501  502  0.00000000000E+00  0.00000000000E+00  0.37233558323E+03  0.37233558323E+03  0.00000000000E+00 0.  1.
         21   -1    0    0  502  503 -0.00000000000E+00 -0.00000000000E+00 -0.24112487991E+03  0.24112487991E+03  0.00000000000E+00 0. -1.
         -6    2    1    2    0  503 -0.17272891253E+03  0.13673671237E+01 -0.12251980146E+03  0.26188818888E+03  0.15406873404E+03 0.  0.
        -24    2    3    3    0    0 -0.17358611760E+03 -0.27481897513E+02 -0.12860288603E+03  0.23201999864E+03  0.80044878405E+02 0.  0.
          6    2    1    2  501    0  0.17272891253E+03 -0.13673671237E+01  0.25373050478E+03  0.35157227427E+03  0.17142563421E+03 0.  0.
         24    2    5    5    0    0  0.13509824765E+03 -0.63175949005E+02  0.16644868931E+03  0.23809728564E+03  0.82112204964E+02 0.  0.
          5    1    5    5  501    0  0.37630664878E+02  0.61808581881E+02  0.87281815469E+02  0.11347498863E+03  0.47000000000E+01 0. -1.
        -13    1    6    6    0    0  0.12688610052E+03 -0.25807708506E+02  0.14434508684E+03  0.19391138290E+03  0.00000000000E+00 0.  1.
         14    1    6    6    0    0  0.82121471288E+01 -0.37368240498E+02  0.22103602467E+02  0.44185902734E+02  0.00000000000E+00 0. -1.
         -5    1    3    3    0  503  0.85720507042E+00  0.28849264636E+02  0.60830845684E+01  0.29868190244E+02  0.47000000000E+01 0.  1.
         13    1    4    4    0    0 -0.58905185435E+02 -0.38386834721E+02 -0.81307769904E+02  0.10749103869E+03  0.00000000000E+00 0. -1.
        -14    1    4    4    0    0 -0.11468093216E+03  0.10904937208E+02 -0.47295116125E+02  0.12452895995E+03  0.00000000000E+00 0.  1.
</event>
<event>
12    1  0.8449700E-002  0.2721679E+03  0.7818608E-02  0.1100390E+00
         21   -1    0    0  503  502  0.00000000000E+00  0.00000000000E+00  0.35256546770E+03  0.35256546770E+03  0.00000000000E+00 0. -1.
         21   -1    0    0  501  503 -0.00000000000E+00 -0.00000000000E+00 -0.15664119449E+04  0.15664119449E+04  0.00000000000E+00 0. -1.
          6    2    1    2  501    0  0.11489145012E+03  0.17705504653E+03 -0.14999999640E+04  0.15240607392E+04  0.16796639535E+03 0.  0.
         24    2    3    3    0    0  0.10237439469E+02  0.13018724435E+03 -0.83240837114E+03  0.84667630058E+03  0.83087531356E+02 0.  0.
         -6    2    1    2    0  502 -0.11489145012E+03 -0.17705504653E+03  0.28615348674E+03  0.39491667346E+03  0.17183371667E+03 0.  0.
        -24    2    5    5    0    0 -0.33493980669E+02 -0.51206214038E+02  0.18879716511E+03  0.21613238993E+03  0.85585730862E+02 0.  0.
          5    1    3    3  501    0  0.10465401066E+03  0.46867802180E+02 -0.66759159285E+03  0.67738443861E+03  0.47000000000E+01 0. -1.
        -13    1    4    4    0    0  0.37381926898E+02  0.25164101192E+02 -0.19820300301E+03  0.20326109035E+03  0.00000000000E+00 0.  1.
         14    1    4    4    0    0 -0.27144487429E+02  0.10502314316E+03 -0.63420536812E+03  0.64341521023E+03  0.00000000000E+00 0. -1.
         -5    1    5    5    0  502 -0.81397469455E+02 -0.12584883250E+03  0.97356321632E+02  0.17878428353E+03  0.47000000000E+01 0.  1.
         13    1    6    6    0    0 -0.59105594401E+02 -0.34328927066E+02  0.16030266068E+03  0.17426671955E+03  0.00000000000E+00 0. -1.
        -14    1    6    6    0    0  0.25611613732E+02 -0.16877286972E+02  0.28494504428E+02  0.41865670377E+02  0.00000000000E+00 0.  1.
</event>
<event>
12    1  0.8449700E-002  0.2612722E+03  0.7818608E-02  0.1107441E+00
         21   -1    0    0  503  502  0.00000000000E+00  0.00000000000E+00  0.73990942454E+02  0.73990942454E+02  0.00000000000E+00 0.  1.
         21   -1    0    0  501  503 -0.00000000000E+00 -0.00000000000E+00 -0.15885375616E+04  0.15885375616E+04  0.00000000000E+00 0. -1.
          6    2    1    2  501    0  0.10525181414E+03 -0.16521330100E+03 -0.12994844873E+04  0.13241280154E+04  0.16211628313E+03 0.  0.
         24    2    3    3    0    0  0.76788891411E+01 -0.21145706123E+02 -0.35839480831E+03  0.36707638593E+03  0.76106033007E+02 0.  0.
         -6    2    1    2    0  502 -0.10525181414E+03  0.16521330100E+03 -0.21506213187E+03  0.33840048867E+03  0.17288664193E+03 0.  0.
        -24    2    5    5    0    0 -0.12209605903E+02  0.97431924265E+02 -0.17603649556E+03  0.21676061924E+03  0.79713637102E+02 0.  0.
          5    1    3    3  501    0  0.97572924999E+02 -0.14406759487E+03 -0.94108967895E+03  0.95705162944E+03  0.47000000000E+01 0. -1.
        -11    1    4    4    0    0 -0.30253030925E+02  0.54561617148E+01 -0.18793326770E+03  0.19043090267E+03  0.00000000000E+00 0.  1.
         12    1    4    4    0    0  0.37931920066E+02 -0.26601867838E+02 -0.17046154060E+03  0.17664548326E+03  0.00000000000E+00 0. -1.
         -5    1    5    5    0  502 -0.93042208238E+02  0.67781376733E+02 -0.39025636308E+02  0.12163986943E+03  0.47000000000E+01 0.  1.
         11    1    6    6    0    0 -0.24641262004E+02 -0.33930633395E+01 -0.33342047691E+02  0.41598038610E+02  0.00000000000E+00 0. -1.
        -12    1    6    6    0    0  0.12431656101E+02  0.10082498760E+03 -0.14269444787E+03  0.17516258063E+03  0.00000000000E+00 0.  1.
</event>
<event>
12    1  0.8449700E-002  0.1767992E+03  0.7818608E-02  0.1171135E+00
         21   -1    0    0  503  502  0.00000000000E+00  0.00000000000E+00  0.59849473443E+02  0.59849473443E+02  0.00000000000E+00 0. -1.
         21   -1    0    0  501  503 -0.00000000000E+00 -0.00000000000E+00 -0.86989556621E+03  0.86989556621E+03  0.00000000000E+00 0. -1.
          6    2    1    2  501    0  0.87919072618E+01 -0.35199628769E+02 -0.70042644753E+03  0.72239544074E+03  0.17303656521E+03 0.  0.
         24    2    3    3    0    0 -0.18437396542E+02 -0.11177707872E+02 -0.15382309548E+03  0.17456718103E+03  0.79669801325E+02 0.  0.
         -6    2    1    2    0  502 -0.87919072618E+01  0.35199628769E+02 -0.10961964524E+03  0.20734959892E+03  0.17222391834E+03 0.  0.
        -24    2    5    5    0    0 -0.12401239937E+02  0.17802104065E+02  0.12468559899E+02  0.83885754080E+02  0.80066529152E+02 0.  0.
          5    1    3    3  501    0  0.27229303804E+02 -0.24021920897E+02 -0.54660335205E+03  0.54782825971E+03  0.47000000000E+01 0. -1.
        -13    1    4    4    0    0 -0.45486018889E+02 -0.21071326515E+02 -0.12056592753E+03  0.13057228495E+03  0.00000000000E+00 0.  1.
         14    1    4    4    0    0  0.27048622346E+02  0.98936186437E+01 -0.33257167953E+02  0.43994896078E+02  0.00000000000E+00 0. -1.
         -5    1    5    5    0  502  0.36093326757E+01  0.17397524704E+02 -0.12208820514E+03  0.12346384484E+03  0.47000000000E+01 0.  1.
         11    1    6    6    0    0  0.18722200748E+02  0.40184158439E+02  0.32084351160E+01  0.44447513385E+02  0.00000000000E+00 0. -1.
        -12    1    6    6    0    0 -0.31123440685E+02 -0.22382054374E+02  0.92601247829E+01  0.39438240695E+02  0.00000000000E+00 0.  1.
</event>
<event>
12    1  0.8449700E-002  0.1778734E+03  0.7818608E-02  0.1170125E+00
         21   -1    0    0  503  502  0.00000000000E+00  0.00000000000E+00  0.28960298824E+02  0.28960298824E+02  0.00000000000E+00 0.  1.
         21   -1    0    0  501  503 -0.00000000000E+00 -0.00000000000E+00 -0.11676270425E+04  0.11676270425E+04  0.00000000000E+00 0.  1.
          6    2    1    2  501    0  0.45076407964E+02 -0.54607338738E+01 -0.72871930355E+03  0.75011383563E+03  0.17198035024E+03 0.  0.
         24    2    3    3    0    0  0.59152768659E+02 -0.47298123591E+02 -0.33233041944E+03  0.35124700503E+03  0.84822098067E+02 0.  0.
         -6    2    1    2    0  502 -0.45076407964E+02  0.54607338738E+01 -0.40994744017E+03  0.44647350574E+03  0.17093854292E+03 0.  0.
        -24    2    5    5    0    0  0.26882815899E+02  0.51742472771E+01 -0.31565703094E+03  0.32776805833E+03  0.83923061482E+02 0.  0.
          5    1    3    3  501    0 -0.14076360695E+02  0.41837389717E+02 -0.39638888411E+03  0.39886683060E+03  0.47000000000E+01 0. -1.
        -13    1    4    4    0    0  0.70843354808E+02 -0.40264613691E+02 -0.32631681718E+03  0.33633716002E+03  0.00000000000E+00 0.  1.
         14    1    4    4    0    0 -0.11690586149E+02 -0.70335099000E+01 -0.60136022609E+01  0.14909845008E+02  0.00000000000E+00 0. -1.
         -5    1    5    5    0  502 -0.71959223863E+02  0.28648659672E+00 -0.94290409224E+02  0.11870544741E+03  0.47000000000E+01 0.  1.
         11    1    6    6    0    0  0.62595219098E+01  0.41876824198E+02 -0.20601289704E+03  0.21031919496E+03  0.00000000000E+00 0. -1.
        -12    1    6    6    0    0  0.20623293989E+02 -0.36702576921E+02 -0.10964413390E+03  0.11744886337E+03  0.00000000000E+00 0.  1.
</event>
<event>
12    1  0.8449700E-002  0.2691511E+03  0.7818608E-02  0.1101796E+00
         21   -1    0    0  503  502  0.00000000000E+00  0.00000000000E+00  0.33068401430E+03  0.33068401430E+03  0.00000000000E+00 0. -1.
         21   -1    0    0  501  503 -0.00000000000E+00 -0.00000000000E+00 -0.31274299444E+03  0.31274299444E+03  0.00000000000E+00 0. -1.
          6    2    1    2  501    0 -0.18143733496E+03 -0.98361952338E+02 -0.16726017314E+03  0.31671336030E+03  0.17244363395E+03 0.  0.
         24    2    3    3    0    0 -0.78236326481E+02 -0.11200523928E+03 -0.69182868538E+02  0.17361257377E+03  0.81786062766E+02 0.  0.
         -6    2    1    2    0  502  0.18143733496E+03  0.98361952338E+02  0.18520119300E+03  0.32671364843E+03  0.17276500224E+03 0.  0.
        -24    2    5    5    0    0  0.58751054083E+02  0.10666165798E+03  0.93710848386E+02  0.17337291090E+03  0.80299735307E+02 0.  0.
          5    1    3    3  501    0 -0.10320100847E+03  0.13643286945E+02 -0.98077304601E+02  0.14310078653E+03  0.47000000000E+01 0. -1.
        -11    1    4    4    0    0 -0.93673534224E+02 -0.79517061048E+02 -0.58516565379E+02  0.13609512275E+03  0.00000000000E+00 0.  1.
         12    1    4    4    0    0  0.15437207744E+02 -0.32488178235E+02 -0.10666303159E+02  0.37517451019E+02  0.00000000000E+00 0. -1.
         -5    1    5    5    0  502  0.12268628087E+03 -0.82997056452E+01  0.91490344613E+02  0.15334073753E+03  0.47000000000E+01 0.  1.
         11    1    6    6    0    0  0.42334760624E+02  0.35690940031E+02  0.82956185480E+02  0.99738677887E+02  0.00000000000E+00 0. -1.
        -12    1    6    6    0    0  0.16416293458E+02  0.70970717953E+02  0.10754662906E+02  0.73634233016E+02  0.00000000000E+00 0.  1.
</event>
<event>
12    1  0.8449700E-002  0.2274346E+03  0.7818608E-02  0.1128545E+00
         21   -1    0    0  501  502  0.00000000000E+00  0.00000000000E+00  0.27134721450E+03  0.27134721450E+03  0.00000000000E+00 0.  1.
         21   -1    0    0  502  503 -0.00000000000E+00 -0.00000000000E+00 -0.50100016970E+03  0.50100016970E+03  0.00000000000E+00 0.  1.
         -6    2    1    2    0  503 -0.14357828674E+03 -0.36089809996E+02 -0.41893049756E+03  0.47645466293E+03  0.17201478203E+03 0.  0.
        -24    2    3    3    0    0 -0.80608803062E+02  0.29692988067E+02 -0.13809329555E+03  0.18118502950E+03  0.79867414927E+02 0.  0.
          6    2    1    2  501    0  0.14357828674E+03  0.36089809996E+02  0.18927754235E+03  0.29589272126E+03  0.17265374496E+03 0.  0.
         24    2    5    5    0    0  0.16211978574E+03  0.12617266896E+02  0.11745182782E+03  0.21794549083E+03  0.85224906947E+02 0.  0.
          5    1    5    5  501    0 -0.18541498991E+02  0.23472543100E+02  0.71825714530E+02  0.77947230433E+02  0.47000000000E+01 0. -1.
        -11    1    6    6    0    0  0.35191868810E+02  0.37599106307E+02  0.51138240654E+02  0.72576029669E+02  0.00000000000E+00 0.  1.
         12    1    6    6    0    0  0.12692791693E+03 -0.24981839411E+02  0.66313587169E+02  0.14536946116E+03  0.00000000000E+00 0. -1.
         -5    1    3    3    0  503 -0.62969483683E+02 -0.65782798063E+02 -0.28083720201E+03  0.29526963344E+03  0.47000000000E+01 0.  1.
         13    1    4    4    0    0 -0.73975714435E+01 -0.23909411115E+02 -0.42958904773E+02  0.49717718194E+02  0.00000000000E+00 0. -1.
        -14    1    4    4    0    0 -0.73211231618E+02  0.53602399182E+02 -0.95134390774E+02  0.13146731130E+03  0.00000000000E+00 0.  1.
</event>
<event>
12    1  0.8449700E-002  0.3573202E+03  0.7818608E-02  0.1059660E+00
         21   -1    0    0  503  502  0.00000000000E+00  0.00000000000E+00  0.49063857990E+03  0.49063857990E+03  0.00000000000E+00 0.  1.
         21   -1    0    0  501  503 -0.00000000000E+00 -0.00000000000E+00 -0.26076124930E+03  0.26076124930E+03  0.00000000000E+00 0. -1.
          6    2    1    2  501    0  0.25469085071E+03 -0.18196156137E+03  0.96865704045E+02  0.37021704277E+03  0.17233761890E+03 0.  0.
         24    2    3    3    0    0  0.55098976249E+02 -0.10130628260E+03  0.55542143661E+02  0.15096395388E+03  0.80039525060E+02 0.  0.
         -6    2    1    2    0  502 -0.25469085071E+03  0.18196156137E+03  0.13301162656E+03  0.38118278642E+03  0.17213594806E+03 0.  0.
        -24    2    5    5    0    0 -0.24138096352E+03  0.20269629350E+03  0.14081459425E+03  0.35491382149E+03  0.82368160007E+02 0.  0.
          5    1    3    3  501    0  0.19959187446E+03 -0.80655278772E+02  0.41323560384E+02  0.21925308889E+03  0.47000000000E+01 0. -1.
        -11    1    4    4    0    0  0.51002209321E+02 -0.14124339019E+02  0.17327698367E+02  0.55686366725E+02  0.00000000000E+00 0.  1.
         12    1    4    4    0    0  0.40967669279E+01 -0.87181943577E+02  0.38214445294E+02  0.95277587156E+02  0.00000000000E+00 0. -1.
         -5    1    5    5    0  502 -0.13309887192E+02 -0.20734732135E+02 -0.78029676927E+01  0.26268964932E+02  0.47000000000E+01 0.  1.
         13    1    6    6    0    0 -0.16370993396E+03  0.17647139429E+03  0.83089896931E+02  0.25465079315E+03  0.00000000000E+00 0. -1.
        -14    1    6    6    0    0 -0.77671029566E+02  0.26224899211E+02  0.57724697317E+02  0.10026302834E+03  0.00000000000E+00 0.  1.
</event>
<event>
12    1  0.8449700E-002  0.2541960E+03  0.7818608E-02  0.1110976E+00
         21   -1    0    0  501  502  0.00000000000E+00  0.00000000000E+00  0.53839789628E+03  0.53839789628E+03  0.00000000000E+00 0. -1.
         21   -1    0    0  502  503 -0.00000000000E+00 -0.00000000000E+00 -0.13381352375E+03  0.13381352375E+03  0.00000000000E+00 0. -1.
         -6    2    1    2    0  503 -0.82810869902E+02  0.16470941479E+03  0.31299403886E+03  0.40201818013E+03  0.17223970882E+03 0.  0.
        -24    2    3    3    0    0  0.27068767807E+01  0.53876153600E+02  0.84455359635E+02  0.13397095539E+03  0.88913114945E+02 0.  0.
          6    2    1    2  501    0  0.82810869902E+02 -0.16470941479E+03  0.91590333664E+02  0.27019323990E+03  0.17501076016E+03 0.  0.
         24    2    5    5    0    0  0.11582177480E+03 -0.14079928298E+03  0.37324961578E+02  0.20216210840E+03  0.78976222426E+02 0.  0.
          5    1    5    5  501    0 -0.33010904898E+02 -0.23910131807E+02  0.54265372086E+02  0.68031131497E+02  0.47000000000E+01 0. -1.
        -13    1    6    6    0    0  0.22135914766E+01 -0.12527199496E+02 -0.18054347875E+02  0.22085972734E+02  0.00000000000E+00 0.  1.
         14    1    6    6    0    0  0.11360818332E+03 -0.12827208349E+03  0.55379309453E+02  0.18007613566E+03  0.00000000000E+00 0. -1.
         -5    1    3    3    0  503 -0.85517746683E+02  0.11083326119E+03  0.22853867923E+03  0.26804722474E+03  0.47000000000E+01 0.  1.
         13    1    4    4    0    0 -0.18891001855E+02 -0.85774056838E+01 -0.63212292125E+01  0.21688701624E+02  0.00000000000E+00 0. -1.
        -14    1    4    4    0    0  0.21597878636E+02  0.62453559284E+02  0.90776588847E+02  0.11228225377E+03  0.00000000000E+00 0.  1.
</event>
<event>
12    1  0.8449700E-002  0.2032985E+03  0.7818608E-02  0.1147889E+00
         21   -1    0    0  501  502  0.00000000000E+00  0.00000000000E+00  0.27802100966E+03  0.27802100966E+03  0.00000000000E+00 0.  1.
         21   -1    0    0  502  503 -0.00000000000E+00 -0.00000000000E+00 -0.23446110827E+03  0.23446110827E+03  0.00000000000E+00 0.  1.
         -6    2    1    2    0  503 -0.92631739375E+02 -0.54414463453E+02 -0.13589707799E+03  0.24453690891E+03  0.17259406432E+03 0.  0.
        -24    2    3    3    0    0 -0.60192506698E+02 -0.29490077875E+02 -0.12096457542E+01  0.10369542633E+03  0.79110528018E+02 0.  0.
          6    2    1    2  501    0  0.92631739375E+02  0.54414463453E+02  0.17945697938E+03  0.26794520902E+03  0.16747613148E+03 0.  0.
         24    2    5    5    0    0  0.68190952663E+02 -0.24605500468E+02  0.13887748384E+03  0.17569396398E+03  0.79536009349E+02 0.  0.
          5    1    5    5  501    0  0.24440786711E+02  0.79019963921E+02  0.40579495540E+02  0.92251245040E+02  0.47000000000E+01 0. -1.
        -11    1    6    6    0    0  0.29549784751E+02  0.21473021410E+02  0.18084346818E+02  0.40759342820E+02  0.00000000000E+00 0.  1.
         12    1    6    6    0    0  0.38641167913E+02 -0.46078521878E+02  0.12079313702E+03  0.13493462116E+03  0.00000000000E+00 0. -1.
         -5    1    3    3    0  503 -0.32439232677E+02 -0.24924385578E+02 -0.13468743223E+03  0.14084148258E+03  0.47000000000E+01 0.  1.
         13    1    4    4    0    0 -0.57999947862E+02  0.14380162921E+02 -0.87297329707E-01  0.59756093066E+02  0.00000000000E+00 0. -1.
        -14    1    4    4    0    0 -0.21925588357E+01 -0.43870240796E+02 -0.11223484245E+01  0.43939333265E+02  0.00000000000E+00 0.  1.
</event>
<event>
12    1  0.8449700E-002  0.2353163E+03  0.7818608E-02  0.1123112E+00
         21   -1    0    0  501  502  0.00000000000E+00  0.00000000000E+00  0.79514855875E+03  0.79514855875E+03  0.00000000000E+00 0. -1.
         21   -1    0    0  502  503 -0.00000000000E+00 -0.00000000000E+00 -0.58236963403E+03  0.58236963403E+03  0.00000000000E+00 0. -1.
         -6    2    1    2    0  503  0.16918219170E+02  0.15876478148E+03 -0.54007672604E+03  0.58874357861E+03  0.17159151894E+03 0.  0.
        -24    2    3    3    0    0 -0.45456973033E+02  0.55101469459E+02 -0.30909079177E+03  0.32794990789E+03  0.83135529051E+02 0.  0.
          6    2    1    2  501    0 -0.16918219170E+02 -0.15876478148E+03  0.75285565075E+03  0.78877461417E+03  0.17286202334E+03 0.  0.
         24    2    5    5    0    0  0.52388917777E+02 -0.65018412585E+02  0.44851256458E+03  0.46283188145E+03  0.77960484981E+02 0.  0.
          5    1    5    5  501    0 -0.69307136947E+02 -0.93746368900E+02  0.30434308617E+03  0.32594273272E+03  0.47000000000E+01 0. -1.
        -13    1    6    6    0    0  0.32541273607E+02 -0.40428395803E+02  0.40879795631E+03  0.41207906858E+03  0.00000000000E+00 0.  1.
         14    1    6    6    0    0  0.19847644169E+02 -0.24590016782E+02  0.39714608267E+02  0.50752812870E+02  0.00000000000E+00 0. -1.
         -5    1    3    3    0  503  0.62375192204E+02  0.10366331203E+03 -0.23098593426E+03  0.26079367073E+03  0.47000000000E+01 0.  1.
         11    1    4    4    0    0 -0.76261177599E+01  0.48165811965E+02 -0.26496308910E+03  0.26941332874E+03  0.00000000000E+00 0. -1.
        -12    1    4    4    0    0 -0.37830855273E+02  0.69356574937E+01 -0.44127702668E+02  0.58536579148E+02  0.00000000000E+00 0.  1.
</event>
<event>
12    1  0.8449700E-002  0.2295443E+03  0.7818608E-02  0.1127126E+00
         21   -1    0    0  501  502  0.00000000000E+00  0.00000000000E+00  0.58698301887E+02  0.58698301887E+02  0.00000000000E+00 0.  1.
         21   -1    0    0  502  503 -0.00000000000E+00 -0.00000000000E+00 -0.90762699029E+03  0.90762699029E+03  0.00000000000E+00 0. -1.
         -6    2    1    2    0  503  0.10992697317E+03  0.10383117792E+03 -0.48281884958E+03  0.53420608087E+03  0.17145624046E+03 0.  0.
        -24    2    3    3    0    0  0.11046098600E+03  0.11870419331E+03 -0.48576746031E+03  0.51832288026E+03  0.79976670104E+02 0.  0.
          6    2    1    2  501    0 -0.10992697317E+03 -0.10383117792E+03 -0.36610983883E+03  0.43211921131E+03  0.17270131950E+03 0.  0.
         24    2    5    5    0    0 -0.12196750834E+03 -0.49243456886E+02 -0.17497274135E+03  0.23292013047E+03  0.79594822866E+02 0.  0.
          5    1    5    5  501    0  0.12040535162E+02 -0.54587721030E+02 -0.19113709748E+03  0.19919908083E+03  0.47000000000E+01 0. -1.
        -11    1    6    6    0    0 -0.70996294816E+01  0.15586510888E+02 -0.51367122486E+01  0.17880991951E+02  0.00000000000E+00 0.  1.
         12    1    6    6    0    0 -0.11486787886E+03 -0.64829967775E+02 -0.16983602910E+03  0.21503913852E+03  0.00000000000E+00 0. -1.
         -5    1    3    3    0  503 -0.53401282620E+00 -0.14873015390E+02  0.29486107362E+01  0.15883200614E+02  0.47000000000E+01 0.  1.
         13    1    4    4    0    0  0.10326279195E+03  0.82691433653E+02 -0.28477769577E+03  0.31400543531E+03  0.00000000000E+00 0. -1.
        -14    1    4    4    0    0  0.71981940557E+01  0.36012759654E+02 -0.20098976455E+03  0.20431744495E+03  0.00000000000E+00 0.  1.
</event>
<event>
12    1  0.8449700E-002  0.2007415E+03  0.7818608E-02  0.1149392E+00
         21   -1    0    0  501  502  0.00000000000E+00  0.00000000000E+00  0.15240285594E+04  0.15240285594E+04  0.00000000000E+00 0. -1.
         21   -1    0    0  502  503 -0.00000000000E+00 -0.00000000000E+00 -0.31156878413E+02  0.31156878413E+02  0.00000000000E+00 0.  1.
         -6    2    1    2    0  503  0.57725186711E+02 -0.84530395337E+02  0.43636426522E+03  0.47977617829E+03  0.17115438756E+03 0.  0.
        -24    2    3    3    0    0 -0.96692623592E+01 -0.30910868624E+02  0.96452885774E+02  0.12909270094E+03  0.79453066830E+02 0.  0.
          6    2    1    2  501    0 -0.57725186711E+02  0.84530395337E+02  0.10565074158E+04  0.10754092596E+04  0.17268344152E+03 0.  0.
         24    2    5    5    0    0 -0.59000294732E+02  0.12416567812E+03  0.79086662373E+03  0.80678368007E+03  0.80819177768E+02 0.  0.
          5    1    5    5  501    0  0.12751080211E+01 -0.39635282778E+02  0.26564079208E+03  0.26862557949E+03  0.47000000000E+01 0. -1.
        -13    1    6    6    0    0 -0.27452766756E+02  0.11789830733E+02  0.64311128737E+02  0.70912451591E+02  0.00000000000E+00 0.  1.
         14    1    6    6    0    0 -0.31547527976E+02  0.11237584738E+03  0.72655549500E+03  0.73587122848E+03  0.00000000000E+00 0. -1.
         -5    1    3    3    0  503  0.67394449071E+02 -0.53619526713E+02  0.33991137944E+03  0.35068347735E+03  0.47000000000E+01 0.  1.
         11    1    4    4    0    0  0.34883177106E+01 -0.56560659367E+02  0.58676278237E+02  0.81573170688E+02  0.00000000000E+00 0. -1.
        -12    1    4    4    0    0 -0.13157580070E+02  0.25649790743E+02  0.37776607537E+02  0.47519530253E+02  0.00000000000E+00 0.  1.
</event>
<event>
12    1  0.8449700E-002  0.2117775E+03  0.7818608E-02  0.1140611E+00
         21   -1    0    0  503  502  0.00000000000E+00  0.00000000000E+00  0.20626798845E+03  0.20626798845E+03  0.00000000000E+00 0.  1.
         21   -1    0    0  501  503 -0.00000000000E+00 -0.00000000000E+00 -0.21865828261E+03  0.21865828261E+03  0.00000000000E+00 0.  1.
          6    2    1    2  501    0 -0.59646651377E+02 -0.10671114160E+03 -0.33195361955E+02  0.21212923155E+03  0.17015254350E+03 0.  0.
         24    2    3    3    0    0 -0.53869565643E+02  0.23134914997E+01 -0.38316194611E+02  0.10273061058E+03  0.78601305557E+02 0.  0.
         -6    2    1    2    0  502  0.59646651377E+02  0.10671114160E+03  0.20805067796E+02  0.21279703951E+03  0.17292986560E+03 0.  0.
        -24    2    5    5    0    0 -0.25210414497E+02  0.86426707281E+02 -0.83008298328E+01  0.12070239699E+03  0.79968894787E+02 0.  0.
          5    1    3    3  501    0 -0.57770857346E+01 -0.10902463310E+03  0.51208326556E+01  0.10939862097E+03  0.47000000000E+01 0. -1.
        -13    1    4    4    0    0 -0.68528219737E+02 -0.17434387462E+02 -0.29157305752E+02  0.76486752090E+02  0.00000000000E+00 0.  1.
         14    1    4    4    0    0  0.14658654095E+02  0.19747878961E+02 -0.91588888583E+01  0.26243858490E+02  0.00000000000E+00 0. -1.
         -5    1    5    5    0  502  0.84857065874E+02  0.20284434319E+02  0.29105897629E+02  0.92094642521E+02  0.47000000000E+01 0.  1.
         13    1    6    6    0    0 -0.41887939925E+02  0.13826478222E+02  0.69809285656E+01  0.44659874326E+02  0.00000000000E+00 0. -1.
        -14    1    6    6    0    0  0.16677525429E+02  0.72600229059E+02 -0.15281758398E+02  0.76042522667E+02  0.00000000000E+00 0.  1.
</event>
<event>
12    1  0.8449700E-002  0.1807573E+03  0.7818608E-02  0.1167275E+00
         21   -1    0    0  501  502  0.00000000000E+00  0.00000000000E+00  0.64896619297E+02  0.64896619297E+02  0.00000000000E+00 0. -1.
         21   -1    0    0  502  503 -0.00000000000E+00 -0.00000000000E+00 -0.65946137629E+03  0.65946137629E+03  0.00000000000E+00 0. -1.
         -6    2    1    2    0  503 -0.45273898566E+02 -0.27585420244E+02 -0.47422233460E+03  0.50720478743E+03  0.17192786993E+03 0.  0.
        -24    2    3    3    0    0 -0.81546938804E+01 -0.80370342141E+02 -0.33480787072E+03  0.35350844370E+03  0.79661901468E+02 0.  0.
          6    2    1    2  501    0  0.45273898566E+02  0.27585420244E+02 -0.12034242240E+03  0.21715320816E+03  0.17280780042E+03 0.  0.
         24    2    5    5    0    0  0.46293971937E+01 -0.23409312704E+02 -0.53843037825E+01  0.84903832677E+02  0.81303399907E+02 0.  0.
          5    1    5    5  501    0  0.40644501372E+02  0.50994732948E+02 -0.11495811862E+03  0.13224937549E+03  0.47000000000E+01 0. -1.
        -11    1    6    6    0    0  0.38793711975E+02 -0.20569362778E+01  0.12520984531E+02  0.40816150348E+02  0.00000000000E+00 0.  1.
         12    1    6    6    0    0 -0.34164314781E+02 -0.21352376426E+02 -0.17905288314E+02  0.44087682328E+02  0.00000000000E+00 0. -1.
         -5    1    3    3    0  503 -0.37119204686E+02  0.52784921897E+02 -0.13941446388E+03  0.15369634372E+03  0.47000000000E+01 0.  1.
         11    1    4    4    0    0 -0.53675814968E+01 -0.63687967683E+02 -0.32970368064E+03  0.33584145841E+03  0.00000000000E+00 0. -1.
        -12    1    4    4    0    0 -0.27871123836E+01 -0.16682374458E+02 -0.51041900791E+01  0.17666985294E+02  0.00000000000E+00 0.  1.
</event>
<event>
12    1  0.8449700E-002  0.1741181E+03  0.7818608E-02  0.1173637E+00
         21   -1    0    0  501  502  0.00000000000E+00  0.00000000000E+00  0.36780919030E+03  0.36780919030E+03  0.00000000000E+00 0. -1.
         21   -1    0    0  502  503 -0.00000000000E+00 -0.00000000000E+00 -0.13983414415E+03  0.13983414415E+03  0.00000000000E+00 0. -1.
         -6    2    1    2    0  503  0.42376650799E+01 -0.24321120095E+02 -0.48701968520E+02  0.18073770469E+03  0.17229266226E+03 0.  0.
        -24    2    3    3    0    0  0.58595568913E+02 -0.53157726739E+02 -0.29720742838E+02  0.11617216806E+03  0.79708628567E+02 0.  0.
          6    2    1    2  501    0 -0.42376650799E+01  0.24321120095E+02  0.27667701466E+03  0.32690562976E+03  0.17235906023E+03 0.  0.
         24    2    5    5    0    0 -0.35908976361E+02  0.34488284535E+01  0.54922323852E+02  0.10188128128E+03  0.77858749131E+02 0.  0.
          5    1    5    5  501    0  0.31671311281E+02  0.20872291642E+02  0.22175469081E+03  0.22502434849E+03  0.47000000000E+01 0. -1.
        -11    1    6    6    0    0 -0.46157143825E+02  0.30991090610E+02  0.42484589222E+02  0.69970493386E+02  0.00000000000E+00 0.  1.
         12    1    6    6    0    0  0.10248167464E+02 -0.27542262157E+02  0.12437734630E+02  0.31910787891E+02  0.00000000000E+00 0. -1.
         -5    1    3    3    0  503 -0.54357903833E+02  0.28836606644E+02 -0.18981225682E+02  0.64565536630E+02  0.47000000000E+01 0.  1.
         13    1    4    4    0    0  0.43825219187E+02 -0.12586518030E+02 -0.50684071487E+02  0.68175841582E+02  0.00000000000E+00 0. -1.
        -14    1    4    4    0    0  0.14770349726E+02 -0.40571208709E+02  0.20963328649E+02  0.47996326476E+02  0.00000000000E+00 0.  1.
</event>
<event>
12    1  0.8449700E-002  0.1826633E+03  0.7818608E-02  0.1165997E+00
         21   -1    0    0  501  502  0.00000000000E+00  0.00000000000E+00  0.15755952331E+04  0.15755952331E+04  0.00000000000E+00 0.  1.
         21   -1    0    0  502  503 -0.00000000000E+00 -0.00000000000E+00 -0.28714745155E+02  0.28714745155E+02  0.00000000000E+00 0.  1.
         -6    2    1    2    0  503  0.48769343835E+02 -0.41194306669E+02  0.11989447085E+04  0.12127795756E+04  0.17114457398E+03 0.  0.
        -24    2    3    3    0    0  0.71456659158E+01  0.40093609915E+02  0.61794652716E+03  0.62462888688E+03  0.81515506490E+02 0.  0.
          6    2    1    2  501    0 -0.48769343835E+02  0.41194306669E+02  0.34793577948E+03  0.39153040267E+03  0.16781337781E+03 0.  0.
         24    2    5    5    0    0 -0.52064253976E+02 -0.34675674978E+02  0.17229515757E+03  0.20011768467E+03  0.80301789624E+02 0.  0.
          5    1    5    5  501    0  0.32949101416E+01  0.75869981647E+02  0.17564062190E+03  0.19141271800E+03  0.47000000000E+01 0. -1.
        -13    1    6    6    0    0  0.12923532798E+02  0.63506649792E+00  0.35406776011E+00  0.12943970543E+02  0.00000000000E+00 0.  1.
         14    1    6    6    0    0 -0.64987786774E+02 -0.35310741476E+02  0.17194108981E+03  0.18717371413E+03  0.00000000000E+00 0. -1.
         -5    1    3    3    0  503  0.41623677919E+02 -0.81287916584E+02  0.58099818131E+03  0.58815068871E+03  0.47000000000E+01 0.  1.
         11    1    4    4    0    0 -0.34058320550E+02  0.58602975972E+01  0.16897361617E+03  0.17247143313E+03  0.00000000000E+00 0. -1.
        -12    1    4    4    0    0  0.41203986465E+02  0.34233312318E+02  0.44897291099E+03  0.45215745374E+03  0.00000000000E+00 0.  1.
</event>
<event>
12    1  0.8449700E-002  0.2342811E+03  0.7818608E-02  0.1123870E+00
         21   -1    0    0  501  502  0.00000000000E+00  0.00000000000E+00  0.16652543875E+04  0.16652543875E+04  0.00000000000E+00 0. -1.
         21   -1    0    0  502  503 -0.00000000000E+00 -0.00000000000E+00 -0.23481925214E+03  0.23481925214E+03  0.00000000000E+00 0. -1.
         -6    2    1    2    0  503  0.14078980690E+03  0.76263473123E+02 -0.16573457035E+03  0.28697664505E+03  0.17102561192E+03 0.  0.
        -24    2    3    3    0    0  0.12631193911E+03  0.94902690610E+02 -0.75024353419E+02  0.19312856281E+03  0.81907029737E+02 0.  0.
          6    2    1    2  501    0 -0.14078980690E+03 -0.76263473123E+02  0.15961697057E+04  0.16130969946E+04  0.16937029691E+03 0.  0.
         24    2    5    5    0    0 -0.16643848655E+03 -0.54018187036E+02  0.14621584952E+04  0.14747720075E+04  0.80157810534E+02 0.  0.
          5    1    5    5  501    0  0.25648679646E+02 -0.22245286087E+02  0.13401121050E+03  0.13832498712E+03  0.47000000000E+01 0. -1.
        -13    1    6    6    0    0 -0.29889727792E+02 -0.11555498435E+02  0.97265189348E+02  0.10240821466E+03  0.00000000000E+00 0.  1.
         14    1    6    6    0    0 -0.13654875875E+03 -0.42462688601E+02  0.13648933059E+04  0.13723637928E+04  0.00000000000E+00 0. -1.
         -5    1    3    3    0  503  0.14477867794E+02 -0.18639217486E+02 -0.90710216933E+02  0.93848082241E+02  0.47000000000E+01 0.  1.
         13    1    4    4    0    0  0.10267786010E+03  0.92190887584E+02 -0.90249539671E+02  0.16488445081E+03  0.00000000000E+00 0. -1.
        -14    1    4    4    0    0  0.23634079002E+02  0.27118030260E+01  0.15225186252E+02  0.28244111994E+02  0.00000000000E+00 0.  1.
</event>
<event>
12    1  0.8449700E-002  0.1759689E+03  0.7818608E-02  0.1171948E+00
         21   -1    0    0  503  502  0.00000000000E+00  0.00000000000E+00  0.13067824927E+03  0.13067824927E+03  0.00000000000E+00 0. -1.
         21   -1    0    0  501  503 -0.00000000000E+00 -0.00000000000E+00 -0.32493887795E+03  0.32493887795E+03  0.00000000000E+00 0. -1.
          6    2    1    2  501    0  0.24045906770E+02 -0.23924827939E+02 -0.21648983536E+03  0.27898550104E+03  0.17266863627E+03 0.  0.
         24    2    3    3    0    0 -0.19633381469E+02  0.41478956772E+01 -0.34256145871E+02  0.89440874060E+02  0.80146813512E+02 0.  0.
         -6    2    1    2    0  502 -0.24045906770E+02  0.23924827939E+02  0.22229206677E+02  0.17663162619E+03  0.17191274158E+03 0.  0.
        -24    2    5    5    0    0  0.14312394755E+02  0.66031523610E+02  0.46540944934E+02  0.11452298160E+03  0.79902734649E+02 0.  0.
          5    1    3    3  501    0  0.43679288239E+02 -0.28072723617E+02 -0.18223368949E+03  0.18954462698E+03  0.47000000000E+01 0. -1.
        -11    1    4    4    0    0 -0.37725421220E+02  0.12311274690E+02 -0.50193596682E+02  0.63985717458E+02  0.00000000000E+00 0.  1.
         12    1    4    4    0    0  0.18092039751E+02 -0.81633790130E+01  0.15937450811E+02  0.25455156602E+02  0.00000000000E+00 0. -1.
         -5    1    5    5    0  502 -0.38358301525E+02 -0.42106695670E+02 -0.24311738257E+02  0.62108644593E+02  0.47000000000E+01 0.  1.
         11    1    6    6    0    0  0.88009036125E+01  0.73418065175E+02  0.74015917151E+01  0.74313200431E+02  0.00000000000E+00 0. -1.
        -12    1    6    6    0    0  0.55114911422E+01 -0.73865415655E+01  0.39139353218E+02  0.40209781164E+02  0.00000000000E+00 0.  1.
</event>
<event>
12    1  0.8449700E-002  0.1879650E+03  0.7818608E-02  0.1160509E+00
         21   -1    0    0  503  502  0.00000000000E+00  0.00000000000E+00  0.55918305307E+02  0.55918305307E+02  0.00000000000E+00 0. -1.
         21   -1    0    0  501  503 -0.00000000000E+00 -0.00000000000E+00 -0.62891110226E+03  0.62891110226E+03  0.00000000000E+00 0.  1.
          6    2    1    2  501    0  0.11523550413E+02  0.74000168324E+02 -0.28823155240E+03  0.34410501389E+03  0.17240074148E+03 0.  0.
         24    2    3    3    0    0 -0.15456610226E+02  0.83698759124E+02 -0.10056729864E+03  0.15420516168E+03  0.80131524725E+02 0.  0.
         -6    2    1    2    0  502 -0.11523550413E+02 -0.74000168324E+02 -0.28476124455E+03  0.34072439367E+03  0.17145066030E+03 0.  0.
        -24    2    5    5    0    0 -0.43491053947E+02 -0.29263325988E+01 -0.73617835984E+02  0.11560877807E+03  0.77754540673E+02 0.  0.
          5    1    3    3  501    0  0.26980160639E+02 -0.96985907997E+01 -0.18766425376E+03  0.18989985221E+03  0.47000000000E+01 0. -1.
        -13    1    4    4    0    0  0.25541806291E+02  0.21539283803E+02 -0.61738415459E+01  0.33977064835E+02  0.00000000000E+00 0.  1.
         14    1    4    4    0    0 -0.40998416517E+02  0.62159475321E+02 -0.94393457096E+02  0.12022809685E+03  0.00000000000E+00 0. -1.
         -5    1    5    5    0  502  0.31967503534E+02 -0.71073835725E+02 -0.21114340857E+03  0.22511561560E+03  0.47000000000E+01 0.  1.
         13    1    6    6    0    0 -0.21380821391E+02 -0.30429278403E+02 -0.38048405342E+01  0.37383917919E+02  0.00000000000E+00 0. -1.
        -14    1    6    6    0    0 -0.22110232555E+02  0.27502945804E+02 -0.69812995449E+02  0.78224860148E+02  0.00000000000E+00 0.  1.
</event>
<event>
12    1  0.8449700E-002  0.2252450E+03  0.7818608E-02  0.1130039E+00
         21   -1    0    0  503  502  0.00000000000E+00  0.00000000000E+00  0.68843646269E+02  0.68843646269E+02  0.00000000000E+00 0.  1.
         21   -1    0    0  501  503 -0.00000000000E+00 -0.00000000000E+00 -0.75711338210E+03  0.75711338210E+03  0.00000000000E+00 0.  1.
          6    2    1    2  501    0  0.60837807324E+02 -0.13194377919E+03 -0.27657360439E+03  0.35669069834E+03  0.17211884258E+03 0.  0.
         24    2    3    3    0    0  0.43661055745E+02 -0.13468041710E+03 -0.29037045398E+03  0.33399768089E+03  0.84819501029E+02 0.  0.
         -6    2    1    2    0  502 -0.60837807324E+02  0.13194377919E+03 -0.41169613144E+03  0.46926633003E+03  0.17206622037E+03 0.  0.
        -24    2    5    5    0    0 -0.50144310242E+02  0.18982438532E+01 -0.15880981862E+03  0.18466174582E+03  0.79758051012E+02 0.  0.
          5    1    3    3  501    0  0.17176751579E+02  0.27366379174E+01  0.13796849597E+02  0.22693017443E+02  0.47000000000E+01 0. -1.
        -13    1    4    4    0    0  0.62569554824E+02 -0.60425224602E+02 -0.17615127708E+03  0.19645719477E+03  0.00000000000E+00 0.  1.
         14    1    4    4    0    0 -0.18908499079E+02 -0.74255192501E+02 -0.11421917690E+03  0.13754048612E+03  0.00000000000E+00 0. -1.
         -5    1    5    5    0  502 -0.10693497082E+02  0.13004553533E+03 -0.25288631282E+03  0.28460458421E+03  0.47000000000E+01 0.  1.
         13    1    6    6    0    0 -0.34282805297E+02  0.12632602194E+02 -0.14858558426E+02  0.39441984429E+02  0.00000000000E+00 0. -1.
        -14    1    6    6    0    0 -0.15861504945E+02 -0.10734358340E+02 -0.14395126019E+03  0.14521976140E+03  0.00000000000E+00 0.  1.
</event>
<event>
12    1  0.8449700E-002  0.2149902E+03  0.7818608E-02  0.1137727E+00
         21   -1    0    0  501  502  0.00000000000E+00  0.00000000000E+00  0.16254545122E+04  0.16254545122E+04  0.00000000000E+00 0.  1.
         21   -1    0    0  502  503 -0.00000000000E+00 -0.00000000000E+00 -0.30504494641E+02  0.30504494641E+02  0.00000000000E+00 0.  1.
         -6    2    1    2    0  503 -0.25333125250E+02  0.12509041577E+03  0.58043004815E+03  0.61896675809E+03  0.17300701566E+03 0.  0.
        -24    2    3    3    0    0  0.30574392748E+02  0.95271030043E+01  0.19411784209E+03  0.21185529868E+03  0.78583533766E+02 0.  0.
          6    2    1    2  501    0  0.25333125250E+02 -0.12509041577E+03  0.10145199694E+04  0.10369922487E+04  0.17266376659E+03 0.  0.
         24    2    5    5    0    0 -0.24510791256E+02 -0.13857914007E+03  0.81486310301E+03  0.83071254545E+03  0.79224362206E+02 0.  0.
          5    1    5    5  501    0  0.49843916506E+02  0.13488724294E+02  0.19965686636E+03  0.20627970327E+03  0.47000000000E+01 0. -1.
        -13    1    6    6    0    0  0.10151934950E+02 -0.11865439425E+03  0.66656398776E+03  0.67711851019E+03  0.00000000000E+00 0.  1.
         14    1    6    6    0    0 -0.34662726206E+02 -0.19924745813E+02  0.14829911525E+03  0.15359403526E+03  0.00000000000E+00 0. -1.
         -5    1    3    3    0  503 -0.55907517998E+02  0.11556331277E+03  0.38631220606E+03  0.40711145941E+03  0.47000000000E+01 0.  1.
         13    1    4    4    0    0  0.94414411360E+01 -0.19429053686E+02  0.16288171451E+03  0.16430788740E+03  0.00000000000E+00 0. -1.
        -14    1    4    4    0    0  0.21132951612E+02  0.28956156691E+02  0.31236127577E+02  0.47547411287E+02  0.00000000000E+00 0.  1.
</event>
<event>
12    1  0.8449700E-002  0.3721047E+03  0.7818608E-02  0.1053949E+00
         21   -1    0    0  501  502  0.00000000000E+00  0.00000000000E+00  0.60881665080E+03  0.60881665080E+03  0.00000000000E+00 0.  1.
         21   -1    0    0  502  503 -0.00000000000E+00 -0.00000000000E+00 -0.32068668285E+03  0.32068668285E+03  0.00000000000E+00 0. -1.
         -6    2    1    2    0  503 -0.46170211829E+02  0.32652139584E+03 -0.10714143456E+03  0.38663927154E+03  0.17106352299E+03 0.  0.
        -24    2    3    3    0    0 -0.81917373273E+02  0.13802640587E+03 -0.64541656156E+02  0.19005582383E+03  0.78700991294E+02 0.  0.
          6    2    1    2  501    0  0.46170211829E+02 -0.32652139584E+03  0.39527140251E+03  0.54286406211E+03  0.17237748661E+03 0.  0.
         24    2    5    5    0    0  0.17797117640E+02 -0.31521884256E+03  0.30079816048E+03  0.44346555284E+03  0.80638124424E+02 0.  0.
          5    1    5    5  501    0  0.28373094189E+02 -0.11302553278E+02  0.94473242033E+02  0.99398509268E+02  0.47000000000E+01 0. -1.
        -13    1    6    6    0    0  0.32333100850E+02 -0.27432532092E+03  0.28599805275E+03  0.39761123889E+03  0.00000000000E+00 0.  1.
         14    1    6    6    0    0 -0.14535983210E+02 -0.40893521638E+02  0.14800107724E+02  0.45854313958E+02  0.00000000000E+00 0. -1.
         -5    1    3    3    0  503  0.35747161445E+02  0.18849498997E+03 -0.42599778407E+02  0.19658344771E+03  0.47000000000E+01 0.  1.
         13    1    4    4    0    0 -0.83528404678E+02  0.14689910394E+03 -0.57126911346E+02  0.17838112324E+03  0.00000000000E+00 0. -1.
        -14    1    4    4    0    0  0.16110314045E+01 -0.88726980743E+01 -0.74147448095E+01  0.11674700591E+02  0.00000000000E+00 0.  1.
</event>
<event>
12    1  0.8449700E-002  0.1788608E+03  0.7818608E-02  0.1169378E+00
         21   -1    0    0  501  502  0.00000000000E+00  0.00000000000E+00  0.20191460849E+03  0.20191460849E+03  0.00000000000E+00 0. -1.
         21   -1    0    0  502  503 -0.00000000000E+00 -0.00000000000E+00 -0.18702498639E+03  0.18702498639E+03  0.00000000000E+00 0.  1.
         -6    2    1    2    0  503 -0.43462557363E+02 -0.15033493920E+02  0.85713296190E+02  0.19833798562E+03  0.17284729550E+03 0.  0.
        -24    2    3    3    0    0  0.35100941020E+02 -0.18562923578E+02  0.11200593717E+02  0.89899463950E+02  0.79873663536E+02 0.  0.
          6    2    1    2  501    0  0.43462557363E+02  0.15033493920E+02 -0.70823674086E+02  0.19060160926E+03  0.17087416659E+03 0.  0.
         24    2    5    5    0    0  0.42227516102E+02  0.21602841243E+02 -0.11413890102E+03  0.14652235636E+03  0.78684600288E+02 0.  0.
          5    1    5    5  501    0  0.12350412608E+01 -0.65693473228E+01  0.43315226934E+02  0.44079252892E+02  0.47000000000E+01 0. -1.
        -11    1    6    6    0    0  0.19750022793E+02  0.25752017968E+02 -0.24801815752E+01  0.32548135590E+02  0.00000000000E+00 0.  1.
         12    1    6    6    0    0  0.22477493309E+02 -0.41491767245E+01 -0.11165871945E+03  0.11397422077E+03  0.00000000000E+00 0. -1.
         -5    1    3    3    0  503 -0.78563498383E+02  0.35294296577E+01  0.74512702473E+02  0.10843852167E+03  0.47000000000E+01 0.  1.
         11    1    4    4    0    0  0.37128971324E+01  0.21205912783E+02  0.29072993243E+02  0.36176170032E+02  0.00000000000E+00 0. -1.
        -12    1    4    4    0    0  0.31388043887E+02 -0.39768836361E+02 -0.17872399526E+02  0.53723293918E+02  0.00000000000E+00 0.  1.
</event>
<event>
12    1  0.8449700E-002  0.1931665E+03  0.7818608E-02  0.1155852E+00
         21   -1    0    0  501  502  0.00000000000E+00  0.00000000000E+00  0.35691291404E+03  0.35691291404E+03  0.00000000000E+00 0. -1.
         21   -1    0    0  502  503 -0.00000000000E+00 -0.00000000000E+00 -0.12338353225E+03  0.12338353225E+03  0.00000000000E+00 0. -1.
         -6    2    1    2    0  503  0.16684439720E+02  0.85704064497E+02  0.21871688451E+02  0.19440081402E+03  0.17230713432E+03 0.  0.
        -24    2    3    3    0    0  0.51748650047E+02  0.10891438613E+03 -0.29483132027E+01  0.14534635084E+03  0.81096256780E+02 0.  0.
          6    2    1    2  501    0 -0.16684439720E+02 -0.85704064497E+02  0.21165769333E+03  0.28589563226E+03  0.17121266367E+03 0.  0.
         24    2    5    5    0    0 -0.63526120349E+02 -0.71839759089E+02  0.19799516578E+03  0.23495334465E+03  0.82489208608E+02 0.  0.
          5    1    5    5  501    0  0.46841680629E+02 -0.13864305408E+02  0.13662527556E+02  0.50942287619E+02  0.47000000000E+01 0. -1.
        -11    1    6    6    0    0 -0.50877651365E+02 -0.23836743169E+02  0.39013185829E+02  0.68401421051E+02  0.00000000000E+00 0.  1.
         12    1    6    6    0    0 -0.12648468984E+02 -0.48003015920E+02  0.15898197995E+03  0.16655192359E+03  0.00000000000E+00 0. -1.
         -5    1    3    3    0  503 -0.35064210327E+02 -0.23210321633E+02  0.24820001653E+02  0.49054463184E+02  0.47000000000E+01 0.  1.
         11    1    4    4    0    0  0.38001739737E+02  0.12107888986E+03 -0.39367086746E+01  0.12696348872E+03  0.00000000000E+00 0. -1.
        -12    1    4    4    0    0  0.13746910310E+02 -0.12164503730E+02  0.98839547194E+00  0.18382862119E+02  0.00000000000E+00 0.  1.
</event>
<event>
12    1  0.8449700E-002  0.2533006E+03  0.7818608E-02  0.1111363E+00
         21   -1    0    0  501  502  0.00000000000E+00  0.00000000000E+00  0.30158322774E+03  0.30158322774E+03  0.00000000000E+00 0.  1.
         21   -1    0    0  502  503 -0.00000000000E+00 -0.00000000000E+00 -0.53291690151E+03  0.53291690151E+03  0.00000000000E+00 0.  1.
         -6    2    1    2    0  503  0.13563498642E+03  0.12542302583E+03 -0.43934909333E+03  0.50673250681E+03  0.17211165765E+03 0.  0.
        -24    2    3    3    0    0 -0.29505395449E+01  0.33136459063E+02 -0.13562753479E+03  0.16033442146E+03  0.78775427062E+02 0.  0.
          6    2    1    2  501    0 -0.13563498642E+03 -0.12542302583E+03  0.20801541956E+03  0.32776762244E+03  0.17330151353E+03 0.  0.
         24    2    5    5    0    0 -0.14360819530E+03 -0.10853039334E+03  0.22705880467E+03  0.30068121240E+03  0.80320176038E+02 0.  0.
          5    1    5    5  501    0  0.79732088802E+01 -0.16892632489E+02 -0.19043385105E+02  0.27086410033E+02  0.47000000000E+01 0. -1.
        -13    1    6    6    0    0 -0.21740112388E+02 -0.36756192504E+02  0.10683905421E+03  0.11505752335E+03  0.00000000000E+00 0.  1.
         14    1    6    6    0    0 -0.12186808292E+03 -0.71774200834E+02  0.12021975046E+03  0.18562368906E+03  0.00000000000E+00 0. -1.
         -5    1    3    3    0  503  0.13858552597E+03  0.92286566763E+02 -0.30372155854E+03  0.34639808535E+03  0.47000000000E+01 0.  1.
         11    1    4    4    0    0  0.19036510411E+02  0.51655328422E+02 -0.10345097949E+03  0.11718688852E+03  0.00000000000E+00 0. -1.
        -12    1    4    4    0    0 -0.21987049956E+02 -0.18518869358E+02 -0.32176555303E+02  0.43147532945E+02  0.00000000000E+00 0.  1.
</event>
<event>
12    1  0.8449700E-002  0.1957109E+03  0.7818608E-02  0.1158487E+00
         21   -1    0    0  503  502  0.00000000000E+00  0.00000000000E+00  0.19234543650E+03  0.19234543650E+03  0.00000000000E+00 0.  1.
         21   -1    0    0  501  503 -0.00000000000E+00 -0.00000000000E+00 -0.20055912651E+03  0.20055912651E+03  0.00000000000E+00 0.  1.
          6    2    1    2  501    0 -0.26503845675E+02 -0.34872881310E+02 -0.70529073664E+02  0.18751231853E+03  0.16813074580E+03 0.  0.
         24    2    3    3    0    0  0.16510887493E+02  0.16768230720E+02 -0.80726288556E+02  0.11937169252E+03  0.84729477424E+02 0.  0.
         -6    2    1    2    0  502  0.26503845675E+02  0.34872881310E+02  0.62315383655E+02  0.20539224448E+03  0.19074641639E+03 0.  0.
        -24    2    5    5    0    0 -0.32041403868E+02  0.96186814446E+01  0.99198172660E+02  0.13158336304E+03  0.79716581559E+02 0.  0.
          5    1    3    3  501    0 -0.43014733168E+02 -0.51641112030E+02  0.10197214892E+02  0.68140626008E+02  0.47000000000E+01 0. -1.
        -13    1    4    4    0    0  0.53893588445E-01 -0.29216193058E+02 -0.59161134456E+02  0.65982032944E+02  0.00000000000E+00 0.  1.
         14    1    4    4    0    0  0.16456993905E+02  0.45984423778E+02 -0.21565154100E+02  0.53389659579E+02  0.00000000000E+00 0. -1.
         -5    1    5    5    0  502  0.58545249542E+02  0.25254199866E+02 -0.36882789006E+02  0.73808881442E+02  0.47000000000E+01 0.  1.
         13    1    6    6    0    0  0.58461810979E+01 -0.85978310278E+01 -0.10090148047E+02  0.14488327005E+02  0.00000000000E+00 0. -1.
        -14    1    6    6    0    0 -0.37887584966E+02  0.18216512472E+02  0.10928832071E+03  0.11709503604E+03  0.00000000000E+00 0.  1.
</event>
<event>
12    1  0.8449700E-002  0.1893602E+03  0.7818608E-02  0.1159204E+00
         21   -1    0    0  501  502  0.00000000000E+00  0.00000000000E+00  0.13326374836E+03  0.13326374836E+03  0.00000000000E+00 0. -1.
         21   -1    0    0  502  503 -0.00000000000E+00 -0.00000000000E+00 -0.29505381244E+03  0.29505381244E+03  0.00000000000E+00 0. -1.
         -6    2    1    2    0  503  0.25364183915E+02 -0.73475241183E+02 -0.14554944738E+03  0.23826214639E+03  0.17187860797E+03 0.  0.
        -24    2    3    3    0    0 -0.49338492115E+02 -0.49156699874E+02 -0.11337495428E+03  0.15323762484E+03  0.76008035517E+02 0.  0.
          6    2    1    2  501    0 -0.25364183915E+02  0.73475241183E+02 -0.16240616703E+02  0.19005541441E+03  0.17267121944E+03 0.  0.
         24    2    5    5    0    0  0.17031450927E+02  0.10194037515E+03 -0.35729749352E+02  0.13519586650E+03  0.79494634545E+02 0.  0.
          5    1    5    5  501    0 -0.42395634843E+02 -0.28465133970E+02  0.19489132649E+02  0.54859547912E+02  0.47000000000E+01 0. -1.
        -13    1    6    6    0    0  0.32041247091E+02  0.11311176637E+02  0.56445191535E+01  0.34444808441E+02  0.00000000000E+00 0.  1.
         14    1    6    6    0    0 -0.15009796164E+02  0.90629198516E+02 -0.41374268505E+02  0.10075105805E+03  0.00000000000E+00 0. -1.
         -5    1    3    3    0  503  0.74702676031E+02 -0.24318541309E+02 -0.32174493098E+02  0.85024521543E+02  0.47000000000E+01 0.  1.
         11    1    4    4    0    0 -0.52107213485E+02 -0.57252196515E+02 -0.56793388805E+02  0.96012836199E+02  0.00000000000E+00 0. -1.
        -12    1    4    4    0    0  0.27687213694E+01  0.80954966412E+01 -0.56581565475E+02  0.57224788646E+02  0.00000000000E+00 0.  1.
</event>
<event>
12    1  0.8449700E-002  0.1850958E+03  0.7818608E-02  0.1163516E+00
         21   -1    0    0  501  502  0.00000000000E+00  0.00000000000E+00  0.11685049121E+03  0.11685049121E+03  0.00000000000E+00 0.  1.
         21   -1    0    0  502  503 -0.00000000000E+00 -0.00000000000E+00 -0.44355652096E+03  0.44355652096E+03  0.00000000000E+00 0.  1.
         -6    2    1    2    0  503  0.35667249050E+01 -0.67600718789E+02 -0.32918912885E+03  0.37765847311E+03  0.17227263583E+03 0.  0.
        -24    2    3    3    0    0  0.69589692133E+02 -0.49013346315E+02 -0.20298761057E+03  0.23394544019E+03  0.79255697415E+02 0.  0.
          6    2    1    2  501    0 -0.35667249050E+01  0.67600718789E+02  0.24830990866E+01  0.18274853906E+03  0.16973003281E+03 0.  0.
         24    2    5    5    0    0  0.29811188430E+02 -0.23497156599E+02  0.59106155718E+01  0.85554167471E+02  0.76444469200E+02 0.  0.
          5    1    5    5  501    0 -0.33377913335E+02  0.91097875388E+02 -0.34275164852E+01  0.97194371586E+02  0.47000000000E+01 0. -1.
        -11    1    6    6    0    0 -0.24940451870E+02 -0.16479464075E+02 -0.10867794604E+01  0.29912872903E+02  0.00000000000E+00 0.  1.
         12    1    6    6    0    0  0.54751640300E+02 -0.70176925236E+01  0.69973950321E+01  0.55641294568E+02  0.00000000000E+00 0. -1.
         -5    1    3    3    0  503 -0.66022967228E+02 -0.18587372474E+02 -0.12620151827E+03  0.14371303292E+03  0.47000000000E+01 0.  1.
         13    1    4    4    0    0  0.17659931179E+02 -0.49724626755E+02 -0.15307373748E+03  0.16191349783E+03  0.00000000000E+00 0. -1.
        -14    1    4    4    0    0  0.51929760955E+02  0.71128044047E+00 -0.49913873094E+02  0.72031942358E+02  0.00000000000E+00 0.  1.
</event>
<event>
12    1  0.8449700E-002  0.2329887E+03  0.7818608E-02  0.1124644E+00
         21   -1    0    0  501  502  0.00000000000E+00  0.00000000000E+00  0.25020345644E+03  0.25020345644E+03  0.00000000000E+00 0. -1.
         21   -1    0    0  502  503 -0.00000000000E+00 -0.00000000000E+00 -0.32375460771E+03  0.32375460771E+03  0.00000000000E+00 0. -1.
         -6    2    1    2    0  503  0.58841974431E+02  0.14572260336E+03 -0.20194694424E+03  0.30793319410E+03  0.17129748584E+03 0.  0.
        -24    2    3    3    0    0  0.36142431814E+02  0.11980961567E+03 -0.22342793426E+03  0.26706419487E+03  0.75780096240E+02 0.  0.
          6    2    1    2  501    0 -0.58841974431E+02 -0.14572260336E+03  0.12839579298E+03  0.26602487006E+03  0.17200667647E+03 0.  0.
         24    2    5    5    0    0 -0.45457779139E+02 -0.11222869216E+02  0.23082436627E+02  0.94612186182E+02  0.78906935156E+02 0.  0.
          5    1    5    5  501    0 -0.13384195292E+02 -0.13449973414E+03  0.10531335635E+03  0.17141268387E+03  0.47000000000E+01 0. -1.
        -13    1    6    6    0    0 -0.30627440987E+02  0.74517586266E+01  0.49713677233E+02  0.58864408195E+02  0.00000000000E+00 0.  1.
         14    1    6    6    0    0 -0.14830338152E+02 -0.18674627843E+02 -0.26631240607E+02  0.35747777987E+02  0.00000000000E+00 0. -1.
         -5    1    3    3    0  503  0.22699542617E+02  0.25912987682E+02  0.21480990023E+02  0.40868999229E+02  0.47000000000E+01 0.  1.
         11    1    4    4    0    0  0.56738465552E+02  0.61886528512E+02 -0.11446971394E+03  0.14195954105E+03  0.00000000000E+00 0. -1.
        -12    1    4    4    0    0 -0.20596033737E+02  0.57923087162E+02 -0.10895822032E+03  0.12510465382E+03  0.00000000000E+00 0.  1.
</event>
<event>
12    1  0.8449700E-002  0.2092984E+03  0.7818608E-02  0.1142205E+00
         21   -1    0    0  501  502  0.00000000000E+00  0.00000000000E+00  0.40053276335E+03  0.40053276335E+03  0.00000000000E+00 0.  1.
         21   -1    0    0  502  503 -0.00000000000E+00 -0.00000000000E+00 -0.12025714733E+03  0.12025714733E+03  0.00000000000E+00 0.  1.
         -6    2    1    2    0  503  0.26600165929E+02 -0.11503709213E+03  0.60891080535E+02  0.21758140543E+03  0.17231611331E+03 0.  0.
        -24    2    3    3    0    0 -0.19757684835E+02 -0.10288044154E+03  0.88976375132E+02  0.16183458262E+03  0.85433514713E+02 0.  0.
          6    2    1    2  501    0 -0.26600165929E+02  0.11503709213E+03  0.21938453548E+03  0.30320850525E+03  0.17281412516E+03 0.  0.
         24    2    5    5    0    0  0.39408408223E+02  0.68388266606E+02  0.17291958960E+03  0.20985795099E+03  0.88933668989E+02 0.  0.
          5    1    5    5  501    0 -0.66008574153E+02  0.46648825524E+02  0.46464945884E+02  0.93350554259E+02  0.47000000000E+01 0. -1.
        -13    1    6    6    0    0 -0.16936583918E+02  0.54188024891E+02  0.11260155555E+03  0.12610432280E+03  0.00000000000E+00 0.  1.
         14    1    6    6    0    0  0.56344992141E+02  0.14200241715E+02  0.60318034054E+02  0.83753628198E+02  0.00000000000E+00 0. -1.
         -5    1    3    3    0  503  0.46357850764E+02 -0.12156650586E+02 -0.28085294597E+02  0.55746822811E+02  0.47000000000E+01 0.  1.
         13    1    4    4    0    0  0.10310296377E+02 -0.10002473265E+03  0.84411975121E+02  0.13128835020E+03  0.00000000000E+00 0. -1.
        -14    1    4    4    0    0 -0.30067981212E+02 -0.28557088892E+01  0.45644000115E+01  0.30546232417E+02  0.00000000000E+00 0.  1.
</event>
<event>
12    1  0.8449700E-002  0.1715009E+03  0.7818608E-02  0.1176401E+00
         21   -1    0    0  503  502  0.00000000000E+00  0.00000000000E+00  0.25168685785E+02  0.25168685785E+02  0.00000000000E+00 0. -1.
         21   -1    0    0  501  503 -0.00000000000E+00 -0.00000000000E+00 -0.19178231489E+04  0.19178231489E+04  0.00000000000E+00 0. -1.
          6    2    1    2  501    0 -0.15060427793E+02  0.67915276163E+01 -0.15539914976E+04  0.15633799989E+04  0.17027772913E+03 0.  0.
         24    2    3    3    0    0  0.46805174795E+02 -0.24101082529E+02 -0.10977766842E+04  0.11019303786E+04  0.79782982341E+02 0.  0.
         -6    2    1    2    0  502  0.15060427793E+02 -0.67915276163E+01 -0.33866296558E+03  0.37961183585E+03  0.17070325224E+03 0.  0.
        -24    2    5    5    0    0  0.21330030551E+02  0.43605062384E+01 -0.35141870254E+03  0.36094436137E+03  0.79446480659E+02 0.  0.
          5    1    3    3  501    0 -0.61865602588E+02  0.30892610145E+02 -0.45621481337E+03  0.46144962031E+03  0.47000000000E+01 0. -1.
        -11    1    4    4    0    0 -0.16425578814E+02 -0.19166431749E+02 -0.53423647837E+03  0.53483246589E+03  0.00000000000E+00 0.  1.
         12    1    4    4    0    0  0.63230753610E+02 -0.49346507793E+01 -0.56354020581E+03  0.56709791266E+03  0.00000000000E+00 0. -1.
         -5    1    5    5    0  502 -0.62696027579E+01 -0.11152033855E+02  0.12755736962E+02  0.18667474475E+02  0.47000000000E+01 0.  1.
         11    1    6    6    0    0 -0.14030452594E+02 -0.25902085201E+02 -0.21018985553E+03  0.21224407409E+03  0.00000000000E+00 0. -1.
        -12    1    6    6    0    0  0.35360483145E+02  0.30262591439E+02 -0.14122884701E+03  0.14870028728E+03  0.00000000000E+00 0.  1.
</event>
<event>
12    1  0.8449700E-002  0.3010050E+03  0.7818608E-02  0.1085636E+00
         21   -1    0    0  503  502  0.00000000000E+00  0.00000000000E+00  0.48303362581E+03  0.48303362581E+03  0.00000000000E+00 0. -1.
         21   -1    0    0  501  503 -0.00000000000E+00 -0.00000000000E+00 -0.23461511561E+03  0.23461511561E+03  0.00000000000E+00 0.  1.
          6    2    1    2  501    0 -0.22894348495E+03 -0.90772211990E+02 -0.42657507256E+02  0.30401260643E+03  0.17305862640E+03 0.  0.
         24    2    3    3    0    0 -0.14807846894E+03  0.14648389503E+02 -0.32098025452E+02  0.17064751845E+03  0.77126415958E+02 0.  0.
         -6    2    1    2    0  502  0.22894348495E+03  0.90772211990E+02  0.29107601745E+03  0.41363613499E+03  0.16035863079E+03 0.  0.
        -24    2    5    5    0    0  0.73131087443E+02  0.79819044096E+02  0.99692307968E+02  0.16655863833E+03  0.77999922967E+02 0.  0.
          5    1    3    3  501    0 -0.80865016011E+02 -0.10542060149E+03 -0.10559481804E+02  0.13336508797E+03  0.47000000000E+01 0. -1.
        -13    1    4    4    0    0 -0.14698638093E+03 -0.51206063055E+01 -0.33348436255E+02  0.15080893537E+03  0.00000000000E+00 0.  1.
         14    1    4    4    0    0 -0.10920880091E+01  0.19768995809E+02  0.12504108024E+01  0.19838583082E+02  0.00000000000E+00 0. -1.
         -5    1    5    5    0  502  0.15581239751E+03  0.10953167893E+02  0.19138370948E+03  0.24707749667E+03  0.47000000000E+01 0.  1.
         13    1    6    6    0    0 -0.64322597927E+01 -0.32226277031E+01  0.32661546884E+02  0.33444520331E+02  0.00000000000E+00 0. -1.
        -14    1    6    6    0    0  0.79563347236E+02  0.83041671800E+02  0.67030761085E+02  0.13311411800E+03  0.00000000000E+00 0.  1.
</event>
<event>
12    1  0.8449700E-002  0.2298912E+03  0.7818608E-02  0.1126954E+00
         21   -1    0    0  501  502  0.00000000000E+00  0.00000000000E+00  0.36037558393E+03  0.36037558393E+03  0.00000000000E+00 0. -1.
         21   -1    0    0  502  503 -0.00000000000E+00 -0.00000000000E+00 -0.39771317943E+03  0.39771317943E+03  0.00000000000E+00 0. -1.
         -6    2    1    2    0  503  0.14845196496E+03 -0.24477349379E+02  0.28302206207E+03  0.36377891737E+03  0.17203629434E+03 0.  0.
        -24    2    3    3    0    0  0.80908457069E+02 -0.50108155823E+02  0.25798955409E+03  0.28717748036E+03  0.82796675634E+02 0.  0.
          6    2    1    2  501    0 -0.14845196496E+03  0.24477349379E+02 -0.32035965757E+03  0.39430984598E+03  0.17381834743E+03 0.  0.
         24    2    5    5    0    0 -0.96482779053E+02  0.78033112773E+02 -0.25568162917E+03  0.29544451619E+03  0.80723437171E+02 0.  0.
          5    1    5    5  501    0 -0.51969185908E+02 -0.53555763394E+02 -0.64678028399E+02  0.98865329789E+02  0.47000000000E+01 0. -1.
        -13    1    6    6    0    0 -0.13324080176E+02 -0.82424769924E+01 -0.32293111820E+01  0.15996811876E+02  0.00000000000E+00 0.  1.
         14    1    6    6    0    0 -0.83158698877E+02  0.86275589765E+02 -0.25245231799E+03  0.27944770432E+03  0.00000000000E+00 0. -1.
         -5    1    3    3    0  503  0.67543507891E+02  0.25630806445E+02  0.25032507978E+02  0.76601437016E+02  0.47000000000E+01 0.  1.
         11    1    4    4    0    0  0.71053354526E+02 -0.70204612228E+02  0.17795140951E+03  0.20406854465E+03  0.00000000000E+00 0. -1.
        -12    1    4    4    0    0  0.98551025430E+01  0.20096456405E+02  0.80038144582E+02  0.83108935707E+02  0.00000000000E+00 0.  1.
</event>
<event>
12    1  0.8449700E-002  0.2399874E+03  0.7818608E-02  0.1119953E+00
         21   -1    0    0  501  502  0.00000000000E+00  0.00000000000E+00  0.10071399286E+04  0.10071399286E+04  0.00000000000E+00 0.  1.
         21   -1    0    0  502  503 -0.00000000000E+00 -0.00000000000E+00 -0.77284636056E+02  0.77284636056E+02  0.00000000000E+00 0.  1.
         -6    2    1    2    0  503 -0.16555693677E+03  0.17092744905E+02  0.18758218241E+03  0.30459976130E+03  0.17289499179E+03 0.  0.
        -24    2    3    3    0    0 -0.13880985469E+03 -0.38731767594E+02  0.17615391931E+03  0.24147704120E+03  0.80700883259E+02 0.  0.
          6    2    1    2  501    0  0.16555693677E+03 -0.17092744905E+02  0.74227311017E+03  0.77982480339E+03  0.17162777355E+03 0.  0.
         24    2    5    5    0    0  0.41737577120E+02 -0.41903578525E+02  0.47327280862E+03  0.48262106263E+03  0.73742819805E+02 0.  0.
          5    1    5    5  501    0  0.12381935965E+03  0.24810833619E+02  0.26900030155E+03  0.29720374076E+03  0.47000000000E+01 0. -1.
        -13    1    6    6    0    0  0.40565569455E+02 -0.27170023496E+02  0.46051634105E+03  0.46309726405E+03  0.00000000000E+00 0.  1.
         14    1    6    6    0    0  0.11720076651E+01 -0.14733555029E+02  0.12756467576E+02  0.19523798575E+02  0.00000000000E+00 0. -1.
         -5    1    3    3    0  503 -0.26747082086E+02  0.55824512500E+02  0.11428263098E+02  0.63122720104E+02  0.47000000000E+01 0.  1.
         11    1    4    4    0    0 -0.20281839237E+02 -0.41221897982E+02  0.59301416968E+02  0.75015038029E+02  0.00000000000E+00 0. -1.
        -12    1    4    4    0    0 -0.11852801545E+03  0.24901303874E+01  0.11685250234E+03  0.16646200317E+03  0.00000000000E+00 0.  1.
</event>
<event>
12    1  0.8449700E-002  0.2138990E+03  0.7818608E-02  0.1138618E+00
         21   -1    0    0  503  502  0.00000000000E+00  0.00000000000E+00  0.23601218186E+03  0.23601218186E+03  0.00000000000E+00 0.  1.
         21   -1    0    0  501  503 -0.00000000000E+00 -0.00000000000E+00 -0.21587978268E+03  0.21587978268E+03  0.00000000000E+00 0.  1.
          6    2    1    2  501    0 -0.53860120280E+02 -0.11513866554E+03 -0.62871029630E+02  0.22294745852E+03  0.17203190993E+03 0.  0.
         24    2    3    3    0    0  0.19755118161E+02 -0.10099924556E+03 -0.96066700279E+01  0.13086972760E+03  0.80271322371E+02 0.  0.
         -6    2    1    2    0  502  0.53860120280E+02  0.11513866554E+03  0.83003428804E+02  0.22894450602E+03  0.17137150517E+03 0.  0.
        -24    2    5    5    0    0  0.56830092029E+02  0.17343600907E+01  0.50836282865E+02  0.11093530085E+03  0.80558338826E+02 0.  0.
          5    1    3    3  501    0 -0.73615238441E+02 -0.14139419985E+02 -0.53264359603E+02  0.92077730924E+02  0.47000000000E+01 0. -1.
        -11    1    4    4    0    0 -0.16012716217E+02 -0.92027483355E+02 -0.10384457359E+02  0.93985646393E+02  0.00000000000E+00 0.  1.
         12    1    4    4    0    0  0.35767834378E+02 -0.89717622038E+01  0.77778733137E+00  0.36884081204E+02  0.00000000000E+00 0. -1.
         -5    1    5    5    0  502 -0.29699717484E+01  0.11340430545E+03  0.32167145939E+02  0.11800920517E+03  0.47000000000E+01 0.  1.
         13    1    6    6    0    0 -0.13757110289E+02  0.76174785922E+01 -0.90819422577E+01  0.18159453152E+02  0.00000000000E+00 0. -1.
        -14    1    6    6    0    0  0.70587202318E+02 -0.58831185015E+01  0.59918225122E+02  0.92775847698E+02  0.00000000000E+00 0.  1.
</event>
<event>
12    1  0.8449700E-002  0.2013406E+03  0.7818608E-02  0.1148787E+00
         21   -1    0    0  501  502  0.00000000000E+00  0.00000000000E+00  0.28980787580E+04  0.28980787580E+04  0.00000000000E+00 0.  1.
         21   -1    0    0  502  503 -0.00000000000E+00 -0.00000000000E+00 -0.39350081728E+02  0.39350081728E+02  0.00000000000E+00 0.  1.
         -6    2    1    2    0  503 -0.10333732225E+03  0.67888219942E+01  0.24785945703E+03  0.31880780526E+03  0.17169570751E+03 0.  0.
        -24    2    3    3    0    0 -0.67281424945E+02  0.71448126272E+02  0.15840996447E+03  0.20260042562E+03  0.79508431821E+02 0.  0.
          6    2    1    2  501    0  0.10333732225E+03 -0.67888219942E+01  0.26108692192E+04  0.26186210345E+04  0.17266543355E+03 0.  0.
         24    2    5    5    0    0  0.90125866457E+02  0.49486316790E+02  0.13158950136E+04  0.13223487957E+04  0.80343532727E+02 0.  0.
          5    1    5    5  501    0  0.13211455791E+02 -0.56275138784E+02  0.12949742056E+04  0.12962722388E+04  0.47000000000E+01 0. -1.
        -11    1    6    6    0    0  0.80398752429E+02  0.30318345536E+01  0.69474350310E+03  0.69938665022E+03  0.00000000000E+00 0.  1.
         12    1    6    6    0    0  0.97271140276E+01  0.46454482236E+02  0.62115151053E+03  0.62296214548E+03  0.00000000000E+00 0. -1.
         -5    1    3    3    0  503 -0.36055897303E+02 -0.64659304277E+02  0.89449492567E+02  0.11620737963E+03  0.47000000000E+01 0.  1.
         11    1    4    4    0    0 -0.37220230000E+01  0.39783322438E+02  0.10899601516E+03  0.11608917917E+03  0.00000000000E+00 0. -1.
        -12    1    4    4    0    0 -0.63559401945E+02  0.31664803833E+02  0.49413949310E+02  0.86511246458E+02  0.00000000000E+00 0.  1.
</event>
<event>
12    1  0.8449700E-002  0.1728847E+03  0.7818608E-02  0.1175811E+00
         21   -1    0    0  501  502  0.00000000000E+00  0.00000000000E+00  0.77516228336E+03  0.77516228336E+03  0.00000000000E+00 0. -1.
         21   -1    0    0  502  503 -0.00000000000E+00 -0.00000000000E+00 -0.84150976190E+02  0.84150976190E+02  0.00000000000E+00 0. -1.
         -6    2    1    2    0  503 -0.13580532614E+02  0.91050228804E+01  0.24820662610E+02  0.17105523923E+03  0.16845324951E+03 0.  0.
        -24    2    3    3    0    0  0.19598317104E+01  0.68178045336E+02  0.10759263864E+02  0.10819875317E+03  0.83301390282E+02 0.  0.
          6    2    1    2  501    0  0.13580532614E+02 -0.91050228804E+01  0.66619064456E+03  0.68825802031E+03  0.17210983505E+03 0.  0.
         24    2    5    5    0    0 -0.18044405431E+02 -0.14808429843E+02  0.64290184712E+03  0.64829399094E+03  0.80108822866E+02 0.  0.
          5    1    5    5  501    0  0.31624938044E+02  0.57034069628E+01  0.23288797434E+02  0.39964029367E+02  0.47000000000E+01 0. -1.
        -13    1    6    6    0    0 -0.55639769411E+01 -0.31130155720E+02  0.97395120869E+02  0.10240045900E+03  0.00000000000E+00 0.  1.
         14    1    6    6    0    0 -0.12480428489E+02  0.16321725877E+02  0.54550672625E+03  0.54589353194E+03  0.00000000000E+00 0. -1.
         -5    1    3    3    0  503 -0.15540364324E+02 -0.59073022456E+02  0.14061398745E+02  0.62856486062E+02  0.47000000000E+01 0.  1.
         11    1    4    4    0    0  0.33730218382E+02  0.19542720216E+02 -0.18504584902E+02  0.43151653594E+02  0.00000000000E+00 0. -1.
        -12    1    4    4    0    0 -0.31770386672E+02  0.48635325121E+02  0.29263848766E+02  0.65047099578E+02  0.00000000000E+00 0.  1.
</event>
<event>
12    1  0.8449700E-002  0.1922784E+03  0.7818608E-02  0.1157365E+00
         21   -1    0    0  503  502  0.00000000000E+00  0.00000000000E+00  0.74836674521E+03  0.74836674521E+03  0.00000000000E+00 0.  1.
         21   -1    0    0  501  503 -0.00000000000E+00 -0.00000000000E+00 -0.49428779545E+02  0.49428779545E+02  0.00000000000E+00 0.  1.
          6    2    1    2  501    0 -0.60182902003E+02 -0.54534114684E+02  0.41271269328E+03  0.45530511703E+03  0.17428433962E+03 0.  0.
         24    2    3    3    0    0 -0.27301547258E+02  0.24470917382E+02  0.30570977611E+03  0.31821137951E+03  0.80348083766E+02 0.  0.
         -6    2    1    2    0  502  0.60182902003E+02  0.54534114684E+02  0.28622527238E+03  0.34249040773E+03  0.16964321819E+03 0.  0.
        -24    2    5    5    0    0  0.10469004472E+03  0.46391790509E+02  0.18649384522E+03  0.23287457512E+03  0.79614130278E+02 0.  0.
          5    1    3    3  501    0 -0.32881354744E+02 -0.79005032066E+02  0.10700291718E+03  0.13709373751E+03  0.47000000000E+01 0. -1.
        -13    1    4    4    0    0  0.66039573512E+01 -0.22914291197E+02  0.15142009884E+03  0.15328640946E+03  0.00000000000E+00 0.  1.
         14    1    4    4    0    0 -0.33905504610E+02  0.47385208579E+02  0.15428967727E+03  0.16492497005E+03  0.00000000000E+00 0. -1.
         -5    1    5    5    0  502 -0.44507142715E+02  0.81423241752E+01  0.99731427160E+02  0.10961583261E+03  0.47000000000E+01 0.  1.
         11    1    6    6    0    0  0.49708180626E+01 -0.14190423252E+02  0.55271089445E+02  0.57279756221E+02  0.00000000000E+00 0. -1.
        -12    1    6    6    0    0  0.99719226655E+02  0.60582213761E+02  0.13122275578E+03  0.17559481889E+03  0.00000000000E+00 0.  1.
</event>
<event>
12    1  0.8449700E-002  0.1756409E+03  0.7818608E-02  0.1172306E+00
         21   -1    0    0  501  502  0.00000000000E+00  0.00000000000E+00  0.42870530259E+03  0.42870530259E+03  0.00000000000E+00 0. -1.
         21   -1    0    0  502  503 -0.00000000000E+00 -0.00000000000E+00 -0.72258699730E+02  0.72258699730E+02  0.00000000000E+00 0. -1.
         -6    2    1    2    0  503  0.85126262341E+01  0.32384136471E+02  0.15486037173E+03  0.23416120025E+03  0.17241965047E+03 0.  0.
        -24    2    3    3    0    0 -0.19622563684E+02  0.60959061210E+02  0.16554459689E+03  0.19239568932E+03  0.74229613783E+02 0.  0.
          6    2    1    2  501    0 -0.85126262341E+01 -0.32384136471E+02  0.20158623113E+03  0.26680280207E+03  0.17153871140E+03 0.  0.
         24    2    5    5    0    0 -0.36590625177E+02  0.22976992217E+02  0.49460579601E+02  0.10243269394E+03  0.78608471747E+02 0.  0.
          5    1    5    5  501    0  0.28077998942E+02 -0.55361128689E+02  0.15212565153E+03  0.16437010814E+03  0.47000000000E+01 0. -1.
        -13    1    6    6    0    0 -0.51035035377E+02 -0.90556536583E+01  0.16874193955E+02  0.54509798392E+02  0.00000000000E+00 0.  1.
         14    1    6    6    0    0  0.14444410201E+02  0.32032645876E+02  0.32586385646E+02  0.47922895544E+02  0.00000000000E+00 0. -1.
         -5    1    3    3    0  503  0.28135189918E+02 -0.28574924739E+02 -0.10684225161E+02  0.41765510925E+02  0.47000000000E+01 0.  1.
         13    1    4    4    0    0 -0.11178029094E+02  0.31175900570E+02  0.11176730019E+02  0.34954318827E+02  0.00000000000E+00 0. -1.
        -14    1    4    4    0    0 -0.84445345899E+01  0.29783160640E+02  0.15436786687E+03  0.15744137050E+03  0.00000000000E+00 0.  1.
</event>
<event>
12    1  0.8449700E-002  0.1805278E+03  0.7818608E-02  0.1168268E+00
         21   -1    0    0  501  502  0.00000000000E+00  0.00000000000E+00  0.13819511228E+04  0.13819511228E+04  0.00000000000E+00 0.  1.
         21   -1    0    0  502  503 -0.00000000000E+00 -0.00000000000E+00 -0.45387602559E+02  0.45387602559E+02  0.00000000000E+00 0.  1.
         -6    2    1    2    0  503  0.45481119075E+02 -0.47828652815E+02  0.16398725845E+03  0.24094697842E+03  0.16373000109E+03 0.  0.
        -24    2    3    3    0    0  0.39343912127E+02 -0.32170879716E+00  0.17040748068E+03  0.19238892767E+03  0.80166970151E+02 0.  0.
          6    2    1    2  501    0 -0.45481119075E+02  0.47828652815E+02  0.11725762618E+04  0.11863917469E+04  0.16803028077E+03 0.  0.
         24    2    5    5    0    0 -0.52049250698E+02 -0.10476140227E+02  0.37878888828E+03  0.39042499286E+03  0.78305677657E+02 0.  0.
          5    1    5    5  501    0  0.65681316232E+01  0.58304793042E+02  0.79378737351E+03  0.79596675408E+03  0.47000000000E+01 0. -1.
        -13    1    6    6    0    0 -0.50811569047E+02 -0.12918842747E+02  0.38235280362E+03  0.38593053583E+03  0.00000000000E+00 0.  1.
         14    1    6    6    0    0 -0.12376816511E+01  0.24427025194E+01 -0.35639153409E+01  0.44944570333E+01  0.00000000000E+00 0. -1.
         -5    1    3    3    0  503  0.61372069478E+01 -0.47506944018E+02 -0.64202222288E+01  0.48558050749E+02  0.47000000000E+01 0.  1.
         11    1    4    4    0    0  0.84425196567E+01 -0.38450676404E+02  0.62814863300E+02  0.74131219506E+02  0.00000000000E+00 0. -1.
        -12    1    4    4    0    0  0.30901392470E+02  0.38128967606E+02  0.10759261738E+03  0.11825770817E+03  0.00000000000E+00 0.  1.
</event>
<event>
12    1  0.8449700E-002  0.1776124E+03  0.7818608E-02  0.1170518E+00
         21   -1    0    0  503  502  0.00000000000E+00  0.00000000000E+00  0.51577662602E+02  0.51577662602E+02  0.00000000000E+00 0.  1.
         21   -1    0    0  501  503 -0.00000000000E+00 -0.00000000000E+00 -0.78418329101E+03  0.78418329101E+03  0.00000000000E+00 0.  1.
          6    2    1    2  501    0 -0.36039712860E+02  0.19809416793E+02 -0.56658033121E+03  0.59376714960E+03  0.17278565429E+03 0.  0.
         24    2    3    3    0    0  0.14236908894E+02  0.69024770017E+02 -0.37386998945E+03  0.38856175125E+03  0.78957944972E+02 0.  0.
         -6    2    1    2    0  502  0.36039712860E+02 -0.19809416793E+02 -0.16602529719E+03  0.24199380401E+03  0.17118799016E+03 0.  0.
        -24    2    5    5    0    0 -0.73249089017E+00  0.53519916113E+02 -0.89640879210E+02  0.12980621404E+03  0.77131368547E+02 0.  0.
          5    1    3    3  501    0 -0.50276621754E+02 -0.49215353224E+02 -0.19271034176E+03  0.20520539834E+03  0.47000000000E+01 0. -1.
        -11    1    4    4    0    0  0.37954341839E+02  0.59165502709E+01 -0.13776518565E+03  0.14302022238E+03  0.00000000000E+00 0.  1.
         12    1    4    4    0    0 -0.23717432946E+02  0.63108219746E+02 -0.23610480380E+03  0.24554152887E+03  0.00000000000E+00 0. -1.
         -5    1    5    5    0  502  0.36772203750E+02 -0.73329332906E+02 -0.76384417980E+02  0.11218758997E+03  0.47000000000E+01 0.  1.
         13    1    6    6    0    0  0.30214813083E+02 -0.91886476562E+00 -0.38545772229E+02  0.48985261037E+02  0.00000000000E+00 0. -1.
        -14    1    6    6    0    0 -0.30947303974E+02  0.54438780879E+02 -0.51095106981E+02  0.80820953002E+02  0.00000000000E+00 0.  1.
</event>
<event>
12    1  0.8449700E-002  0.1767244E+03  0.7818608E-02  0.1171220E+00
         21   -1    0    0  501  502  0.00000000000E+00  0.00000000000E+00  0.15799011889E+04  0.15799011889E+04  0.00000000000E+00 0.  1.
         21   -1    0    0  502  503 -0.00000000000E+00 -0.00000000000E+00 -0.41890996765E+02  0.41890996765E+02  0.00000000000E+00 0.  1.
         -6    2    1    2    0  503  0.37408160503E+02  0.93769498563E+01  0.17760783457E+03  0.24995906692E+03  0.17160330584E+03 0.  0.
        -24    2    3    3    0    0  0.68097446757E+02  0.40067401330E+02  0.17349839841E+03  0.20611030904E+03  0.78339685583E+02 0.  0.
          6    2    1    2  501    0 -0.37408160503E+02 -0.93769498563E+01  0.13604023575E+04  0.13718331187E+04  0.17246516617E+03 0.  0.
         24    2    5    5    0    0 -0.77451761138E+02 -0.45584559153E+02  0.10308438340E+04  0.10378490003E+04  0.80092508818E+02 0.  0.
          5    1    5    5  501    0  0.40043600636E+02  0.36207609296E+02  0.32955852356E+03  0.33398411845E+03  0.47000000000E+01 0. -1.
        -13    1    6    6    0    0 -0.41947344691E+02  0.16560489792E+02  0.28084641572E+03  0.28444426303E+03  0.00000000000E+00 0.  1.
         14    1    6    6    0    0 -0.35504416447E+02 -0.62145048945E+02  0.74999741824E+03  0.75340473722E+03  0.00000000000E+00 0. -1.
         -5    1    3    3    0  503 -0.30689286254E+02 -0.30690451473E+02  0.41094361570E+01  0.43848757884E+02  0.47000000000E+01 0.  1.
         11    1    4    4    0    0  0.51151214159E+00  0.16243749652E+02  0.10739041981E+03  0.10861318205E+03  0.00000000000E+00 0. -1.
        -12    1    4    4    0    0  0.67585934615E+02  0.23823651678E+02  0.66107978600E+02  0.97497126992E+02  0.00000000000E+00 0.  1.
</event>
<event>
12    1  0.8449700E-002  0.2076040E+03  0.7818608E-02  0.1143968E+00
         21   -1    0    0  501  502  0.00000000000E+00  0.00000000000E+00  0.81593953221E+02  0.81593953221E+02  0.00000000000E+00 0.  1.
         21   -1    0    0  502  503 -0.00000000000E+00 -0.00000000000E+00 -0.52405232401E+03  0.52405232401E+03  0.00000000000E+00 0.  1.
         -6    2    1    2    0  503  0.52250363744E+02  0.10116246595E+03 -0.24117551470E+03  0.31822172233E+03  0.17359576792E+03 0.  0.
        -24    2    3    3    0    0  0.96846206464E+02  0.53414661656E+02 -0.19466728655E+03  0.23788650409E+03  0.80388572519E+02 0.  0.
          6    2    1    2  501    0 -0.52250363744E+02 -0.10116246595E+03 -0.20128285608E+03  0.28742455490E+03  0.17068726250E+03 0.  0.
         24    2    5    5    0    0 -0.93432105379E+02 -0.89945863459E+02 -0.18855866570E+03  0.24263903228E+03  0.80619556606E+02 0.  0.
          5    1    5    5  501    0  0.41181741634E+02 -0.11216602489E+02 -0.12724190386E+02  0.44785522621E+02  0.47000000000E+01 0. -1.
        -13    1    6    6    0    0 -0.48991653440E+02 -0.61051519139E+02 -0.46582330533E+02  0.91089975375E+02  0.00000000000E+00 0.  1.
         14    1    6    6    0    0 -0.44440451939E+02 -0.28894344321E+02 -0.14197633516E+03  0.15154905690E+03  0.00000000000E+00 0. -1.
         -5    1    3    3    0  503 -0.44595842719E+02  0.47747804293E+02 -0.46508228154E+02  0.80335218234E+02  0.47000000000E+01 0.  1.
         11    1    4    4    0    0 -0.81730878575E+01  0.14788844546E+02 -0.49135264764E+01  0.17596932419E+02  0.00000000000E+00 0. -1.
        -12    1    4    4    0    0  0.10501929432E+03  0.38625817109E+02 -0.18975376007E+03  0.22028957167E+03  0.00000000000E+00 0.  1.
</event>
<event>
12    1  0.8449700E-002  0.1719862E+03  0.7818608E-02  0.1176502E+00
         21   -1    0    0  501  502  0.00000000000E+00  0.00000000000E+00  0.29320524253E+02  0.29320524253E+02  0.00000000000E+00 0.  1.
         21   -1    0    0  502  503 -0.00000000000E+00 -0.00000000000E+00 -0.11235724982E+04  0.11235724982E+04  0.00000000000E+00 0.  1.
         -6    2    1    2    0  503  0.78248633961E+01  0.12392914810E+01 -0.73988921796E+03  0.75899936154E+03  0.16905978715E+03 0.  0.
        -24    2    3    3    0    0 -0.56959794054E+02 -0.18988410081E+02 -0.36501591189E+03  0.37800290834E+03  0.77747057301E+02 0.  0.
          6    2    1    2  501    0 -0.78248633961E+01 -0.12392914810E+01 -0.35436275603E+03  0.39389366096E+03  0.17180363486E+03 0.  0.
         24    2    5    5    0    0  0.25607956740E+02 -0.28632632303E+02 -0.91571629804E+02  0.12753034778E+03  0.80018942376E+02 0.  0.
          5    1    5    5  501    0 -0.33432820136E+02  0.27393340822E+02 -0.26279112623E+03  0.26636331318E+03  0.47000000000E+01 0. -1.
        -11    1    6    6    0    0  0.29483747755E+02  0.22604160390E+02 -0.42960766897E+02  0.56796715935E+02  0.00000000000E+00 0.  1.
         12    1    6    6    0    0 -0.38757910150E+01 -0.51236792693E+02 -0.48610862906E+02  0.70733631845E+02  0.00000000000E+00 0. -1.
         -5    1    3    3    0  503  0.64784657450E+02  0.20227701562E+02 -0.37487330606E+03  0.38099645320E+03  0.47000000000E+01 0.  1.
         13    1    4    4    0    0 -0.37676111092E+02 -0.41776191383E+02 -0.31312187552E+03  0.31813526752E+03  0.00000000000E+00 0. -1.
        -14    1    4    4    0    0 -0.19283682961E+02  0.22787781302E+02 -0.51894036373E+02  0.59867640811E+02  0.00000000000E+00 0.  1.
</event>
<event>
12    1  0.8449700E-002  0.2203881E+03  0.7818608E-02  0.1133614E+00
         21   -1    0    0  501  502  0.00000000000E+00  0.00000000000E+00  0.75786689155E+03  0.75786689155E+03  0.00000000000E+00 0. -1.
         21   -1    0    0  502  503 -0.00000000000E+00 -0.00000000000E+00 -0.64091775400E+02  0.64091775400E+02  0.00000000000E+00 0. -1.
         -6    2    1    2    0  503  0.77423990481E+02 -0.11278399618E+03  0.35641732088E+03  0.41905157916E+03  0.17278951149E+03 0.  0.
        -24    2    3    3    0    0  0.14295946954E+02  0.83751881272E+01  0.77100460846E+02  0.10807779229E+03  0.73904061114E+02 0.  0.
          6    2    1    2  501    0 -0.77423990481E+02  0.11278399618E+03  0.33735779528E+03  0.40290708779E+03  0.17265322256E+03 0.  0.
         24    2    5    5    0    0 -0.24593767928E+02  0.32181855896E+02  0.27226015078E+03  0.28651322733E+03  0.79521786094E+02 0.  0.
          5    1    5    5  501    0 -0.52830222552E+02  0.80602140287E+02  0.65097644500E+02  0.11639386046E+03  0.47000000000E+01 0. -1.
        -13    1    6    6    0    0  0.25628194150E+02 -0.55517783369E+01  0.89224570458E+02  0.92998121226E+02  0.00000000000E+00 0.  1.
         14    1    6    6    0    0 -0.50221962079E+02  0.37733634233E+02  0.18303558032E+03  0.19351510610E+03  0.00000000000E+00 0. -1.
         -5    1    3    3    0  503  0.63128043526E+02 -0.12115918431E+03  0.27931686003E+03  0.31097378687E+03  0.47000000000E+01 0.  1.
         11    1    4    4    0    0  0.53114157992E+01 -0.25184634115E+02  0.25933403650E+01  0.25868945621E+02  0.00000000000E+00 0. -1.
        -12    1    4    4    0    0  0.89845311552E+01  0.33559822242E+02  0.74507120481E+02  0.82208846673E+02  0.00000000000E+00 0.  1.
</event>
<event>
12    1  0.8449700E-002  0.1832511E+03  0.7818608E-02  0.1164984E+00
         21   -1    0    0  503  502  0.00000000000E+00  0.00000000000E+00  0.11614075541E+03  0.11614075541E+03  0.00000000000E+00 0.  1.
         21   -1    0    0  501  503 -0.00000000000E+00 -0.00000000000E+00 -0.94163861127E+03  0.94163861127E+03  0.00000000000E+00 0. -1.
          6    2    1    2  501    0  0.53251544828E+01  0.60172316228E+02 -0.85408629171E+03  0.87352409387E+03  0.17300833498E+03 0.  0.
         24    2    3    3    0    0 -0.18821126649E+01 -0.12422637282E+02 -0.21767984378E+03  0.23293278192E+03  0.81946947724E+02 0.  0.
         -6    2    1    2    0  502 -0.53251544828E+01 -0.60172316228E+02  0.28588435850E+02  0.18425527280E+03  0.17170801373E+03 0.  0.
        -24    2    5    5    0    0  0.53103073687E+01 -0.87143675266E+01 -0.46206082632E+02  0.92727443545E+02  0.79744825214E+02 0.  0.
          5    1    3    3  501    0  0.72072671477E+01  0.72594953510E+02 -0.63640644793E+03  0.64059131195E+03  0.47000000000E+01 0. -1.
        -13    1    4    4    0    0 -0.37185534186E+02 -0.24867587768E+02 -0.13378058799E+03  0.14106171201E+03  0.00000000000E+00 0.  1.
         14    1    4    4    0    0  0.35303421521E+02  0.12444950486E+02 -0.83899255793E+02  0.91871069910E+02  0.00000000000E+00 0. -1.
         -5    1    5    5    0  502 -0.10635461851E+02 -0.51457948701E+02  0.74794518482E+02  0.91527829256E+02  0.47000000000E+01 0.  1.
         13    1    6    6    0    0  0.38980164778E+02  0.35781033875E+01 -0.72852020080E+01  0.39816205725E+02  0.00000000000E+00 0. -1.
        -14    1    6    6    0    0 -0.33669857410E+02 -0.12292470914E+02 -0.38920880624E+02  0.52911237821E+02  0.00000000000E+00 0.  1.
</event>
<event>
12    1  0.8449700E-002  0.1824179E+03  0.7818608E-02  0.1165554E+00
         21   -1    0    0  501  502  0.00000000000E+00  0.00000000000E+00  0.20293717790E+02  0.20293717790E+02  0.00000000000E+00 0.  1.
         21   -1    0    0  502  503 -0.00000000000E+00 -0.00000000000E+00 -0.16438606050E+04  0.16438606050E+04  0.00000000000E+00 0.  1.
         -6    2    1    2    0  503  0.28964364650E+02 -0.52807409195E+02 -0.86460312665E+03  0.88357615479E+03  0.17187407545E+03 0.  0.
        -24    2    3    3    0    0  0.44322485942E+02 -0.94824196483E+02 -0.72921764143E+03  0.74091360920E+03  0.78984154975E+02 0.  0.
          6    2    1    2  501    0 -0.28964364650E+02  0.52807409195E+02 -0.75896376056E+03  0.78057816800E+03  0.17218806471E+03 0.  0.
         24    2    5    5    0    0  0.91741936354E+01 -0.15083557011E+02 -0.18474116473E+03  0.20108061625E+03  0.77410831062E+02 0.  0.
          5    1    5    5  501    0 -0.38138558286E+02  0.67890966206E+02 -0.57422259583E+03  0.57949755175E+03  0.47000000000E+01 0. -1.
        -13    1    6    6    0    0  0.13244873058E+02  0.28435647066E+02 -0.11111067928E+03  0.11545386843E+03  0.00000000000E+00 0.  1.
         14    1    6    6    0    0 -0.40706794229E+01 -0.43519204077E+02 -0.73630485457E+02  0.85626747824E+02  0.00000000000E+00 0. -1.
         -5    1    3    3    0  503 -0.15358121292E+02  0.42016787288E+02 -0.13538548523E+03  0.14266254559E+03  0.47000000000E+01 0.  1.
         13    1    4    4    0    0  0.51101105418E+02 -0.66049473601E+02 -0.32297039457E+03  0.33359216374E+03  0.00000000000E+00 0. -1.
        -14    1    4    4    0    0 -0.67786194753E+01 -0.28774722882E+02 -0.40624724686E+03  0.40732144547E+03  0.00000000000E+00 0.  1.
</event>
<event>
12    1  0.8449700E-002  0.1806189E+03  0.7818608E-02  0.1167315E+00
         21   -1    0    0  503  502  0.00000000000E+00  0.00000000000E+00  0.41340046479E+03  0.41340046479E+03  0.00000000000E+00 0.  1.
         21   -1    0    0  501  503 -0.00000000000E+00 -0.00000000000E+00 -0.88579994704E+02  0.88579994704E+02  0.00000000000E+00 0.  1.
          6    2    1    2  501    0  0.23267009972E+02  0.48477842070E+02  0.78835660192E+02  0.19707424177E+03  0.17242894341E+03 0.  0.
         24    2    3    3    0    0  0.79401686845E+01 -0.38702084132E+02  0.69161932098E+01  0.82926305621E+02  0.72581270590E+02 0.  0.
         -6    2    1    2    0  502 -0.23267009972E+02 -0.48477842070E+02  0.24598480990E+03  0.30490621772E+03  0.17195295863E+03 0.  0.
        -24    2    5    5    0    0  0.26223207700E+02 -0.62967143201E+02  0.22617577049E+03  0.24946517215E+03  0.80155319300E+02 0.  0.
          5    1    3    3  501    0  0.15326841287E+02  0.87179926202E+02  0.71919466982E+02  0.11414793615E+03  0.47000000000E+01 0. -1.
        -13    1    4    4    0    0 -0.67588623187E+01  0.59989031209E+01 -0.24656162061E+02  0.26260148250E+02  0.00000000000E+00 0.  1.
         14    1    4    4    0    0  0.14699031003E+02 -0.44700987253E+02  0.31572355271E+02  0.56666157371E+02  0.00000000000E+00 0. -1.
         -5    1    5    5    0  502 -0.49490217672E+02  0.14489301131E+02  0.19809039403E+02  0.55441045576E+02  0.47000000000E+01 0.  1.
         11    1    6    6    0    0  0.22490451803E+02 -0.23950004417E+02  0.17665027850E+02  0.37302497809E+02  0.00000000000E+00 0. -1.
        -12    1    6    6    0    0  0.37327558974E+01 -0.39017138784E+02  0.20851074264E+03  0.21216267434E+03  0.00000000000E+00 0.  1.
</event>
<event>
12    1  0.8449700E-002  0.1766735E+03  0.7818608E-02  0.1171419E+00
         21   -1    0    0  503  502  0.00000000000E+00  0.00000000000E+00  0.67290878718E+03  0.67290878718E+03  0.00000000000E+00 0. -1.
         21   -1    0    0  501  503 -0.00000000000E+00 -0.00000000000E+00 -0.60048764758E+02  0.60048764758E+02  0.00000000000E+00 0. -1.
          6    2    1    2  501    0 -0.29111814806E+02  0.28497087525E+01  0.12827466288E+03  0.21717029835E+03  0.17278000679E+03 0.  0.
         24    2    3    3    0    0 -0.13493215604E+02  0.40353626212E+02  0.96927578141E+01  0.91734088766E+02  0.80688979866E+02 0.  0.
         -6    2    1    2    0  502  0.29111814806E+02 -0.28497087525E+01  0.48458535954E+03  0.51578725359E+03  0.17423519070E+03 0.  0.
        -24    2    5    5    0    0 -0.35352405860E+02 -0.27561775548E+02  0.15154809563E+03  0.17563694689E+03  0.76629418324E+02 0.  0.
          5    1    3    3  501    0 -0.15618599202E+02 -0.37503917460E+02  0.11858190506E+03  0.12543620958E+03  0.47000000000E+01 0. -1.
        -13    1    4    4    0    0 -0.40291792118E+02  0.25083074386E+01  0.18706729139E+02  0.44493390895E+02  0.00000000000E+00 0.  1.
         14    1    4    4    0    0  0.26798576514E+02  0.37845318774E+02 -0.90139713245E+01  0.47240697870E+02  0.00000000000E+00 0. -1.
         -5    1    5    5    0  502  0.64464220667E+02  0.24712066795E+02  0.33303726391E+03  0.34015030669E+03  0.47000000000E+01 0.  1.
         11    1    6    6    0    0 -0.54725670859E+00  0.10295662047E+02  0.10730343539E+03  0.10779762239E+03  0.00000000000E+00 0. -1.
        -12    1    6    6    0    0 -0.34805149152E+02 -0.37857437595E+02  0.44244660242E+02  0.67839324500E+02  0.00000000000E+00 0.  1.
</event>
<event>
12    1  0.8449700E-002  0.2223424E+03  0.7818608E-02  0.1132154E+00
         21   -1    0    0  501  502  0.00000000000E+00  0.00000000000E+00  0.43499773408E+03  0.43499773408E+03  0.00000000000E+00 0. -1.
         21   -1    0    0  502  503 -0.00000000000E+00 -0.00000000000E+00 -0.11369162460E+03  0.11369162460E+03  0.00000000000E+00 0. -1.
         -6    2    1    2    0  503  0.13975166132E+03  0.24628222987E+02  0.15434902451E+03  0.27066539609E+03  0.17116967917E+03 0.  0.
        -24    2    3    3    0    0  0.13475226417E+03  0.69055244068E+02  0.14732829772E+03  0.22516666228E+03  0.77894794826E+02 0.  0.
          6    2    1    2  501    0 -0.13975166132E+03 -0.24628222987E+02  0.16695708497E+03  0.27802396259E+03  0.17113029931E+03 0.  0.
         24    2    5    5    0    0 -0.12984220836E+03  0.27342431998E+02  0.79704256124E+02  0.17587557846E+03  0.83503550802E+02 0.  0.
          5    1    5    5  501    0 -0.99094529631E+01 -0.51970654985E+02  0.87252828847E+02  0.10214838413E+03  0.47000000000E+01 0. -1.
        -13    1    6    6    0    0  0.10248683614E+01 -0.12759712911E+02 -0.62560571857E+01  0.14247767553E+02  0.00000000000E+00 0.  1.
         14    1    6    6    0    0 -0.13086707672E+03  0.40102144909E+02  0.85960313310E+02  0.16162781091E+03  0.00000000000E+00 0. -1.
         -5    1    3    3    0  503  0.49993971457E+01 -0.44427021080E+02  0.70207267958E+01  0.45498733814E+02  0.47000000000E+01 0.  1.
         11    1    4    4    0    0  0.10174937076E+03  0.96263508348E+01  0.84762067580E+02  0.13277879794E+03  0.00000000000E+00 0. -1.
        -12    1    4    4    0    0  0.33002893410E+02  0.59428893233E+02  0.62566230137E+02  0.92387864343E+02  0.00000000000E+00 0.  1.
</event>
<event>
12    1  0.8449700E-002  0.1736354E+03  0.7818608E-02  0.1174191E+00
         21   -1    0    0  501  502  0.00000000000E+00  0.00000000000E+00  0.87085495067E+02  0.87085495067E+02  0.00000000000E+00 0.  1.
         21   -1    0    0  502  503 -0.00000000000E+00 -0.00000000000E+00 -0.34555633020E+03  0.34555633020E+03  0.00000000000E+00 0.  1.
         -6    2    1    2    0  503 -0.27647089706E+02  0.16008714021E+02 -0.12918030471E+03  0.21615792013E+03  0.17034099570E+03 0.  0.
        -24    2    3    3    0    0 -0.16618125475E+02  0.76415210697E+02 -0.42355342839E+02  0.10970959043E+03  0.64239961428E+02 0.  0.
          6    2    1    2  501    0  0.27647089706E+02 -0.16008714021E+02 -0.12929053043E+03  0.21648390514E+03  0.17067102693E+03 0.  0.
         24    2    5    5    0    0  0.83255457606E+02  0.29645773641E+01 -0.73834191082E+02  0.13555324383E+03  0.77349429220E+02 0.  0.
          5    1    5    5  501    0 -0.55608367901E+02 -0.18973291386E+02 -0.55456339347E+02  0.80930661311E+02  0.47000000000E+01 0. -1.
        -13    1    6    6    0    0 -0.82321983829E+01  0.14572693518E+02  0.10321433756E+01  0.16768953650E+02  0.00000000000E+00 0.  1.
         14    1    6    6    0    0  0.91487655989E+02 -0.11608116154E+02 -0.74866334457E+02  0.11878429018E+03  0.00000000000E+00 0. -1.
         -5    1    3    3    0  503 -0.11028964231E+02 -0.60406496675E+02 -0.86824961869E+02  0.10644832970E+03  0.47000000000E+01 0.  1.
         13    1    4    4    0    0  0.22836859863E+02  0.34547260125E+02 -0.29265158147E+02  0.50709810017E+02  0.00000000000E+00 0. -1.
        -14    1    4    4    0    0 -0.39454985337E+02  0.41867950571E+02 -0.13090184692E+02  0.58999780409E+02  0.00000000000E+00 0.  1.
</event>
<event>
12    1  0.8449700E-002  0.1770147E+03  0.7818608E-02  0.1171575E+00
         21   -1    0    0  501  502  0.00000000000E+00  0.00000000000E+00  0.89021710687E+02  0.89021710687E+02  0.00000000000E+00 0. -1.
         21   -1    0    0  502  503 -0.00000000000E+00 -0.00000000000E+00 -0.82537570214E+03  0.82537570214E+03  0.00000000000E+00 0. -1.
         -6    2    1    2    0  503 -0.36606177489E+02  0.21257388861E+02 -0.71837357826E+03  0.73986134583E+03  0.17187880700E+03 0.  0.
        -24    2    3    3    0    0 -0.72818357579E+02 -0.31206549532E+02 -0.44594299042E+03  0.46003228727E+03  0.80549318420E+02 0.  0.
          6    2    1    2  501    0  0.36606177489E+02 -0.21257388861E+02 -0.17980413185E+02  0.17453606699E+03  0.16836761747E+03 0.  0.
         24    2    5    5    0    0  0.40928547429E+02 -0.63629324894E+02  0.27204588161E+02  0.11226377627E+03  0.78353231360E+02 0.  0.
          5    1    5    5  501    0 -0.43223699402E+01  0.42371936033E+02 -0.45185001347E+02  0.62272290722E+02  0.47000000000E+01 0. -1.
        -13    1    6    6    0    0 -0.14386345661E+02 -0.19628730282E+02 -0.16278224222E+02  0.29278568574E+02  0.00000000000E+00 0.  1.
         14    1    6    6    0    0  0.55314893090E+02 -0.44000594612E+02  0.43482812383E+02  0.82985207697E+02  0.00000000000E+00 0. -1.
         -5    1    3    3    0  503  0.36212180091E+02  0.52463938393E+02 -0.27243058785E+03  0.27982905856E+03  0.47000000000E+01 0.  1.
         13    1    4    4    0    0 -0.68031678932E+02 -0.11039548837E+02 -0.42505194994E+03  0.43060346158E+03  0.00000000000E+00 0. -1.
        -14    1    4    4    0    0 -0.47866786478E+01 -0.20167000695E+02 -0.20891040479E+02  0.29428825695E+02  0.00000000000E+00 0.  1.
</event>
<event>
12    1  0.8449700E-002  0.3799654E+03  0.7818608E-02  0.1050965E+00
         21   -1    0    0  501  502  0.00000000000E+00  0.00000000000E+00  0.77903206752E+03  0.77903206752E+03  0.00000000000E+00 0.  1.
         21   -1    0    0  502  503 -0.00000000000E+00 -0.00000000000E+00 -0.33608218586E+03  0.33608218586E+03  0.00000000000E+00 0.  1.
         -6    2    1    2    0  503 -0.25167568272E+03  0.22592861207E+03 -0.15203996961E+03  0.40925524878E+03  0.17317424540E+03 0.  0.
        -24    2    3    3    0    0 -0.10078501995E+03  0.11372552994E+03 -0.72844226890E+01  0.17190786178E+03  0.80050819622E+02 0.  0.
          6    2    1    2  501    0  0.25167568272E+03 -0.22592861207E+03  0.59498985127E+03  0.70585900460E+03  0.17274149541E+03 0.  0.
         24    2    5    5    0    0  0.56094383627E+02 -0.34599073208E+02  0.20426789858E+03  0.22884247312E+03  0.79371451856E+02 0.  0.
          5    1    5    5  501    0  0.19558129909E+03 -0.19132953886E+03  0.39072195269E+03  0.47701653148E+03  0.47000000000E+01 0. -1.
        -11    1    6    6    0    0  0.74002118870E+02 -0.40226109747E+02  0.16178871586E+03  0.18240077325E+03  0.00000000000E+00 0.  1.
         12    1    6    6    0    0 -0.17907735243E+02  0.56270365395E+01  0.42479182719E+02  0.46441699864E+02  0.00000000000E+00 0. -1.
         -5    1    3    3    0  503 -0.15089066276E+03  0.11220308213E+03 -0.14475554692E+03  0.23734738700E+03  0.47000000000E+01 0.  1.
         13    1    4    4    0    0 -0.88799447486E+02  0.42277393748E+02  0.47689680873E+01  0.98465541955E+02  0.00000000000E+00 0. -1.
        -14    1    4    4    0    0 -0.11985572467E+02  0.71448136191E+02 -0.12053390776E+02  0.73442319828E+02  0.00000000000E+00 0.  1.
</event>
<event>
12    1  0.8449700E-002  0.2466803E+03  0.7818608E-02  0.1116883E+00
         21   -1    0    0  503  502  0.00000000000E+00  0.00000000000E+00  0.33478289907E+04  0.33478289907E+04  0.00000000000E+00 0.  1.
         21   -1    0    0  501  503 -0.00000000000E+00 -0.00000000000E+00 -0.24169539220E+02  0.24169539220E+02  0.00000000000E+00 0. -1.
          6    2    1    2  501    0  0.13778086428E+03  0.10733931705E+03  0.80012031038E+03  0.83728349981E+03  0.17420060972E+03 0.  0.
         24    2    3    3    0    0  0.10200210079E+02  0.41408807617E+02  0.44646052296E+03  0.45554931135E+03  0.79871414646E+02 0.  0.
         -6    2    1    2    0  502 -0.13778086428E+03 -0.10733931705E+03  0.25235391411E+04  0.25347150301E+04  0.16132325204E+03 0.  0.
        -24    2    5    5    0    0 -0.13530552150E+03 -0.13388185860E+03  0.20430731594E+04  0.20534871388E+04  0.80184526027E+02 0.  0.
          5    1    3    3  501    0  0.12758065420E+03  0.65930509431E+02  0.35365978742E+03  0.38173418846E+03  0.47000000000E+01 0. -1.
        -11    1    4    4    0    0  0.18612713894E+02  0.60456323111E+02  0.24571452235E+03  0.25372628286E+03  0.00000000000E+00 0.  1.
         12    1    4    4    0    0 -0.84125038146E+01 -0.19047515494E+02  0.20074600061E+03  0.20182302849E+03  0.00000000000E+00 0. -1.
         -5    1    5    5    0  502 -0.24753427834E+01  0.26542541551E+02  0.48046598161E+03  0.48122789126E+03  0.47000000000E+01 0.  1.
         13    1    6    6    0    0 -0.82165976320E+02 -0.60728854261E+02  0.70532465832E+03  0.71268654753E+03  0.00000000000E+00 0. -1.
        -14    1    6    6    0    0 -0.53139545179E+02 -0.73153004338E+02  0.13377485011E+04  0.13408005913E+04  0.00000000000E+00 0.  1.
</event>
<event>
12    1  0.8449700E-002  0.2068768E+03  0.7818608E-02  0.1144532E+00
         21   -1    0    0  503  502  0.00000000000E+00  0.00000000000E+00  0.16401902516E+03  0.16401902516E+03  0.00000000000E+00 0. -1.
         21   -1    0    0  501  503 -0.00000000000E+00 -0.00000000000E+00 -0.55888731064E+03  0.55888731064E+03  0.00000000000E+00 0.  1.
          6    2    1    2  501    0  0.11404912769E+03 -0.28837121654E+01 -0.46211846505E+03  0.50537335224E+03  0.16980350435E+03 0.  0.
         24    2    3    3    0    0  0.13945103251E+03 -0.32349512175E+02 -0.39376173318E+03  0.42658107514E+03  0.80187466237E+02 0.  0.
         -6    2    1    2    0  502 -0.11404912769E+03  0.28837121654E+01  0.67250179571E+02  0.21753298356E+03  0.17257604979E+03 0.  0.
        -24    2    5    5    0    0 -0.67943807693E+02  0.60719055888E+02  0.72449336731E+02  0.14323797195E+03  0.83456847914E+02 0.  0.
          5    1    3    3  501    0 -0.25401904824E+02  0.29465800010E+02 -0.68356731864E+02  0.78792277096E+02  0.47000000000E+01 0. -1.
        -11    1    4    4    0    0  0.30668081183E+01 -0.24220200979E+02 -0.94564611201E+02  0.97665188983E+02  0.00000000000E+00 0.  1.
         12    1    4    4    0    0  0.13638422439E+03 -0.81293111964E+01 -0.29919712198E+03  0.32891588616E+03  0.00000000000E+00 0. -1.
         -5    1    5    5    0  502 -0.46105319995E+02 -0.57835343722E+02 -0.51991571594E+01  0.74295011612E+02  0.47000000000E+01 0.  1.
         11    1    6    6    0    0  0.57758305020E+01  0.34361129648E+02  0.51524530445E+02  0.62199876899E+02  0.00000000000E+00 0. -1.
        -12    1    6    6    0    0 -0.73719638195E+02  0.26357926240E+02  0.20924806286E+02  0.81038095050E+02  0.00000000000E+00 0.  1.
</event>
<event>
12    1  0.8449700E-002  0.1998705E+03  0.7818608E-02  0.1149974E+00
         21   -1    0    0  503  502  0.00000000000E+00  0.00000000000E+00  0.75011056180E+03  0.75011056180E+03  0.00000000000E+00 0.  1.
         21   -1    0    0  501  503 -0.00000000000E+00 -0.00000000000E+00 -0.53726513820E+02  0.53726513820E+02  0.00000000000E+00 0.  1.
          6    2    1    2  501    0 -0.69986295981E+02 -0.74243443143E+02  0.39217474362E+03  0.44016957815E+03  0.17186639441E+03 0.  0.
         24    2    3    3    0    0 -0.20364112415E+02 -0.94135929245E+02  0.16835688581E+03  0.21000747098E+03  0.80516002252E+02 0.  0.
         -6    2    1    2    0  502  0.69986295981E+02  0.74243443143E+02  0.30420930436E+03  0.36366749746E+03  0.17117411422E+03 0.  0.
        -24    2    5    5    0    0  0.93550659502E+02  0.13095750332E+02  0.24821816246E+03  0.27734590379E+03  0.79907881962E+02 0.  0.
          5    1    3    3  501    0 -0.49622183566E+02  0.19892486103E+02  0.22381785780E+03  0.23016210717E+03  0.47000000000E+01 0. -1.
        -11    1    4    4    0    0  0.44574039827E+01 -0.78718950262E+02  0.16190684669E+03  0.18008433742E+03  0.00000000000E+00 0.  1.
         12    1    4    4    0    0 -0.24821516397E+02 -0.15416978984E+02  0.64500391226E+01  0.29923133558E+02  0.00000000000E+00 0. -1.
         -5    1    5    5    0  502 -0.23564363522E+02  0.61147692811E+02  0.55991141896E+02  0.86321593678E+02  0.47000000000E+01 0.  1.
         13    1    6    6    0    0  0.17696839754E+02 -0.26493653770E+02  0.11235176961E+03  0.11678189912E+03  0.00000000000E+00 0. -1.
        -14    1    6    6    0    0  0.75853819748E+02  0.39589404102E+02  0.13586639286E+03  0.16056400467E+03  0.00000000000E+00 0.  1.
</event>
<event>
12    1  0.8449700E-002  0.2126656E+03  0.7818608E-02  0.1139850E+00
         21   -1    0    0  501  502  0.00000000000E+00  0.00000000000E+00  0.37851419874E+03  0.37851419874E+03  0.00000000000E+00 0.  1.
         21   -1    0    0  502  503 -0.00000000000E+00 -0.00000000000E+00 -0.16268585180E+03  0.16268585180E+03  0.00000000000E+00 0.  1.
         -6    2    1    2    0  503 -0.27161326507E+02 -0.12093673150E+03 -0.33624165429E+02  0.21339946330E+03  0.17042686335E+03 0.  0.
        -24    2    3    3    0    0 -0.21756470579E+02 -0.40599507334E+02  0.43051275684E+02  0.10211381587E+03  0.80325307625E+02 0.  0.
          6    2    1    2  501    0  0.27161326507E+02  0.12093673150E+03  0.24945251237E+03  0.32780058725E+03  0.17280983303E+03 0.  0.
         24    2    5    5    0    0  0.30309092395E+02  0.14750184450E+03  0.15879237166E+03  0.23315934481E+03  0.80453884685E+02 0.  0.
          5    1    5    5  501    0 -0.31477658885E+01 -0.26565112999E+02  0.90660140707E+02  0.94641242446E+02  0.47000000000E+01 0. -1.
        -11    1    6    6    0    0  0.17535545614E+01  0.37207596081E+02 -0.57797573171E+00  0.37253378580E+02  0.00000000000E+00 0.  1.
         12    1    6    6    0    0  0.28555537834E+02  0.11029424842E+03  0.15937034739E+03  0.19590596623E+03  0.00000000000E+00 0. -1.
         -5    1    3    3    0  503 -0.54048559279E+01 -0.80337224164E+02 -0.76675441113E+02  0.11128564743E+03  0.47000000000E+01 0.  1.
         13    1    4    4    0    0 -0.36160132812E+02  0.62503050772E+01 -0.27242653620E+00  0.36697353239E+02  0.00000000000E+00 0. -1.
        -14    1    4    4    0    0  0.14403662233E+02 -0.46849812411E+02  0.43323702220E+02  0.65416462628E+02  0.00000000000E+00 0.  1.
</event>
<event>
12    1  0.8449700E-002  0.1877085E+03  0.7818608E-02  0.1161134E+00
         21   -1    0    0  501  502  0.00000000000E+00  0.00000000000E+00  0.46750843201E+02  0.46750843201E+02  0.00000000000E+00 0.  1.
         21   -1    0    0  502  503 -0.00000000000E+00 -0.00000000000E+00 -0.95911326412E+03  0.95911326412E+03  0.00000000000E+00 0. -1.
         -6    2    1    2    0  503  0.24961264988E+02 -0.67827963274E+02 -0.69224274336E+03  0.71657680099E+03  0.17046582834E+03 0.  0.
        -24    2    3    3    0    0  0.78844216272E+02 -0.52078104065E+02 -0.35805669919E+03  0.37767588239E+03  0.74201974015E+02 0.  0.
          6    2    1    2  501    0 -0.24961264988E+02  0.67827963274E+02 -0.22011967756E+03  0.28928730633E+03  0.17323618503E+03 0.  0.
         24    2    5    5    0    0 -0.31439477972E+02 -0.20550543767E+02 -0.15693515804E+03  0.18035108069E+03  0.80542553056E+02 0.  0.
          5    1    5    5  501    0  0.64782129837E+01  0.88378507041E+02 -0.63184519523E+02  0.10893622564E+03  0.47000000000E+01 0. -1.
        -11    1    6    6    0    0 -0.12959252956E+02  0.14496750650E+02 -0.10102434677E+01  0.19470968349E+02  0.00000000000E+00 0.  1.
         12    1    6    6    0    0 -0.18480225016E+02 -0.35047294417E+02 -0.15592491457E+03  0.16088011234E+03  0.00000000000E+00 0. -1.
         -5    1    3    3    0  503 -0.53882951283E+02 -0.15749859209E+02 -0.33418604418E+03  0.33890091860E+03  0.47000000000E+01 0.  1.
         11    1    4    4    0    0 -0.12670156534E+02 -0.29624676373E+01 -0.75970016365E+02  0.77076276944E+02  0.00000000000E+00 0. -1.
        -12    1    4    4    0    0  0.91514372805E+02 -0.49115636428E+02 -0.28208668282E+03  0.30059960545E+03  0.00000000000E+00 0.  1.
</event>
<event>
12    1  0.8449700E-002  0.1774434E+03  0.7818608E-02  0.1170346E+00
         21   -1    0    0  503  502  0.00000000000E+00  0.00000000000E+00  0.27508343617E+03  0.27508343617E+03  0.00000000000E+00 0.  1.
         21   -1    0    0  501  503 -0.00000000000E+00 -0.00000000000E+00 -0.25255494615E+03  0.25255494615E+03  0.00000000000E+00 0.  1.
          6    2    1    2  501    0 -0.28956706145E+02  0.29321590037E+02 -0.18389892451E+03  0.25554837089E+03  0.17259174068E+03 0.  0.
         24    2    3    3    0    0  0.27179058585E+02 -0.13163928039E+02 -0.15931170639E+03  0.18082980142E+03  0.80045031455E+02 0.  0.
         -6    2    1    2    0  502  0.28956706145E+02 -0.29321590037E+02  0.20642741454E+03  0.27209001143E+03  0.17240200223E+03 0.  0.
        -24    2    5    5    0    0  0.14507773633E+02  0.20434285869E+02  0.20362319246E+03  0.21999037132E+03  0.79406066709E+02 0.  0.
          5    1    3    3  501    0 -0.56135764730E+02  0.42485518076E+02 -0.24587218119E+02  0.74718569465E+02  0.47000000000E+01 0. -1.
        -11    1    4    4    0    0 -0.92877104322E+01 -0.21996557986E+02 -0.83810284763E+01  0.25305172724E+02  0.00000000000E+00 0.  1.
         12    1    4    4    0    0  0.36466769018E+02  0.88326299464E+01 -0.15093067792E+03  0.15552462870E+03  0.00000000000E+00 0. -1.
         -5    1    5    5    0  502  0.14448932511E+02 -0.49755875906E+02  0.28042220739E+01  0.52099640108E+02  0.47000000000E+01 0.  1.
         11    1    6    6    0    0 -0.14268428379E+02  0.43736061656E+02  0.10455559527E+03  0.11422917158E+03  0.00000000000E+00 0. -1.
        -12    1    6    6    0    0  0.28776202012E+02 -0.23301775786E+02  0.99067597191E+02  0.10576119974E+03  0.00000000000E+00 0.  1.
</event>
<event>
12    1  0.8449700E-002  0.2202996E+03  0.7818608E-02  0.1135155E+00
         21   -1    0    0  501  502  0.00000000000E+00  0.00000000000E+00  0.15218998487E+03  0.15218998487E+03  0.00000000000E+00 0. -1.
         21   -1    0    0  502  503 -0.00000000000E+00 -0.00000000000E+00 -0.30765122071E+03  0.30765122071E+03  0.00000000000E+00 0. -1.
         -6    2    1    2    0  503 -0.88550930320E+02  0.88013446530E+02 -0.79621239515E+02  0.22685272693E+03  0.17185745228E+03 0.  0.
        -24    2    3    3    0    0 -0.71838946807E+02 -0.14280639389E+01 -0.82193274026E+02  0.13570570532E+03  0.80606640644E+02 0.  0.
          6    2    1    2  501    0  0.88550930320E+02 -0.88013446530E+02 -0.75839996324E+02  0.23298847864E+03  0.18150562554E+03 0.  0.
         24    2    5    5    0    0  0.94382683086E+01  0.21669178811E+02 -0.21198286709E+02  0.87053911032E+02  0.81057891951E+02 0.  0.
          5    1    5    5  501    0  0.79112662011E+02 -0.10968262534E+03 -0.54641709615E+02  0.14593456760E+03  0.47000000000E+01 0. -1.
        -13    1    6    6    0    0  0.30449422216E+02  0.22922491673E+02 -0.42514316550E+02  0.57097066908E+02  0.00000000000E+00 0.  1.
         14    1    6    6    0    0 -0.21011153908E+02 -0.12533128624E+01  0.21316029841E+02  0.29956844123E+02  0.00000000000E+00 0. -1.
         -5    1    3    3    0  503 -0.16711983513E+02  0.89441510469E+02  0.25720345108E+01  0.91147021616E+02  0.47000000000E+01 0.  1.
         13    1    4    4    0    0 -0.19569341625E+02  0.24882159896E+02 -0.68714540022E+02  0.75655594790E+02  0.00000000000E+00 0. -1.
        -14    1    4    4    0    0 -0.52269605181E+02 -0.26310223835E+02 -0.13478734005E+02  0.60050110528E+02  0.00000000000E+00 0.  1.
</event>
<event>
12    1  0.8449700E-002  0.2073385E+03  0.7818608E-02  0.1143882E+00
         21   -1    0    0  503  502  0.00000000000E+00  0.00000000000E+00  0.90496893808E+03  0.90496893808E+03  0.00000000000E+00 0.  1.
         21   -1    0    0  501  503 -0.00000000000E+00 -0.00000000000E+00 -0.48746945639E+02  0.48746945639E+02  0.00000000000E+00 0. -1.
          6    2    1    2  501    0  0.11023986112E+03 -0.24769166952E+02  0.34654813383E+03  0.40383767558E+03  0.17384740592E+03 0.  0.
         24    2    3    3    0    0  0.26886393541E+02  0.43942371385E+02  0.18246609008E+03  0.20733301116E+03  0.83900496581E+02 0.  0.
         -6    2    1    2    0  502 -0.11023986112E+03  0.24769166952E+02  0.50967385861E+03  0.54987820814E+03  0.17272018708E+03 0.  0.
        -24    2    5    5    0    0 -0.86332112865E+02  0.74827710993E+02  0.27662270936E+03  0.31026943028E+03  0.81820388609E+02 0.  0.
          5    1    3    3  501    0  0.83353467575E+02 -0.68711538337E+02  0.16408204375E+03  0.19650466442E+03  0.47000000000E+01 0. -1.
        -13    1    4    4    0    0  0.35919984820E+02  0.30173911320E+02  0.18483571113E+03  0.19069596310E+03  0.00000000000E+00 0.  1.
         14    1    4    4    0    0 -0.90335912789E+01  0.13768460065E+02 -0.23696210565E+01  0.16637048052E+02  0.00000000000E+00 0. -1.
         -5    1    5    5    0  502 -0.23907748252E+02 -0.50058544041E+02  0.23305114925E+03  0.23960877786E+03  0.47000000000E+01 0.  1.
         11    1    6    6    0    0 -0.63040825256E+01  0.45590839915E+02  0.49010105713E+02  0.67232853596E+02  0.00000000000E+00 0. -1.
        -12    1    6    6    0    0 -0.80028030339E+02  0.29236871078E+02  0.22761260364E+03  0.24303657669E+03  0.00000000000E+00 0.  1.
</event>
<event>
12    1  0.8449700E-002  0.2796540E+03  0.7818608E-02  0.1096264E+00
         21   -1    0    0  501  502  0.00000000000E+00  0.00000000000E+00  0.46802575246E+03  0.46802575246E+03  0.00000000000E+00 0. -1.
         21   -1    0    0  502  503 -0.00000000000E+00 -0.00000000000E+00 -0.28262235868E+03  0.28262235868E+03  0.00000000000E+00 0.  1.
         -6    2    1    2    0  503  0.11413516528E+03 -0.17632138996E+03 -0.14926202392E+03  0.31452050704E+03  0.18035500838E+03 0.  0.
        -24    2    3    3    0    0  0.27878632531E+02 -0.16892981311E+03 -0.87704744832E+02  0.20818982727E+03  0.79601394487E+02 0.  0.
          6    2    1    2  501    0 -0.11413516528E+03  0.17632138996E+03  0.33466541771E+03  0.43612760410E+03  0.18463552405E+03 0.  0.
         24    2    5    5    0    0 -0.84932935730E+02  0.85202750467E+02  0.82013980798E+02  0.16592357888E+03  0.79569018617E+02 0.  0.
          5    1    5    5  501    0 -0.29202229552E+02  0.91118639495E+02  0.25265143691E+03  0.27020402522E+03  0.47000000000E+01 0. -1.
        -13    1    6    6    0    0  0.10158914282E+02  0.14399276438E+01 -0.57643192473E+01  0.11768785298E+02  0.00000000000E+00 0.  1.
         14    1    6    6    0    0 -0.95091850012E+02  0.83762822823E+02  0.87778300045E+02  0.15415479358E+03  0.00000000000E+00 0. -1.
         -5    1    3    3    0  503  0.86256532751E+02 -0.73915768540E+01 -0.61557279092E+02  0.10633067977E+03  0.47000000000E+01 0.  1.
         13    1    4    4    0    0  0.36688535736E+02 -0.91142546480E+02 -0.11467319939E+02  0.98916691513E+02  0.00000000000E+00 0. -1.
        -14    1    4    4    0    0 -0.88099032047E+01 -0.77787266628E+02 -0.76237424892E+02  0.10927313576E+03  0.00000000000E+00 0.  1.
</event>
<event>
12    1  0.8449700E-002  0.2431117E+03  0.7818608E-02  0.1117770E+00
         21   -1    0    0  501  502  0.00000000000E+00  0.00000000000E+00  0.59841280312E+02  0.59841280312E+02  0.00000000000E+00 0.  1.
         21   -1    0    0  502  503 -0.00000000000E+00 -0.00000000000E+00 -0.99140765902E+03  0.99140765902E+03  0.00000000000E+00 0. -1.
         -6    2    1    2    0  503 -0.42572330375E+02 -0.16678279359E+03 -0.43038194145E+03  0.49429943004E+03  0.17168112143E+03 0.  0.
        -24    2    3    3    0    0 -0.11990620410E+02 -0.66487128773E+01 -0.11106019528E+03  0.13573753529E+03  0.76826630468E+02 0.  0.
          6    2    1    2  501    0  0.42572330375E+02  0.16678279359E+03 -0.50118443725E+03  0.55694950929E+03  0.17140015229E+03 0.  0.
         24    2    5    5    0    0 -0.29677182595E+02  0.46519302850E+02 -0.14813290705E+03  0.17701428809E+03  0.79661278761E+02 0.  0.
          5    1    5    5  501    0  0.72249512970E+02  0.12026349074E+03 -0.35305153020E+03  0.37993522120E+03  0.47000000000E+01 0. -1.
        -13    1    6    6    0    0  0.21578122365E+02  0.23488607481E+02 -0.21475553017E+02  0.38451650466E+02  0.00000000000E+00 0.  1.
         14    1    6    6    0    0 -0.51255304960E+02  0.23030695369E+02 -0.12665735403E+03  0.13856263763E+03  0.00000000000E+00 0. -1.
         -5    1    3    3    0  503 -0.30581709965E+02 -0.16013408071E+03 -0.31932174617E+03  0.35856189475E+03  0.47000000000E+01 0.  1.
         13    1    4    4    0    0 -0.28993953267E+01  0.14413446734E+02 -0.11182205548E+03  0.11278442282E+03  0.00000000000E+00 0. -1.
        -14    1    4    4    0    0 -0.90912250837E+01 -0.21062159611E+02  0.76186019283E+00  0.22953112468E+02  0.00000000000E+00 0.  1.
</event>
<event>
12    1  0.8449700E-002  0.1954592E+03  0.7818608E-02  0.1153691E+00
         21   -1    0    0  501  502  0.00000000000E+00  0.00000000000E+00  0.19412982523E+03  0.19412982523E+03  0.00000000000E+00 0. -1.
         21   -1    0    0  502  503 -0.00000000000E+00 -0.00000000000E+00 -0.19840030558E+03  0.19840030558E+03  0.00000000000E+00 0. -1.
         -6    2    1    2    0  503  0.83300753423E+02  0.41336192461E+02 -0.21319215580E+02  0.19661846785E+03  0.17192037871E+03 0.  0.
        -24    2    3    3    0    0 -0.65489142056E+01 -0.23446655970E+02  0.35157307818E+01  0.83002250762E+02  0.79274077196E+02 0.  0.
          6    2    1    2  501    0 -0.83300753423E+02 -0.41336192461E+02  0.17048735225E+02  0.19591166297E+03  0.17158969662E+03 0.  0.
         24    2    5    5    0    0 -0.32887813844E+02 -0.61027700300E+02 -0.43595393753E+02  0.11449286700E+03  0.80012934786E+02 0.  0.
          5    1    5    5  501    0 -0.50412939578E+02  0.19691507839E+02  0.60644128978E+02  0.81418795971E+02  0.47000000000E+01 0. -1.
        -11    1    6    6    0    0 -0.48983825918E+02 -0.59930484980E+02 -0.54811336145E+02  0.94843875931E+02  0.00000000000E+00 0.  1.
         12    1    6    6    0    0  0.16096012074E+02 -0.10972153198E+01  0.11215942392E+02  0.19648991065E+02  0.00000000000E+00 0. -1.
         -5    1    3    3    0  503  0.89849667628E+02  0.64782848431E+02 -0.24834946362E+02  0.11361621708E+03  0.47000000000E+01 0.  1.
         11    1    4    4    0    0 -0.20777575808E+01  0.20025530521E+02 -0.24025797804E+02  0.31346098789E+02  0.00000000000E+00 0. -1.
        -12    1    4    4    0    0 -0.44711566248E+01 -0.43472186491E+02  0.27541528586E+02  0.51656151973E+02  0.00000000000E+00 0.  1.
</event>
<event>
12    1  0.8449700E-002  0.2020516E+03  0.7818608E-02  0.1148246E+00
         21   -1    0    0  501  502  0.00000000000E+00  0.00000000000E+00  0.95686618262E+03  0.95686618262E+03  0.00000000000E+00 0. -1.
         21   -1    0    0  502  503 -0.00000000000E+00 -0.00000000000E+00 -0.43099915791E+02  0.43099915791E+02  0.00000000000E+00 0. -1.
         -6    2    1    2    0  503 -0.65143487034E+02  0.79029060846E+02  0.39606670901E+03  0.44462760024E+03  0.17417117601E+03 0.  0.
        -24    2    3    3    0    0  0.65064453357E+01  0.38667820966E+02  0.86845870285E+02  0.12462391340E+03  0.80320485533E+02 0.  0.
          6    2    1    2  501    0  0.65143487034E+02 -0.79029060846E+02  0.51769955782E+03  0.55533849817E+03  0.17291254732E+03 0.  0.
         24    2    5    5    0    0 -0.50195720458E+01 -0.41388672392E+00  0.11560109675E+03  0.13963612525E+03  0.78161796916E+02 0.  0.
          5    1    5    5  501    0  0.70163059079E+02 -0.78615174122E+02  0.40209846107E+03  0.41570237292E+03  0.47000000000E+01 0. -1.
        -11    1    6    6    0    0 -0.36329086274E+02  0.50152537526E+00  0.96099836582E+02  0.10273866180E+03  0.00000000000E+00 0.  1.
         12    1    6    6    0    0  0.31309514228E+02 -0.91541209917E+00  0.19501260173E+02  0.36897463447E+02  0.00000000000E+00 0. -1.
         -5    1    3    3    0  503 -0.71649932369E+02  0.40361239880E+02  0.30922083872E+03  0.32000368684E+03  0.47000000000E+01 0.  1.
         11    1    4    4    0    0 -0.11422774924E+02  0.23967375936E+02  0.96069855568E+02  0.99671119413E+02  0.00000000000E+00 0. -1.
        -12    1    4    4    0    0  0.17929220260E+02  0.14700445030E+02 -0.92239852827E+01  0.24952793986E+02  0.00000000000E+00 0.  1.
</event>
<event>
12    1  0.8449700E-002  0.1861245E+03  0.7818608E-02  0.1162664E+00
         21   -1    0    0  501  502  0.00000000000E+00  0.00000000000E+00  0.34130979804E+03  0.34130979804E+03  0.00000000000E+00 0.  1.
         21   -1    0    0  502  503 -0.00000000000E+00 -0.00000000000E+00 -0.15892058556E+03  0.15892058556E+03  0.00000000000E+00 0.  1.
         -6    2    1    2    0  503  0.62738999651E+02 -0.12558309500E+02 -0.60705398691E+02  0.19577405518E+03  0.17478112608E+03 0.  0.
        -24    2    3    3    0    0  0.13498864962E+02 -0.69938416133E+02 -0.15911961391E+02  0.10776491061E+03  0.79287351059E+02 0.  0.
          6    2    1    2  501    0 -0.62738999651E+02  0.12558309500E+02  0.24309461116E+03  0.30445632843E+03  0.17176953376E+03 0.  0.
         24    2    5    5    0    0 -0.96705576513E+02  0.40461530411E+02  0.21393029904E+03  0.25149440642E+03  0.80586348976E+02 0.  0.
          5    1    5    5  501    0  0.33966576862E+02 -0.27903220911E+02  0.29164312122E+02  0.52961922005E+02  0.47000000000E+01 0. -1.
        -11    1    6    6    0    0 -0.60416601216E+02 -0.43520512404E+01  0.52794518780E+02  0.80351523108E+02  0.00000000000E+00 0.  1.
         12    1    6    6    0    0 -0.36288975297E+02  0.44813581651E+02  0.16113578026E+03  0.17114288331E+03  0.00000000000E+00 0. -1.
         -5    1    3    3    0  503  0.49240134688E+02  0.57380106633E+02 -0.44793437299E+02  0.88009144562E+02  0.47000000000E+01 0.  1.
         11    1    4    4    0    0  0.45267573096E+02 -0.55029551658E+02 -0.14011264726E+02  0.72620384665E+02  0.00000000000E+00 0. -1.
        -12    1    4    4    0    0 -0.31768708134E+02 -0.14908864475E+02 -0.19006966651E+01  0.35144525950E+02  0.00000000000E+00 0.  1.
</event>
<event>
12    1  0.8449700E-002  0.1773854E+03  0.7818608E-02  0.1170394E+00
         21   -1    0    0  501  502  0.00000000000E+00  0.00000000000E+00  0.21260061710E+03  0.21260061710E+03  0.00000000000E+00 0. -1.
         21   -1    0    0  502  503 -0.00000000000E+00 -0.00000000000E+00 -0.16000849440E+03  0.16000849440E+03  0.00000000000E+00 0. -1.
         -6    2    1    2    0  503 -0.36414839838E+02  0.21696492790E+02 -0.24984227408E+02  0.17913626340E+03  0.17224636683E+03 0.  0.
        -24    2    3    3    0    0 -0.78819140284E+02 -0.68428745721E+01 -0.48788663765E+02  0.12255568920E+03  0.79876663907E+02 0.  0.
          6    2    1    2  501    0  0.36414839838E+02 -0.21696492790E+02  0.77576350103E+02  0.19347284810E+03  0.17209553886E+03 0.  0.
         24    2    5    5    0    0  0.39186014307E+02  0.50691969922E+02  0.27381985591E+02  0.10521564913E+03  0.78837428637E+02 0.  0.
          5    1    5    5  501    0 -0.27711744686E+01 -0.72388462713E+02  0.50194364511E+02  0.88257198973E+02  0.47000000000E+01 0. -1.
        -13    1    6    6    0    0 -0.10949562362E+02  0.93215597310E+01  0.36824585688E+02  0.39532701689E+02  0.00000000000E+00 0.  1.
         14    1    6    6    0    0  0.50135576669E+02  0.41370410191E+02 -0.94426000967E+01  0.65682947436E+02  0.00000000000E+00 0. -1.
         -5    1    3    3    0  503  0.42404300445E+02  0.28539367362E+02  0.23804436357E+02  0.56580574193E+02  0.47000000000E+01 0.  1.
         13    1    4    4    0    0 -0.62483910512E+02 -0.13341848107E+02 -0.70153035148E+02  0.94887788067E+02  0.00000000000E+00 0. -1.
        -14    1    4    4    0    0 -0.16335229772E+02  0.64989735345E+01  0.21364371384E+02  0.27667901137E+02  0.00000000000E+00 0.  1.
</event>
<event>
12    1  0.8449700E-002  0.1910212E+03  0.7818608E-02  0.1157681E+00
         21   -1    0    0  501  502  0.00000000000E+00  0.00000000000E+00  0.20337361768E+03  0.20337361768E+03  0.00000000000E+00 0.  1.
         21   -1    0    0  502  503 -0.00000000000E+00 -0.00000000000E+00 -0.18130629463E+03  0.18130629463E+03  0.00000000000E+00 0.  1.
         -6    2    1    2    0  503 -0.43345782542E+02  0.71111752568E+02 -0.11372054836E+02  0.19135945427E+03  0.17191096210E+03 0.  0.
        -24    2    3    3    0    0 -0.43054428943E+02  0.93095631845E+02 -0.48692003753E+02  0.14779060735E+03  0.94607990520E+02 0.  0.
          6    2    1    2  501    0  0.43345782542E+02 -0.71111752568E+02  0.33439377883E+02  0.19332045804E+03  0.17122753659E+03 0.  0.
         24    2    5    5    0    0  0.22621582848E+01 -0.93289744258E+02  0.62170714944E+02  0.13829948725E+03  0.80953422618E+02 0.  0.
          5    1    5    5  501    0  0.41083624257E+02  0.22177991689E+02 -0.28731337062E+02  0.55020970791E+02  0.47000000000E+01 0. -1.
        -13    1    6    6    0    0 -0.22917180243E+02 -0.38253036747E+02 -0.83507743879E+01  0.45367691186E+02  0.00000000000E+00 0.  1.
         14    1    6    6    0    0  0.25179338528E+02 -0.55036707511E+02  0.70521489332E+02  0.92931796066E+02  0.00000000000E+00 0. -1.
         -5    1    3    3    0  503 -0.29135359823E+00 -0.21983879277E+02  0.37319948918E+02  0.43568846923E+02  0.47000000000E+01 0.  1.
         13    1    4    4    0    0 -0.34886920597E+02  0.81977258969E+00 -0.42437921233E+02  0.54943119810E+02  0.00000000000E+00 0. -1.
        -14    1    4    4    0    0 -0.81675083461E+01  0.92275859256E+02 -0.62540825208E+01  0.92847487538E+02  0.00000000000E+00 0.  1.
</event>
<event>
12    1  0.8449700E-002  0.1739988E+03  0.7818608E-02  0.1174997E+00
         21   -1    0    0  501  502  0.00000000000E+00  0.00000000000E+00  0.16842560460E+03  0.16842560460E+03  0.00000000000E+00 0. -1.
         21   -1    0    0  502  503 -0.00000000000E+00 -0.00000000000E+00 -0.23892202656E+03  0.23892202656E+03  0.00000000000E+00 0. -1.
         -6    2    1    2    0  503 -0.35824156891E+02  0.15075887665E+02 -0.14043771118E+03  0.21981798720E+03  0.16457990209E+03 0.  0.
        -24    2    3    3    0    0 -0.13092437185E+02  0.71350878180E+02 -0.80104955567E+02  0.13411071191E+03  0.79413597163E+02 0.  0.
          6    2    1    2  501    0  0.35824156891E+02 -0.15075887665E+02  0.69941289214E+02  0.18752964396E+03  0.16960227245E+03 0.  0.
         24    2    5    5    0    0  0.16047146391E+02 -0.54262671198E+02 -0.30497750095E+01  0.10222712580E+03  0.85083110713E+02 0.  0.
          5    1    5    5  501    0  0.19777010501E+02  0.39186783533E+02  0.72991064224E+02  0.85302518160E+02  0.47000000000E+01 0. -1.
        -11    1    6    6    0    0 -0.22672825404E+02 -0.12342504654E+02 -0.29609952365E+02  0.39282867919E+02  0.00000000000E+00 0.  1.
         12    1    6    6    0    0  0.38719971794E+02 -0.41920166544E+02  0.26560177355E+02  0.62944257879E+02  0.00000000000E+00 0. -1.
         -5    1    3    3    0  503 -0.22731719706E+02 -0.56274990515E+02 -0.60332755608E+02  0.85707275290E+02  0.47000000000E+01 0.  1.
         13    1    4    4    0    0 -0.34818346564E+02  0.51680855402E+01 -0.13396670770E+02  0.37662941379E+02  0.00000000000E+00 0. -1.
        -14    1    4    4    0    0  0.21725909379E+02  0.66182792640E+02 -0.66708284797E+02  0.96447770531E+02  0.00000000000E+00 0.  1.
</event>
<event>
12    1  0.8449700E-002  0.1758330E+03  0.7818608E-02  0.1172196E+00
         21   -1    0    0  503  502  0.00000000000E+00  0.00000000000E+00  0.10477496640E+03  0.10477496640E+03  0.00000000000E+00 0.  1.
         21   -1    0    0  501  503 -0.00000000000E+00 -0.00000000000E+00 -0.30485766842E+03  0.30485766842E+03  0.00000000000E+00 0.  1.
          6    2    1    2  501    0 -0.27828690059E+02 -0.16569400274E+02 -0.14061767468E+03  0.22514564291E+03  0.17282433009E+03 0.  0.
         24    2    3    3    0    0 -0.85442855493E+02 -0.81351998981E+01 -0.91674520669E+02  0.14893507856E+03  0.80067326996E+02 0.  0.
         -6    2    1    2    0  502  0.27828690059E+02  0.16569400274E+02 -0.59465027342E+02  0.18448699191E+03  0.17161112928E+03 0.  0.
        -24    2    5    5    0    0  0.17648930058E+02  0.36508773059E+02 -0.10216902151E+03  0.13604189702E+03  0.80153063242E+02 0.  0.
          5    1    3    3  501    0  0.57614165433E+02 -0.84342003762E+01 -0.48943154011E+02  0.76210564354E+02  0.47000000000E+01 0. -1.
        -13    1    4    4    0    0 -0.26269330274E+02 -0.27551451165E+02 -0.75557927669E+02  0.84605913552E+02  0.00000000000E+00 0.  1.
         14    1    4    4    0    0 -0.59173525219E+02  0.19416251267E+02 -0.16116593000E+02  0.64329165003E+02  0.00000000000E+00 0. -1.
         -5    1    5    5    0  502  0.10179760001E+02 -0.19939372785E+02  0.42703994167E+02  0.48445094886E+02  0.47000000000E+01 0.  1.
         11    1    6    6    0    0 -0.24668791227E+02  0.38095786937E+02 -0.38178516070E+02  0.59307987086E+02  0.00000000000E+00 0. -1.
        -12    1    6    6    0    0  0.42317721286E+02 -0.15870138778E+01 -0.63990505440E+02  0.76733909937E+02  0.00000000000E+00 0.  1.
</event>
<event>
12    1  0.8449700E-002  0.1846592E+03  0.7818608E-02  0.1163469E+00
         21   -1    0    0  503  502  0.00000000000E+00  0.00000000000E+00  0.14556703392E+03  0.14556703392E+03  0.00000000000E+00 0.  1.
         21   -1    0    0  501  503 -0.00000000000E+00 -0.00000000000E+00 -0.11170840228E+04  0.11170840228E+04  0.00000000000E+00 0.  1.
          6    2    1    2  501    0  0.61605065364E+02 -0.30437133745E+02 -0.10472903942E+04  0.10634454363E+04  0.17139843366E+03 0.  0.
         24    2    3    3    0    0  0.11822295295E+02  0.44332737672E+02 -0.65326176513E+03  0.65928023694E+03  0.76120553987E+02 0.  0.
         -6    2    1    2    0  502 -0.61605065364E+02  0.30437133745E+02  0.75773405353E+02  0.19920562037E+03  0.17093761154E+03 0.  0.
        -24    2    5    5    0    0 -0.10190496164E+03  0.48442922514E+02  0.50021043605E+02  0.14788735651E+03  0.81469181074E+02 0.  0.
          5    1    3    3  501    0  0.49782770069E+02 -0.74769871417E+02 -0.39402862905E+03  0.40416519937E+03  0.47000000000E+01 0. -1.
        -13    1    4    4    0    0  0.11499219189E+01 -0.13831454617E+02 -0.35177312598E+03  0.35204682020E+03  0.00000000000E+00 0.  1.
         14    1    4    4    0    0  0.10672373376E+02  0.58164192289E+02 -0.30148863916E+03  0.30723341673E+03  0.00000000000E+00 0. -1.
         -5    1    5    5    0  502  0.40299896277E+02 -0.18005788768E+02  0.25752361748E+02  0.51318263852E+02  0.47000000000E+01 0.  1.
         13    1    6    6    0    0 -0.20316284805E+02 -0.21124967996E+02  0.23153602894E+02  0.37351104777E+02  0.00000000000E+00 0. -1.
        -14    1    6    6    0    0 -0.81588676837E+02  0.69567890510E+02  0.26867440711E+02  0.11053625174E+03  0.00000000000E+00 0.  1.
</event>
<event>
12    1  0.8449700E-002  0.3292608E+03  0.7818608E-02  0.1071519E+00
         21   -1    0    0  501  502  0.00000000000E+00  0.00000000000E+00  0.15971065905E+03  0.15971065905E+03  0.00000000000E+00 0. -1.
         21   -1    0    0  502  503 -0.00000000000E+00 -0.00000000000E+00 -0.82033802717E+03  0.82033802717E+03  0.00000000000E+00 0.  1.
         -6    2    1    2    0  503 -0.17363695863E+03  0.21995724799E+03 -0.12625031493E+03  0.35263549259E+03  0.17286313738E+03 0.  0.
        -24    2    3    3    0    0 -0.11423835429E+03  0.19455407312E+03 -0.35656524298E+02  0.24126745232E+03  0.77697534506E+02 0.  0.
          6    2    1    2  501    0  0.17363695863E+03 -0.21995724799E+03 -0.53437705319E+03  0.62741319362E+03  0.17192293685E+03 0.  0.
         24    2    5    5    0    0  0.20129894144E+03 -0.20033157065E+03 -0.47179526122E+03  0.55607650468E+03  0.77306587829E+02 0.  0.
          5    1    5    5  501    0 -0.27661982808E+02 -0.19625677344E+02 -0.62581791966E+02  0.71336688946E+02  0.47000000000E+01 0. -1.
        -13    1    6    6    0    0  0.22833342733E+02 -0.25706017587E+02 -0.11896845837E+03  0.12383721156E+03  0.00000000000E+00 0.  1.
         14    1    6    6    0    0  0.17846559871E+03 -0.17462555306E+03 -0.35282680285E+03  0.43223929312E+03  0.00000000000E+00 0. -1.
         -5    1    3    3    0  503 -0.59398604344E+02  0.25403174876E+02 -0.90593790632E+02  0.11136804027E+03  0.47000000000E+01 0.  1.
         13    1    4    4    0    0 -0.10866085152E+03  0.15064107404E+03 -0.21560889792E+01  0.18575403780E+03  0.00000000000E+00 0. -1.
        -14    1    4    4    0    0 -0.55775027708E+01  0.43912999079E+02 -0.33500435319E+02  0.55513414521E+02  0.00000000000E+00 0.  1.
</event>
<event>
12    1  0.8449700E-002  0.4198566E+03  0.7818608E-02  0.1037162E+00
         21   -1    0    0  503  502  0.00000000000E+00  0.00000000000E+00  0.80490356255E+03  0.80490356255E+03  0.00000000000E+00 0.  1.
         21   -1    0    0  501  503 -0.00000000000E+00 -0.00000000000E+00 -0.25105226312E+03  0.25105226312E+03  0.00000000000E+00 0.  1.
          6    2    1    2  501    0  0.22517177852E+03  0.30970698460E+03  0.87551266113E+02  0.42888782294E+03  0.17221728809E+03 0.  0.
         24    2    3    3    0    0  0.85622322260E+02  0.23123407713E+03  0.63359236125E+02  0.26690204497E+03  0.80136934765E+02 0.  0.
         -6    2    1    2    0  502 -0.22517177852E+03 -0.30970698460E+03  0.46630003332E+03  0.62706800273E+03  0.17075658942E+03 0.  0.
        -24    2    5    5    0    0 -0.23170351941E+03 -0.22070597390E+03  0.36510257148E+03  0.49206111466E+03  0.80166109036E+02 0.  0.
          5    1    3    3  501    0  0.13954945626E+03  0.78472907467E+02  0.24192029989E+02  0.16198577797E+03  0.47000000000E+01 0. -1.
        -13    1    4    4    0    0  0.75751782234E+02  0.14787293220E+03  0.79828993734E+01  0.16633839987E+03  0.00000000000E+00 0.  1.
         14    1    4    4    0    0  0.98705400258E+01  0.83361144926E+02  0.55376336751E+02  0.10056364510E+03  0.00000000000E+00 0. -1.
         -5    1    5    5    0  502  0.65317408950E+01 -0.89001010695E+02  0.10119746184E+03  0.13500688807E+03  0.47000000000E+01 0.  1.
         13    1    6    6    0    0 -0.47948142270E+02 -0.12197454950E+02  0.35337458086E+02  0.60799162810E+02  0.00000000000E+00 0. -1.
        -14    1    6    6    0    0 -0.18375537714E+03 -0.20850851895E+03  0.32976511339E+03  0.43126195185E+03  0.00000000000E+00 0.  1.
</event>
<event>
12    1  0.8449700E-002  0.1825475E+03  0.7818608E-02  0.1165574E+00
         21   -1    0    0  501  502  0.00000000000E+00  0.00000000000E+00  0.20161775968E+03  0.20161775968E+03  0.00000000000E+00 0. -1.
         21   -1    0    0  502  503 -0.00000000000E+00 -0.00000000000E+00 -0.27198123392E+03  0.27198123392E+03  0.00000000000E+00 0. -1.
         -6    2    1    2    0  503  0.64934237344E+02  0.10270135670E+00 -0.18411494129E+03  0.25927189619E+03  0.17060814407E+03 0.  0.
        -24    2    3    3    0    0  0.10394276886E+03  0.10034569550E+02 -0.97175903267E+02  0.16335112749E+03  0.79596751763E+02 0.  0.
          6    2    1    2  501    0 -0.64934237344E+02 -0.10270135670E+00  0.11375146704E+03  0.21432709740E+03  0.16964740699E+03 0.  0.
         24    2    5    5    0    0 -0.51374653916E+02  0.46179507244E+02  0.16273589961E+02  0.10546970603E+03  0.78020043617E+02 0.  0.
          5    1    5    5  501    0 -0.13559583427E+02 -0.46282208600E+02  0.97477877083E+02  0.10885739137E+03  0.47000000000E+01 0. -1.
        -11    1    6    6    0    0  0.20743956980E+02  0.15088974076E+02  0.49110700253E+01  0.26117187802E+02  0.00000000000E+00 0.  1.
         12    1    6    6    0    0 -0.72118610896E+02  0.31090533168E+02  0.11362519935E+02  0.79352518231E+02  0.00000000000E+00 0. -1.
         -5    1    3    3    0  503 -0.39008531515E+02 -0.99318681933E+01 -0.86939038018E+02  0.95920768702E+02  0.47000000000E+01 0.  1.
         11    1    4    4    0    0  0.24144389353E+02 -0.22229251828E+01 -0.76159828152E+02  0.79926293282E+02  0.00000000000E+00 0. -1.
        -12    1    4    4    0    0  0.79798379506E+02  0.12257494733E+02 -0.21016075115E+02  0.83424834205E+02  0.00000000000E+00 0.  1.
</event>
<event>
12    1  0.8449700E-002  0.2205188E+03  0.7818608E-02  0.1133594E+00
         21   -1    0    0  501  502  0.00000000000E+00  0.00000000000E+00  0.93928410131E+03  0.93928410131E+03  0.00000000000E+00 0.  1.
         21   -1    0    0  502  503 -0.00000000000E+00 -0.00000000000E+00 -0.60991798648E+02  0.60991798648E+02  0.00000000000E+00 0.  1.
         -6    2    1    2    0  503 -0.93427951277E+02 -0.10079362731E+03  0.24295602616E+03  0.32775769684E+03  0.17178282744E+03 0.  0.
        -24    2    3    3    0    0 -0.12291267629E+02 -0.41804205958E+02  0.19748556059E+03  0.21751901713E+03  0.80095625818E+02 0.  0.
          6    2    1    2  501    0  0.93427951277E+02  0.10079362731E+03  0.63533627650E+03  0.67251820312E+03  0.17245408637E+03 0.  0.
         24    2    5    5    0    0  0.73338612332E+02 -0.61283984522E+01  0.37452527366E+03  0.38988704714E+03  0.79540050201E+02 0.  0.
          5    1    5    5  501    0  0.20089338945E+02  0.10692202576E+03  0.26081100283E+03  0.28263115598E+03  0.47000000000E+01 0. -1.
        -11    1    6    6    0    0  0.19006592048E+02  0.24073845090E+02  0.23686104651E+03  0.23883876552E+03  0.00000000000E+00 0.  1.
         12    1    6    6    0    0  0.54332020284E+02 -0.30202243543E+02  0.13766422715E+03  0.15104828162E+03  0.00000000000E+00 0. -1.
         -5    1    3    3    0  503 -0.81136683648E+02 -0.58989421351E+02  0.45470465573E+02  0.11023867971E+03  0.47000000000E+01 0.  1.
         13    1    4    4    0    0 -0.43915328554E+02 -0.36383726861E+02  0.14728874043E+03  0.15794399235E+03  0.00000000000E+00 0. -1.
        -14    1    4    4    0    0  0.31624060925E+02 -0.54204790975E+01  0.50196820156E+02  0.59575024774E+02  0.00000000000E+00 0.  1.
</event>
<event>
12    1  0.8449700E-002  0.1882914E+03  0.7818608E-02  0.1160796E+00
         21   -1    0    0  501  502  0.00000000000E+00  0.00000000000E+00  0.14996135378E+03  0.14996135378E+03  0.00000000000E+00 0. -1.
         21   -1    0    0  502  503 -0.00000000000E+00 -0.00000000000E+00 -0.49052108627E+03  0.49052108627E+03  0.00000000000E+00 0. -1.
         -6    2    1    2    0  503 -0.29751853374E+02 -0.60161070312E+02 -0.40195332825E+03  0.44243487101E+03  0.17227190669E+03 0.  0.
        -24    2    3    3    0    0  0.35706184287E+02 -0.18749790163E+02 -0.30697583910E+03  0.31978715492E+03  0.80019825230E+02 0.  0.
          6    2    1    2  501    0  0.29751853374E+02  0.60161070312E+02  0.61393595761E+02  0.19804756904E+03  0.17592367335E+03 0.  0.
         24    2    5    5    0    0  0.61012940443E+02 -0.86251556482E+01  0.68225371832E+02  0.12203728283E+03  0.80258487567E+02 0.  0.
          5    1    5    5  501    0 -0.31261087070E+02  0.68786225960E+02 -0.68317760707E+01  0.76010286218E+02  0.47000000000E+01 0. -1.
        -11    1    6    6    0    0  0.83863710045E+00 -0.26780905302E+02 -0.30962022688E+01  0.26972331554E+02  0.00000000000E+00 0.  1.
         12    1    6    6    0    0  0.60174303343E+02  0.18155749653E+02  0.71321574101E+02  0.95064951273E+02  0.00000000000E+00 0. -1.
         -5    1    3    3    0  503 -0.65458037660E+02 -0.41411280149E+02 -0.94977489151E+02  0.12264771609E+03  0.47000000000E+01 0.  1.
         13    1    4    4    0    0  0.17403557027E+02 -0.50231896960E+02 -0.17801308945E+03  0.18578155798E+03  0.00000000000E+00 0. -1.
        -14    1    4    4    0    0  0.18302627260E+02  0.31482106796E+02 -0.12896274965E+03  0.13400559694E+03  0.00000000000E+00 0.  1.
</event>
<event>
12    1  0.8449700E-002  0.2093448E+03  0.7818608E-02  0.1142257E+00
         21   -1    0    0  503  502  0.00000000000E+00  0.00000000000E+00  0.36397237234E+03  0.36397237234E+03  0.00000000000E+00 0. -1.
         21   -1    0    0  501  503 -0.00000000000E+00 -0.00000000000E+00 -0.15743463227E+03  0.15743463227E+03  0.00000000000E+00 0.  1.
          6    2    1    2  501    0  0.99201294464E+02  0.65898802971E+02 -0.23840820126E+02  0.21069798371E+03  0.17216766996E+03 0.  0.
         24    2    3    3    0    0  0.30352022250E+02  0.10057807393E+03 -0.18971074054E+02  0.13331143097E+03  0.79842606215E+02 0.  0.
         -6    2    1    2    0  502 -0.99201294464E+02 -0.65898802971E+02  0.23037856020E+03  0.31070902090E+03  0.17112061714E+03 0.  0.
        -24    2    5    5    0    0 -0.11038654938E+03  0.30173868764E+01  0.12617518035E+03  0.18519015569E+03  0.78618844563E+02 0.  0.
          5    1    3    3  501    0  0.68849272214E+02 -0.34679270957E+02 -0.48697460716E+01  0.77386552742E+02  0.47000000000E+01 0. -1.
        -11    1    4    4    0    0  0.47663927624E+01  0.77988358546E+02 -0.45200385049E+02  0.90266147460E+02  0.00000000000E+00 0.  1.
         12    1    4    4    0    0  0.25585629488E+02  0.22589715381E+02  0.26229310995E+02  0.43045283511E+02  0.00000000000E+00 0. -1.
         -5    1    5    5    0  502  0.11185254919E+02 -0.68916189847E+02  0.10420337985E+03  0.12551886521E+03  0.47000000000E+01 0.  1.
         11    1    6    6    0    0 -0.11677407075E+03 -0.13751274928E+02  0.11077420274E+03  0.16154319903E+03  0.00000000000E+00 0. -1.
        -12    1    6    6    0    0  0.63875213641E+01  0.16768661804E+02  0.15400977605E+02  0.23646956655E+02  0.00000000000E+00 0.  1.
</event>
<event>
12    1  0.8449700E-002  0.1917217E+03  0.7818608E-02  0.1157727E+00
         21   -1    0    0  501  502  0.00000000000E+00  0.00000000000E+00  0.22995259473E+03  0.22995259473E+03  0.00000000000E+00 0.  1.
         21   -1    0    0  502  503 -0.00000000000E+00 -0.00000000000E+00 -0.47301494703E+03  0.47301494703E+03  0.00000000000E+00 0.  1.
         -6    2    1    2    0  503 -0.68062230751E+02  0.43130504684E+02 -0.40849820926E+03  0.44973599359E+03  0.16999696843E+03 0.  0.
        -24    2    3    3    0    0 -0.61823880411E+02  0.45826168022E+02 -0.42070431733E+03  0.43499616014E+03  0.79418554806E+02 0.  0.
          6    2    1    2  501    0  0.68062230751E+02 -0.43130504684E+02  0.16543585695E+03  0.25323154817E+03  0.17396691218E+03 0.  0.
         24    2    5    5    0    0  0.93295900488E+02 -0.78212554327E+02  0.15591094587E+03  0.20873096136E+03  0.66626289729E+02 0.  0.
          5    1    5    5  501    0 -0.25233669737E+02  0.35082049643E+02  0.95249110802E+01  0.44500586812E+02  0.47000000000E+01 0. -1.
        -13    1    6    6    0    0  0.56847327774E+02 -0.76215578280E+01  0.48380562802E+02  0.75035895916E+02  0.00000000000E+00 0.  1.
         14    1    6    6    0    0  0.36448572713E+02 -0.70590996499E+02  0.10753038307E+03  0.13369506544E+03  0.00000000000E+00 0. -1.
         -5    1    3    3    0  503 -0.62383503404E+01 -0.26956633379E+01  0.12206108077E+02  0.14739833452E+02  0.47000000000E+01 0.  1.
         13    1    4    4    0    0  0.70470288870E+01  0.39184108691E+01 -0.16153733469E+01  0.82233807477E+01  0.00000000000E+00 0. -1.
        -14    1    4    4    0    0 -0.68870909298E+02  0.41907757153E+02 -0.41908894399E+03  0.42677277939E+03  0.00000000000E+00 0.  1.
</event>
<event>
12    1  0.8449700E-002  0.1963228E+03  0.7818608E-02  0.1152885E+00
         21   -1    0    0  501  502  0.00000000000E+00  0.00000000000E+00  0.18277714438E+03  0.18277714438E+03  0.00000000000E+00 0. -1.
         21   -1    0    0  502  503 -0.00000000000E+00 -0.00000000000E+00 -0.24109704818E+03  0.24109704818E+03  0.00000000000E+00 0. -1.
         -6    2    1    2    0  503 -0.16880621644E+02 -0.92882994891E+02 -0.10423471957E+03  0.22225375820E+03  0.17210360294E+03 0.  0.
        -24    2    3    3    0    0  0.47541719538E+02 -0.89555669475E+02 -0.51888204875E+02  0.13904584549E+03  0.79755428097E+02 0.  0.
          6    2    1    2  501    0  0.16880621644E+02  0.92882994891E+02  0.45914815765E+02  0.20162043436E+03  0.17213489802E+03 0.  0.
         24    2    5    5    0    0  0.60840559845E+02  0.11011283095E+03  0.33161566991E+02  0.15248715875E+03  0.79537631326E+02 0.  0.
          5    1    5    5  501    0 -0.43959938201E+02 -0.17229836059E+02  0.12753248774E+02  0.49133275603E+02  0.47000000000E+01 0. -1.
        -11    1    6    6    0    0  0.50919662738E+02  0.20836163294E+02  0.29863987423E+02  0.62600443281E+02  0.00000000000E+00 0.  1.
         12    1    6    6    0    0  0.99208971065E+01  0.89276667656E+02  0.32975795683E+01  0.89886715471E+02  0.00000000000E+00 0. -1.
         -5    1    3    3    0  503 -0.64422341182E+02 -0.33273254164E+01 -0.52346514692E+02  0.83207912714E+02  0.47000000000E+01 0.  1.
         11    1    4    4    0    0  0.40514612712E+02 -0.17675537073E+02 -0.50084437154E+02  0.66800518703E+02  0.00000000000E+00 0. -1.
        -12    1    4    4    0    0  0.70271068259E+01 -0.71880132401E+02 -0.18037677214E+01  0.72245326786E+02  0.00000000000E+00 0.  1.
</event>
<event>
12    1  0.8449700E-002  0.2263820E+03  0.7818608E-02  0.1131474E+00
         21   -1    0    0  501  502  0.00000000000E+00  0.00000000000E+00  0.29262821785E+03  0.29262821785E+03  0.00000000000E+00 0. -1.
         21   -1    0    0  502  503 -0.00000000000E+00 -0.00000000000E+00 -0.17014592815E+03  0.17014592815E+03  0.00000000000E+00 0.  1.
         -6    2    1    2    0  503 -0.74396002218E+02 -0.10312691865E+03  0.25945484570E+02  0.22786393889E+03  0.18729356630E+03 0.  0.
        -24    2    3    3    0    0 -0.71132566831E+02 -0.17114474660E+02  0.72468658295E+02  0.12990840701E+03  0.79194320942E+02 0.  0.
          6    2    1    2  501    0  0.74396002218E+02  0.10312691865E+03  0.96536805134E+02  0.23491020711E+03  0.17231809006E+03 0.  0.
         24    2    5    5    0    0  0.88929145353E+02  0.12876230125E+03  0.56155187425E+02  0.18469915116E+03  0.80450284329E+02 0.  0.
          5    1    5    5  501    0 -0.14533143135E+02 -0.25635382601E+02  0.40381617709E+02  0.50211055947E+02  0.47000000000E+01 0. -1.
        -13    1    6    6    0    0  0.79888096330E+02  0.84783980889E+02  0.49494240990E+01  0.11659729049E+03  0.00000000000E+00 0.  1.
         14    1    6    6    0    0  0.90410490232E+01  0.43978320365E+02  0.51205763326E+02  0.68101860675E+02  0.00000000000E+00 0. -1.
         -5    1    3    3    0  503 -0.32634353865E+01 -0.86012443993E+02 -0.46523173725E+02  0.97955531878E+02  0.47000000000E+01 0.  1.
         11    1    4    4    0    0 -0.34976237032E+02 -0.99176897097E+01  0.83795360551E+02  0.91341995686E+02  0.00000000000E+00 0. -1.
        -12    1    4    4    0    0 -0.36156329800E+02 -0.71967849506E+01 -0.11326702257E+02  0.38566411322E+02  0.00000000000E+00 0.  1.
</event>
<event>
12    1  0.8449700E-002  0.2226294E+03  0.7818608E-02  0.1132869E+00
         21   -1    0    0  503  502  0.00000000000E+00  0.00000000000E+00  0.19269859903E+04  0.19269859903E+04  0.00000000000E+00 0.  1.
         21   -1    0    0  501  503 -0.00000000000E+00 -0.00000000000E+00 -0.49255278521E+02  0.49255278521E+02  0.00000000000E+00 0.  1.
          6    2    1    2  501    0  0.10791919544E+03 -0.76459240745E+02  0.24211083361E+03  0.32553953326E+03  0.17281713955E+03 0.  0.
         24    2    3    3    0    0  0.37557460748E+02 -0.41776387219E+02  0.22598008048E+03  0.24531506546E+03  0.77179370148E+02 0.  0.
         -6    2    1    2    0  502 -0.10791919544E+03  0.76459240745E+02  0.16356198782E+04  0.16507017356E+04  0.17908452107E+03 0.  0.
        -24    2    5    5    0    0 -0.80160084732E+02 -0.26627054994E+02  0.82064991880E+03  0.82875558326E+03  0.78961309068E+02 0.  0.
          5    1    3    3  501    0  0.70361734696E+02 -0.34682853526E+02  0.16130753126E+02  0.80224467804E+02  0.47000000000E+01 0. -1.
        -13    1    4    4    0    0  0.36706887873E+02  0.11337945718E+02  0.61927171583E+02  0.72876053753E+02  0.00000000000E+00 0.  1.
         14    1    4    4    0    0  0.85057287534E+00 -0.53114332937E+02  0.16405290890E+03  0.17243901170E+03  0.00000000000E+00 0. -1.
         -5    1    5    5    0  502 -0.27759110712E+02  0.10308629574E+03  0.81496995940E+03  0.82194615232E+03  0.47000000000E+01 0.  1.
         11    1    6    6    0    0 -0.31196118782E+02 -0.21578666953E+02  0.65112486712E+03  0.65222881665E+03  0.00000000000E+00 0. -1.
        -12    1    6    6    0    0 -0.48963965950E+02 -0.50483880404E+01  0.16952505168E+03  0.17652676661E+03  0.00000000000E+00 0.  1.
</event>
<event>
12    1  0.8449700E-002  0.1949803E+03  0.7818608E-02  0.1154354E+00
         21   -1    0    0  503  502  0.00000000000E+00  0.00000000000E+00  0.91095576626E+02  0.91095576626E+02  0.00000000000E+00 0.  1.
         21   -1    0    0  501  503 -0.00000000000E+00 -0.00000000000E+00 -0.68502937239E+03  0.68502937239E+03  0.00000000000E+00 0.  1.
          6    2    1    2  501    0 -0.37536457998E+02  0.81486410528E+02 -0.54156777891E+03  0.57559792671E+03  0.17311352722E+03 0.  0.
         24    2    3    3    0    0 -0.69262478251E+02  0.67249354092E+02 -0.24140044830E+03  0.27338649328E+03  0.84535387540E+02 0.  0.
         -6    2    1    2    0  502  0.37536457998E+02 -0.81486410528E+02 -0.52366016855E+02  0.20052702230E+03  0.17152220315E+03 0.  0.
        -24    2    5    5    0    0  0.88787737399E+02 -0.51138901988E+02 -0.13331345497E+02  0.12915853848E+03  0.77496797874E+02 0.  0.
          5    1    3    3  501    0  0.31726020252E+02  0.14237056436E+02 -0.30016733060E+03  0.30221143343E+03  0.47000000000E+01 0. -1.
        -11    1    4    4    0    0  0.19253769362E+02  0.19611589034E+02 -0.60047603000E+02  0.66038145682E+02  0.00000000000E+00 0.  1.
         12    1    4    4    0    0 -0.88516247613E+02  0.47637765058E+02 -0.18135284530E+03  0.20734834760E+03  0.00000000000E+00 0. -1.
         -5    1    5    5    0  502 -0.51251279401E+02 -0.30347508540E+02 -0.39034671359E+02  0.71368483821E+02  0.47000000000E+01 0.  1.
         11    1    6    6    0    0  0.43912356541E+02 -0.25644628416E+02 -0.45588823926E+02  0.68295555422E+02  0.00000000000E+00 0. -1.
        -12    1    6    6    0    0  0.44875380859E+02 -0.25494273572E+02  0.32257478429E+02  0.60862983058E+02  0.00000000000E+00 0.  1.
</event>
<event>
12    1  0.8449700E-002  0.2221779E+03  0.7818608E-02  0.1132732E+00
         21   -1    0    0  501  502  0.00000000000E+00  0.00000000000E+00  0.10335091816E+03  0.10335091816E+03  0.00000000000E+00 0.  1.
         21   -1    0    0  502  503 -0.00000000000E+00 -0.00000000000E+00 -0.97048580780E+03  0.97048580780E+03  0.00000000000E+00 0. -1.
         -6    2    1    2    0  503  0.15282634495E+02  0.13849224710E+03 -0.81707145667E+03  0.84608829162E+03  0.16984101532E+03 0.  0.
        -24    2    3    3    0    0 -0.34657701366E+02  0.10305449288E+03 -0.34728820282E+03  0.37230746976E+03  0.78628057653E+02 0.  0.
          6    2    1    2  501    0 -0.15282634495E+02 -0.13849224710E+03 -0.50063432981E+02  0.22774843434E+03  0.17305877787E+03 0.  0.
         24    2    5    5    0    0 -0.40695888147E+02 -0.16340188546E+03 -0.39233654477E+02  0.19025579978E+03  0.79382984475E+02 0.  0.
          5    1    5    5  501    0  0.25413253652E+02  0.24909638352E+02 -0.10829778504E+02  0.37492634562E+02  0.47000000000E+01 0. -1.
        -11    1    6    6    0    0 -0.19679264263E+02 -0.16127335343E+03 -0.44562036899E+02  0.16847000654E+03  0.00000000000E+00 0.  1.
         12    1    6    6    0    0 -0.21016623884E+02 -0.21285320208E+01  0.53283824222E+01  0.21785793244E+02  0.00000000000E+00 0. -1.
         -5    1    3    3    0  503  0.49940335861E+02  0.35437754227E+02 -0.46978325384E+03  0.47378082186E+03  0.47000000000E+01 0.  1.
         13    1    4    4    0    0 -0.32819996220E+02  0.59182682013E+02 -0.30096634486E+03  0.30848092767E+03  0.00000000000E+00 0. -1.
        -14    1    4    4    0    0 -0.18377051463E+01  0.43871810864E+02 -0.46321857965E+02  0.63826542081E+02  0.00000000000E+00 0.  1.
</event>
<event>
12    1  0.8449700E-002  0.2427729E+03  0.7818608E-02  0.1117979E+00
         21   -1    0    0  503  502  0.00000000000E+00  0.00000000000E+00  0.47811316303E+03  0.47811316303E+03  0.00000000000E+00 0. -1.
         21   -1    0    0  501  503 -0.00000000000E+00 -0.00000000000E+00 -0.12598725173E+03  0.12598725173E+03  0.00000000000E+00 0. -1.
          6    2    1    2  501    0 -0.17018749012E+03  0.73403929742E+01  0.13118673924E+03  0.27584320988E+03  0.17280582375E+03 0.  0.
         24    2    3    3    0    0 -0.12646927558E+03  0.70299269817E+02  0.80480216353E+02  0.18381960465E+03  0.79850590652E+02 0.  0.
         -6    2    1    2    0  502  0.17018749012E+03 -0.73403929742E+01  0.22093917206E+03  0.32825720489E+03  0.17297691074E+03 0.  0.
        -24    2    5    5    0    0  0.92739641195E+02  0.64660651481E+02  0.12422215016E+03  0.18487452801E+03  0.77238640693E+02 0.  0.
          5    1    3    3  501    0 -0.43718214534E+02 -0.62958876843E+02  0.50706522887E+02  0.92023605225E+02  0.47000000000E+01 0. -1.
        -13    1    4    4    0    0 -0.59678056517E+02  0.37729788243E+02  0.83624123661E+02  0.10944405607E+03  0.00000000000E+00 0.  1.
         14    1    4    4    0    0 -0.66791219066E+02  0.32569481575E+02 -0.31439073077E+01  0.74375548586E+02  0.00000000000E+00 0. -1.
         -5    1    5    5    0  502  0.77447848921E+02 -0.72001044455E+02  0.96717021896E+02  0.14338267688E+03  0.47000000000E+01 0.  1.
         11    1    6    6    0    0  0.85677375415E+02  0.23539956060E+02  0.56383269867E+02  0.10523219712E+03  0.00000000000E+00 0. -1.
        -12    1    6    6    0    0  0.70622657804E+01  0.41120695422E+02  0.67838880295E+02  0.79642330890E+02  0.00000000000E+00 0.  1.
</event>
<event>
12    1  0.8449700E-002  0.2883734E+03  0.7818608E-02  0.1091261E+00
         21   -1    0    0  503  502  0.00000000000E+00  0.00000000000E+00  0.47830344904E+03  0.47830344904E+03  0.00000000000E+00 0. -1.
         21   -1    0    0  501  503 -0.00000000000E+00 -0.00000000000E+00 -0.37106225278E+03  0.37106225278E+03  0.00000000000E+00 0. -1.
          6    2    1    2  501    0 -0.22713686992E+03 -0.42166340182E+02 -0.25616718308E+03  0.38572123437E+03  0.17259805050E+03 0.  0.
         24    2    3    3    0    0 -0.17010112270E+03 -0.29766555842E+02 -0.26628750773E+03  0.32629613796E+03  0.75760762142E+02 0.  0.
         -6    2    1    2    0  502  0.22713686992E+03  0.42166340182E+02  0.36340837934E+03  0.46364446745E+03  0.17184697875E+03 0.  0.
        -24    2    5    5    0    0  0.83017706878E+02  0.34686577335E+02  0.26029870974E+03  0.28621849987E+03  0.77913497379E+02 0.  0.
          5    1    3    3  501    0 -0.57035747211E+02 -0.12399784340E+02  0.10120324658E+02  0.59425096405E+02  0.47000000000E+01 0. -1.
        -11    1    4    4    0    0 -0.11506784556E+03  0.25403954379E+01 -0.21710736052E+03  0.24572885195E+03  0.00000000000E+00 0.  1.
         12    1    4    4    0    0 -0.55033277149E+02 -0.32306951280E+02 -0.49180147216E+02  0.80567286010E+02  0.00000000000E+00 0. -1.
         -5    1    5    5    0  502  0.14411916304E+03  0.74797628467E+01  0.10310966960E+03  0.17742596758E+03  0.47000000000E+01 0.  1.
         13    1    6    6    0    0  0.91848322149E+02  0.47531589478E+02  0.22762888931E+03  0.25002055422E+03  0.00000000000E+00 0. -1.
        -14    1    6    6    0    0 -0.88306152713E+01 -0.12845012143E+02  0.32669820425E+02  0.36197945655E+02  0.00000000000E+00 0.  1.
</event>
<event>
12    1  0.8449700E-002  0.2781063E+03  0.7818608E-02  0.1098556E+00
         21   -1    0    0  501  502  0.00000000000E+00  0.00000000000E+00  0.28651929822E+03  0.28651929822E+03  0.00000000000E+00 0.  1.
         21   -1    0    0  502  503 -0.00000000000E+00 -0.00000000000E+00 -0.34978368155E+03  0.34978368155E+03  0.00000000000E+00 0. -1.
         -6    2    1    2    0  503 -0.13290171010E+03  0.15185494073E+03 -0.19554394093E+03  0.33997141487E+03  0.19136442335E+03 0.  0.
        -24    2    3    3    0    0 -0.22549196542E+02  0.14204195160E+02 -0.12497178382E+03  0.14989794391E+03  0.78365945484E+02 0.  0.
          6    2    1    2  501    0  0.13290171010E+03 -0.15185494073E+03  0.13227955761E+03  0.29633156490E+03  0.17202246198E+03 0.  0.
         24    2    5    5    0    0  0.79151866359E+01 -0.18215760487E+02  0.31741240521E+02  0.87498845371E+02  0.79082725559E+02 0.  0.
          5    1    5    5  501    0  0.12498652346E+03 -0.13363918024E+03  0.10053831709E+03  0.20883271953E+03  0.47000000000E+01 0. -1.
        -13    1    6    6    0    0 -0.40496366084E+01 -0.74414204368E+01  0.56955561655E+02  0.57582204701E+02  0.00000000000E+00 0.  1.
         14    1    6    6    0    0  0.11964823244E+02 -0.10774340050E+02 -0.25214321134E+02  0.29916640671E+02  0.00000000000E+00 0. -1.
         -5    1    3    3    0  503 -0.11035251356E+03  0.13765074557E+03 -0.70572157108E+02  0.19007347096E+03  0.47000000000E+01 0.  1.
         11    1    4    4    0    0 -0.47984696966E+02  0.20505327579E+02 -0.10391642851E+03  0.11628251681E+03  0.00000000000E+00 0. -1.
        -12    1    4    4    0    0  0.25435500424E+02 -0.63011324184E+01 -0.21055355312E+02  0.33615427096E+02  0.00000000000E+00 0.  1.
</event>
<event>
12    1  0.8449700E-002  0.2636938E+03  0.7818608E-02  0.1105738E+00
         21   -1    0    0  501  502  0.00000000000E+00  0.00000000000E+00  0.49872423526E+03  0.49872423526E+03  0.00000000000E+00 0. -1.
         21   -1    0    0  502  503 -0.00000000000E+00 -0.00000000000E+00 -0.26173481870E+03  0.26173481870E+03  0.00000000000E+00 0.  1.
         -6    2    1    2    0  503  0.20176235780E+03  0.14386369011E+02 -0.14374941737E+03  0.30033030524E+03  0.16917263553E+03 0.  0.
        -24    2    3    3    0    0  0.71380227931E+02  0.63910208957E+02 -0.61613547681E+02  0.13840284740E+03  0.78609586964E+02 0.  0.
          6    2    1    2  501    0 -0.20176235780E+03 -0.14386369011E+02  0.38073883393E+03  0.46012874872E+03  0.16075257104E+03 0.  0.
         24    2    5    5    0    0 -0.13208963007E+03 -0.58740606844E+02  0.18835352796E+03  0.25071102417E+03  0.80503645129E+02 0.  0.
          5    1    5    5  501    0 -0.69672727732E+02  0.44354237834E+02  0.19238530597E+03  0.20941772455E+03  0.47000000000E+01 0. -1.
        -11    1    6    6    0    0  0.47494951310E+01 -0.71115992717E+01 -0.36923574615E+01  0.93148296723E+01  0.00000000000E+00 0.  1.
         12    1    6    6    0    0 -0.13683912520E+03 -0.51629007572E+02  0.19204588542E+03  0.24139619450E+03  0.00000000000E+00 0. -1.
         -5    1    3    3    0  503  0.13038212987E+03 -0.49523839946E+02 -0.82135869686E+02  0.16192745784E+03  0.47000000000E+01 0.  1.
         11    1    4    4    0    0  0.13853555181E+01  0.17326780778E+02 -0.50726308930E+02  0.53621776917E+02  0.00000000000E+00 0. -1.
        -12    1    4    4    0    0  0.69994872413E+02  0.46583428178E+02 -0.10887238751E+02  0.84781070485E+02  0.00000000000E+00 0.  1.
</event>
<event>
12    1  0.8449700E-002  0.1961882E+03  0.7818608E-02  0.1153028E+00
         21   -1    0    0  503  502  0.00000000000E+00  0.00000000000E+00  0.14835703057E+04  0.14835703057E+04  0.00000000000E+00 0. -1.
         21   -1    0    0  501  503 -0.00000000000E+00 -0.00000000000E+00 -0.25928456741E+02  0.25928456741E+02  0.00000000000E+00 0.  1.
          6    2    1    2  501    0  0.68085264015E+02 -0.64806513069E+02  0.73868996185E+03  0.76429880691E+03  0.17220429493E+03 0.  0.
         24    2    3    3    0    0 -0.23132407541E+02 -0.37265571006E+02  0.47427189359E+03  0.48319709592E+03  0.81374279737E+02 0.  0.
         -6    2    1    2    0  502 -0.68085264015E+02  0.64806513069E+02  0.71895188712E+03  0.74519995555E+03  0.17203392235E+03 0.  0.
        -24    2    5    5    0    0 -0.10482571120E+03  0.29666563670E+02  0.61601289906E+03  0.63029476956E+03  0.77013440389E+02 0.  0.
          5    1    3    3  501    0  0.91217671556E+02 -0.27540942063E+02  0.26441806827E+03  0.28110171099E+03  0.47000000000E+01 0. -1.
        -11    1    4    4    0    0  0.10381702635E+02 -0.16492865603E+02  0.22746056266E+02  0.29952920409E+02  0.00000000000E+00 0.  1.
         12    1    4    4    0    0 -0.33514110176E+02 -0.20772705403E+02  0.45152583732E+03  0.45324417551E+03  0.00000000000E+00 0. -1.
         -5    1    5    5    0  502  0.36740447182E+02  0.35139949399E+02  0.10293898806E+03  0.11490518598E+03  0.47000000000E+01 0.  1.
         13    1    6    6    0    0 -0.76878462074E+02  0.33223781423E+02  0.25971060324E+03  0.27288040424E+03  0.00000000000E+00 0. -1.
        -14    1    6    6    0    0 -0.27947249123E+02 -0.35572177527E+01  0.35630229582E+03  0.35741436532E+03  0.00000000000E+00 0.  1.
</event>
<event>
12    1  0.8449700E-002  0.1741469E+03  0.7818608E-02  0.1174605E+00
         21   -1    0    0  503  502  0.00000000000E+00  0.00000000000E+00  0.27445161252E+03  0.27445161252E+03  0.00000000000E+00 0.  1.
         21   -1    0    0  501  503 -0.00000000000E+00 -0.00000000000E+00 -0.25341696360E+03  0.25341696360E+03  0.00000000000E+00 0.  1.
          6    2    1    2  501    0 -0.89810645930E+00  0.24611620326E+02 -0.18935883926E+03  0.25726236978E+03  0.17239668921E+03 0.  0.
         24    2    3    3    0    0  0.24661836880E+02 -0.47988550776E+02 -0.85624058557E+02  0.12800645976E+03  0.78377720899E+02 0.  0.
         -6    2    1    2    0  502  0.89810645930E+00 -0.24611620326E+02  0.21039348818E+03  0.27060620633E+03  0.16839168800E+03 0.  0.
        -24    2    5    5    0    0 -0.28332705710E+02 -0.26935066445E+02  0.37850555471E+02  0.95526246289E+02  0.78513433012E+02 0.  0.
          5    1    3    3  501    0 -0.25559943339E+02  0.72600171102E+02 -0.10373478071E+03  0.12925591002E+03  0.47000000000E+01 0. -1.
        -11    1    4    4    0    0  0.82001069641E+01  0.19978489877E+02 -0.36965656528E+02  0.42811699038E+02  0.00000000000E+00 0.  1.
         12    1    4    4    0    0  0.16461729916E+02 -0.67967040653E+02 -0.48658402030E+02  0.85194760725E+02  0.00000000000E+00 0. -1.
         -5    1    5    5    0  502  0.29230812169E+02  0.23234461186E+01  0.17254293271E+03  0.17507996004E+03  0.47000000000E+01 0.  1.
         13    1    6    6    0    0  0.18754746958E+02 -0.34032267823E+01 -0.12410138393E+02  0.22744977927E+02  0.00000000000E+00 0. -1.
        -14    1    6    6    0    0 -0.47087452667E+02 -0.23531839662E+02  0.50260693864E+02  0.72781268361E+02  0.00000000000E+00 0.  1.
</event>
<event>
12    1  0.8449700E-002  0.3057683E+03  0.7818608E-02  0.1082403E+00
         21   -1    0    0  501  502  0.00000000000E+00  0.00000000000E+00  0.71307875888E+03  0.71307875888E+03  0.00000000000E+00 0. -1.
         21   -1    0    0  502  503 -0.00000000000E+00 -0.00000000000E+00 -0.13211851306E+03  0.13211851306E+03  0.00000000000E+00 0.  1.
         -6    2    1    2    0  503  0.10794220392E+03  0.22880839194E+03  0.25299617428E+03  0.39686435517E+03  0.17172493296E+03 0.  0.
        -24    2    3    3    0    0  0.10220981052E+03  0.15712782364E+03  0.25124753575E+03  0.32478029354E+03  0.84975976125E+02 0.  0.
          6    2    1    2  501    0 -0.10794220392E+03 -0.22880839194E+03  0.32796407155E+03  0.44833291677E+03  0.17157264473E+03 0.  0.
         24    2    5    5    0    0  0.21180237614E+01 -0.48975036152E+02  0.81324142880E+02  0.12382308027E+03  0.79470112626E+02 0.  0.
          5    1    5    5  501    0 -0.11006022768E+03 -0.17983335579E+03  0.24663992867E+03  0.32450983650E+03  0.47000000000E+01 0. -1.
        -13    1    6    6    0    0  0.11974598109E+02 -0.51781191697E+02  0.12973303539E+02  0.54708220755E+02  0.00000000000E+00 0.  1.
         14    1    6    6    0    0 -0.98565743472E+01  0.28061555448E+01  0.68350839340E+02  0.69114859512E+02  0.00000000000E+00 0. -1.
         -5    1    3    3    0  503  0.57323933920E+01  0.71680568296E+02  0.17486385248E+01  0.72084061636E+02  0.47000000000E+01 0.  1.
         13    1    4    4    0    0  0.62307156617E+02  0.23901867764E+02  0.81714847207E+02  0.10550259382E+03  0.00000000000E+00 0. -1.
        -14    1    4    4    0    0  0.39902653907E+02  0.13322595588E+03  0.16953268855E+03  0.21927769972E+03  0.00000000000E+00 0.  1.
</event>
<event>
12    1  0.8449700E-002  0.1751556E+03  0.7818608E-02  0.1173047E+00
         21   -1    0    0  501  502  0.00000000000E+00  0.00000000000E+00  0.19990062292E+04  0.19990062292E+04  0.00000000000E+00 0. -1.
         21   -1    0    0  502  503 -0.00000000000E+00 -0.00000000000E+00 -0.26267059086E+02  0.26267059086E+02  0.00000000000E+00 0. -1.
         -6    2    1    2    0  503 -0.27799126006E+02 -0.57367619564E+01  0.16471913572E+04  0.16564778410E+04  0.17284029880E+03 0.  0.
        -24    2    3    3    0    0 -0.81277621231E+02  0.22643449372E+02  0.10527589672E+04  0.10589518232E+04  0.77192895816E+02 0.  0.
          6    2    1    2  501    0  0.27799126006E+02  0.57367619564E+01  0.32554781299E+03  0.36879544729E+03  0.17094736486E+03 0.  0.
         24    2    5    5    0    0  0.57857131968E+02  0.19189922757E+02  0.10245524278E+03  0.14323646134E+03  0.79397142455E+02 0.  0.
          5    1    5    5  501    0 -0.30058005962E+02 -0.13453160801E+02  0.22309257021E+03  0.22555898594E+03  0.47000000000E+01 0. -1.
        -13    1    6    6    0    0  0.50455787448E+02  0.31442557296E+02  0.11146081093E+03  0.12632471361E+03  0.00000000000E+00 0.  1.
         14    1    6    6    0    0  0.74013445204E+01 -0.12252634539E+02 -0.90055681441E+01  0.16911747735E+02  0.00000000000E+00 0. -1.
         -5    1    3    3    0  503  0.53478495224E+02 -0.28380211328E+02  0.59443238993E+03  0.59752601788E+03  0.47000000000E+01 0.  1.
         11    1    4    4    0    0  0.14375786548E+02  0.37504678561E+01  0.22074065400E+03  0.22124006323E+03  0.00000000000E+00 0. -1.
        -12    1    4    4    0    0 -0.95653407779E+02  0.18892981516E+02  0.83201831324E+03  0.83771175994E+03  0.00000000000E+00 0.  1.
</event>
<event>
12    1  0.8449700E-002  0.1934038E+03  0.7818608E-02  0.1155657E+00
         21   -1    0    0  503  502  0.00000000000E+00  0.00000000000E+00  0.42823257912E+03  0.42823257912E+03  0.00000000000E+00 0.  1.
         21   -1    0    0  501  503 -0.00000000000E+00 -0.00000000000E+00 -0.20772288146E+03  0.20772288146E+03  0.00000000000E+00 0.  1.
          6    2    1    2  501    0 -0.18212951011E+02  0.84783123848E+02 -0.13240303484E+03  0.23352230527E+03  0.17170385480E+03 0.  0.
         24    2    3    3    0    0  0.50190338335E+01  0.20305758337E+02 -0.14249370031E+03  0.16408911931E+03  0.78633770910E+02 0.  0.
         -6    2    1    2    0  502  0.18212951011E+02 -0.84783123848E+02  0.35291273249E+03  0.40243315530E+03  0.17287324275E+03 0.  0.
        -24    2    5    5    0    0  0.72566853004E+02 -0.86220489348E+02  0.24492703769E+03  0.28143971348E+03  0.80741176584E+02 0.  0.
          5    1    3    3  501    0 -0.23231984845E+02  0.64477365511E+02  0.10090665470E+02  0.69433185961E+02  0.47000000000E+01 0. -1.
        -11    1    4    4    0    0 -0.34603653545E+02  0.13607607335E+01 -0.84663882500E+02  0.91472605235E+02  0.00000000000E+00 0.  1.
         12    1    4    4    0    0  0.39622687379E+02  0.18944997604E+02 -0.57829817806E+02  0.72616514078E+02  0.00000000000E+00 0. -1.
         -5    1    5    5    0  502 -0.54353901993E+02  0.14373654994E+01  0.10798569481E+03  0.12099344182E+03  0.47000000000E+01 0.  1.
         13    1    6    6    0    0  0.56828898805E+01 -0.38486216338E+02  0.23962444918E+02  0.45691168205E+02  0.00000000000E+00 0. -1.
        -14    1    6    6    0    0  0.66883963123E+02 -0.47734273009E+02  0.22096459277E+03  0.23574854528E+03  0.00000000000E+00 0.  1.
</event>
<event>
12    1  0.8449700E-002  0.1821220E+03  0.7818608E-02  0.1166113E+00
         21   -1    0    0  501  502  0.00000000000E+00  0.00000000000E+00  0.27128154374E+03  0.27128154374E+03  0.00000000000E+00 0.  1.
         21   -1    0    0  502  503 -0.00000000000E+00 -0.00000000000E+00 -0.12294833447E+03  0.12294833447E+03  0.00000000000E+00 0.  1.
         -6    2    1    2    0  503  0.17280648054E+02  0.50024792467E+02  0.51583051745E+02  0.18928611212E+03  0.17426221724E+03 0.  0.
        -24    2    3    3    0    0 -0.54329741881E+02  0.42095915084E+02  0.31592488602E+02  0.11436863981E+03  0.85780612703E+02 0.  0.
          6    2    1    2  501    0 -0.17280648054E+02 -0.50024792467E+02  0.96750157532E+02  0.20494376609E+03  0.17274331714E+03 0.  0.
         24    2    5    5    0    0 -0.39623428293E+02 -0.84464924202E+02  0.27959766960E+02  0.12469708181E+03  0.77867028666E+02 0.  0.
          5    1    5    5  501    0  0.22342780238E+02  0.34440131735E+02  0.68790390573E+02  0.80246684280E+02  0.47000000000E+01 0. -1.
        -11    1    6    6    0    0  0.23736645967E+02 -0.19556368158E+02  0.88002521270E+01  0.31989440989E+02  0.00000000000E+00 0.  1.
         12    1    6    6    0    0 -0.63360074260E+02 -0.64908556044E+02  0.19159514833E+02  0.92707640821E+02  0.00000000000E+00 0. -1.
         -5    1    3    3    0  503  0.71610389935E+02  0.79288773831E+01  0.19990563144E+02  0.74917472314E+02  0.47000000000E+01 0.  1.
         13    1    4    4    0    0  0.22934557261E+02  0.12949707383E+02  0.14405667824E+02  0.30020194928E+02  0.00000000000E+00 0. -1.
        -14    1    4    4    0    0 -0.77264299141E+02  0.29146207700E+02  0.17186820778E+02  0.84348444879E+02  0.00000000000E+00 0.  1.
</event>
<event>
12    1  0.8449700E-002  0.1855383E+03  0.7818608E-02  0.1162625E+00
         21   -1    0    0  501  502  0.00000000000E+00  0.00000000000E+00  0.16423096458E+03  0.16423096458E+03  0.00000000000E+00 0.  1.
         21   -1    0    0  502  503 -0.00000000000E+00 -0.00000000000E+00 -0.49352505437E+03  0.49352505437E+03  0.00000000000E+00 0.  1.
         -6    2    1    2    0  503 -0.67738399201E+02  0.16224544024E+02 -0.41419314942E+03  0.45371601967E+03  0.17161158157E+03 0.  0.
        -24    2    3    3    0    0 -0.61486945536E+02 -0.54229586214E+02 -0.25351334942E+03  0.27809440009E+03  0.79661687974E+02 0.  0.
          6    2    1    2  501    0  0.67738399201E+02 -0.16224544024E+02  0.84899059631E+02  0.20403999928E+03  0.17196727719E+03 0.  0.
         24    2    5    5    0    0  0.49153542732E+02 -0.56514347176E+02  0.10791699320E+03  0.15383461716E+03  0.80056666273E+02 0.  0.
          5    1    5    5  501    0  0.18584856469E+02  0.40289803153E+02 -0.23017933570E+02  0.50205382121E+02  0.47000000000E+01 0. -1.
        -13    1    6    6    0    0 -0.14423134471E+02 -0.34237143753E+02  0.17462940337E+02  0.41050738185E+02  0.00000000000E+00 0.  1.
         14    1    6    6    0    0  0.63576677203E+02 -0.22277203423E+02  0.90454052864E+02  0.11278387897E+03  0.00000000000E+00 0. -1.
         -5    1    3    3    0  503 -0.62514536652E+01  0.70454130237E+02 -0.16067979999E+03  0.17562161959E+03  0.47000000000E+01 0.  1.
         13    1    4    4    0    0 -0.39040343463E+02 -0.55912133646E+02 -0.89374956016E+02  0.11241973968E+03  0.00000000000E+00 0. -1.
        -14    1    4    4    0    0 -0.22446602073E+02  0.16825474325E+01 -0.16413839341E+03  0.16567466041E+03  0.00000000000E+00 0.  1.
</event>
<event>
12    1  0.8449700E-002  0.6255891E+03  0.7818608E-02  0.9853790E-01
         21   -1    0    0  501  502  0.00000000000E+00  0.00000000000E+00  0.19465881740E+04  0.19465881740E+04  0.00000000000E+00 0. -1.
         21   -1    0    0  502  503 -0.00000000000E+00 -0.00000000000E+00 -0.21862370860E+03  0.21862370860E+03  0.00000000000E+00 0.  1.
         -6    2    1    2    0  503  0.60057006186E+03  0.30182240777E+02  0.55637694755E+03  0.83706314933E+03  0.17182561314E+03 0.  0.
        -24    2    3    3    0    0  0.30205526743E+03  0.77646952933E+02  0.31428413869E+03  0.44977127038E+03  0.79077442715E+02 0.  0.
          6    2    1    2  501    0 -0.60057006186E+03 -0.30182240777E+02  0.11715875179E+04  0.13281487333E+04  0.17252935643E+03 0.  0.
         24    2    5    5    0    0 -0.12219169798E+03 -0.17116828289E+02  0.27162261181E+03  0.30884726356E+03  0.79899887972E+02 0.  0.
          5    1    5    5  501    0 -0.47837836388E+03 -0.13065412488E+02  0.89996490605E+03  0.10193014697E+04  0.47000000000E+01 0. -1.
        -13    1    6    6    0    0 -0.97674795717E+01  0.22296935862E+02  0.24654583672E+02  0.34646868575E+02  0.00000000000E+00 0.  1.
         14    1    6    6    0    0 -0.11242421841E+03 -0.39413764151E+02  0.24696802814E+03  0.27420039499E+03  0.00000000000E+00 0. -1.
         -5    1    3    3    0  503  0.29851479443E+03 -0.47464712156E+02  0.24209280886E+03  0.38729187894E+03  0.47000000000E+01 0.  1.
         13    1    4    4    0    0  0.20560868390E+03  0.34322861806E+02  0.16020511001E+03  0.26290429249E+03  0.00000000000E+00 0. -1.
        -14    1    4    4    0    0  0.96446583531E+02  0.43324091127E+02  0.15407902868E+03  0.18686697789E+03  0.00000000000E+00 0.  1.
</event>
<event>
12    1  0.8449700E-002  0.2077671E+03  0.7818608E-02  0.1143415E+00
         21   -1    0    0  501  502  0.00000000000E+00  0.00000000000E+00  0.24794223850E+03  0.24794223850E+03  0.00000000000E+00 0. -1.
         21   -1    0    0  502  503 -0.00000000000E+00 -0.00000000000E+00 -0.19423585166E+03  0.19423585166E+03  0.00000000000E+00 0.  1.
         -6    2    1    2    0  503  0.32857355444E+02  0.11051164961E+03 -0.44814504447E+02  0.21254526397E+03  0.17284304707E+03 0.  0.
        -24    2    3    3    0    0  0.26622427461E+02  0.82189333618E+02 -0.96964436866E+02  0.15268932557E+03  0.80299987064E+02 0.  0.
          6    2    1    2  501    0 -0.32857355444E+02 -0.11051164961E+03  0.98520891286E+02  0.22963282618E+03  0.17243096687E+03 0.  0.
         24    2    5    5    0    0  0.28567559927E+02 -0.42637829104E+02 -0.15859715800E+01  0.93900185558E+02  0.78617043897E+02 0.  0.
          5    1    5    5  501    0 -0.61424915371E+02 -0.67873820505E+02  0.10010686287E+03  0.13573264063E+03  0.47000000000E+01 0. -1.
        -11    1    6    6    0    0 -0.12302186307E+02  0.13581741313E+02 -0.14296719185E+02  0.23242281826E+02  0.00000000000E+00 0.  1.
         12    1    6    6    0    0  0.40869746233E+02 -0.56219570418E+02  0.12710747605E+02  0.70657903732E+02  0.00000000000E+00 0. -1.
         -5    1    3    3    0  503  0.62349279833E+01  0.28322315992E+02  0.52149932419E+02  0.59855938397E+02  0.47000000000E+01 0.  1.
         13    1    4    4    0    0  0.19208940143E+02 -0.12139211516E+02 -0.25209807605E+02  0.33939331713E+02  0.00000000000E+00 0. -1.
        -14    1    4    4    0    0  0.74134873179E+01  0.94328545133E+02 -0.71754629261E+02  0.11874999386E+03  0.00000000000E+00 0.  1.
</event>
<event>
12    1  0.8449700E-002  0.2527411E+03  0.7818608E-02  0.1111716E+00
         21   -1    0    0  501  502  0.00000000000E+00  0.00000000000E+00  0.28216970615E+03  0.28216970615E+03  0.00000000000E+00 0. -1.
         21   -1    0    0  502  503 -0.00000000000E+00 -0.00000000000E+00 -0.22631402448E+03  0.22631402448E+03  0.00000000000E+00 0.  1.
         -6    2    1    2    0  503  0.18330142965E+03 -0.45419299812E+01  0.41898567768E+02  0.25535751587E+03  0.17271921633E+03 0.  0.
        -24    2    3    3    0    0  0.78745767212E+02  0.14918597176E+02  0.84130954389E+02  0.14083126060E+03  0.79573651929E+02 0.  0.
          6    2    1    2  501    0 -0.18330142965E+03  0.45419299812E+01  0.13957113900E+02  0.25312621475E+03  0.17394837259E+03 0.  0.
         24    2    5    5    0    0 -0.20930705466E+02  0.10485697831E+02 -0.21128712974E+02  0.86835247783E+02  0.80906695985E+02 0.  0.
          5    1    5    5  501    0 -0.16237072419E+03 -0.59437678501E+01  0.35085826874E+02  0.16629096697E+03  0.47000000000E+01 0. -1.
        -11    1    6    6    0    0 -0.14063204783E+02  0.41060916461E+02  0.79040759175E+01  0.44116289571E+02  0.00000000000E+00 0.  1.
         12    1    6    6    0    0 -0.68675006829E+01 -0.30575218630E+02 -0.29032788891E+02  0.42718958212E+02  0.00000000000E+00 0. -1.
         -5    1    3    3    0  503  0.10455566244E+03 -0.19460527157E+02 -0.42232386621E+02  0.11452625527E+03  0.47000000000E+01 0.  1.
         11    1    4    4    0    0  0.94495605296E+02  0.14606401731E+02  0.79669306184E+02  0.12445868688E+03  0.00000000000E+00 0. -1.
        -12    1    4    4    0    0 -0.15749838084E+02  0.31219544501E+00  0.44616482045E+01  0.16372573725E+02  0.00000000000E+00 0.  1.
</event>
<event>
12    1  0.8449700E-002  0.2115015E+03  0.7818608E-02  0.1144111E+00
         21   -1    0    0  503  502  0.00000000000E+00  0.00000000000E+00  0.10803278658E+03  0.10803278658E+03  0.00000000000E+00 0.  1.
         21   -1    0    0  501  503 -0.00000000000E+00 -0.00000000000E+00 -0.46815598744E+03  0.46815598744E+03  0.00000000000E+00 0.  1.
          6    2    1    2  501    0 -0.23354435539E+02  0.84308740740E+02 -0.29890498902E+03  0.35600579693E+03  0.17246026083E+03 0.  0.
         24    2    3    3    0    0 -0.22913949454E+02  0.12729103753E+03 -0.21482732308E+03  0.26146048624E+03  0.74045592771E+02 0.  0.
         -6    2    1    2    0  502  0.23354435539E+02 -0.84308740740E+02 -0.61218211843E+02  0.22018297709E+03  0.19256032954E+03 0.  0.
        -24    2    5    5    0    0  0.43941671800E+02 -0.12919571246E+03 -0.28822657765E+02  0.16093572862E+03  0.80294212175E+02 0.  0.
          5    1    3    3  501    0 -0.44048608495E+00 -0.42982296785E+02 -0.84077665937E+02  0.94545310695E+02  0.47000000000E+01 0. -1.
        -13    1    4    4    0    0  0.16974735217E+02  0.95337573969E+02 -0.12513118929E+03  0.15822518503E+03  0.00000000000E+00 0.  1.
         14    1    4    4    0    0 -0.39888684671E+02  0.31953463556E+02 -0.89696133789E+02  0.10323530120E+03  0.00000000000E+00 0. -1.
         -5    1    5    5    0  502 -0.20587236261E+02  0.44886971717E+02 -0.32395554078E+02  0.59247248466E+02  0.47000000000E+01 0.  1.
         13    1    6    6    0    0  0.15063690988E+02 -0.12716250577E+02 -0.35648256212E+02  0.40735929913E+02  0.00000000000E+00 0. -1.
        -14    1    6    6    0    0  0.28877980811E+02 -0.11647946188E+03  0.68255984469E+01  0.12019979871E+03  0.00000000000E+00 0.  1.
</event>
<event>
12    1  0.8449700E-002  0.2009240E+03  0.7818608E-02  0.1149136E+00
         21   -1    0    0  501  502  0.00000000000E+00  0.00000000000E+00  0.84851268983E+02  0.84851268983E+02  0.00000000000E+00 0. -1.
         21   -1    0    0  502  503 -0.00000000000E+00 -0.00000000000E+00 -0.88970865284E+03  0.88970865284E+03  0.00000000000E+00 0. -1.
         -6    2    1    2    0  503  0.92016074572E+02 -0.45006743011E+02 -0.73602331618E+03  0.76295530080E+03  0.17285226109E+03 0.  0.
        -24    2    3    3    0    0  0.53366698982E+02  0.63064858681E+00 -0.63777508254E+03  0.64784078756E+03  0.10046008083E+03 0.  0.
          6    2    1    2  501    0 -0.92016074572E+02  0.45006743011E+02 -0.68834067672E+02  0.21160462102E+03  0.17188898123E+03 0.  0.
         24    2    5    5    0    0 -0.17822453658E+02  0.66924722148E+02  0.22922602256E+01  0.10640891904E+03  0.80752989454E+02 0.  0.
          5    1    5    5  501    0 -0.74193620914E+02 -0.21917979137E+02 -0.71126327898E+02  0.10519570197E+03  0.47000000000E+01 0. -1.
        -11    1    6    6    0    0 -0.33622679865E+02  0.53990760654E+02 -0.28309917674E+02  0.69619956019E+02  0.00000000000E+00 0.  1.
         12    1    6    6    0    0  0.15800226207E+02  0.12933961493E+02  0.30602177900E+02  0.36788963023E+02  0.00000000000E+00 0. -1.
         -5    1    3    3    0  503  0.38649375590E+02 -0.45637391598E+02 -0.98248233645E+02  0.11511451325E+03  0.47000000000E+01 0.  1.
         13    1    4    4    0    0  0.48665010759E+02  0.29675492588E+02 -0.17326478908E+03  0.18239957584E+03  0.00000000000E+00 0. -1.
        -14    1    4    4    0    0  0.47016882222E+01 -0.29044844001E+02 -0.46451029346E+03  0.46544121171E+03  0.00000000000E+00 0.  1.
</event>
<event>
12    1  0.8449700E-002  0.2320581E+03  0.7818608E-02  0.1125205E+00
         21   -1    0    0  503  502  0.00000000000E+00  0.00000000000E+00  0.36659863588E+03  0.36659863588E+03  0.00000000000E+00 0.  1.
         21   -1    0    0  501  503 -0.00000000000E+00 -0.00000000000E+00 -0.15052030440E+03  0.15052030440E+03  0.00000000000E+00 0.  1.
          6    2    1    2  501    0 -0.74550538722E+01 -0.15606703574E+03  0.67790678607E+02  0.24172797562E+03  0.17153524600E+03 0.  0.
         24    2    3    3    0    0 -0.13357055303E+02 -0.18338907907E+03  0.46020452337E+02  0.20598779621E+03  0.80641954998E+02 0.  0.
         -6    2    1    2    0  502  0.74550538722E+01  0.15606703574E+03  0.14828765288E+03  0.27539096466E+03  0.17157639100E+03 0.  0.
        -24    2    5    5    0    0 -0.24492237861E+02  0.56200246766E+02  0.13757799839E+03  0.16988839745E+03  0.78587686651E+02 0.  0.
          5    1    3    3  501    0  0.59020014309E+01  0.27322043331E+02  0.21770226270E+02  0.35740179414E+02  0.47000000000E+01 0. -1.
        -13    1    4    4    0    0 -0.35782024343E+02 -0.33146872628E+02  0.84228215506E+01  0.49497599477E+02  0.00000000000E+00 0.  1.
         14    1    4    4    0    0  0.22424969040E+02 -0.15024220644E+03  0.37597630787E+02  0.15649019673E+03  0.00000000000E+00 0. -1.
         -5    1    5    5    0  502  0.31947291733E+02  0.99866788970E+02  0.10709654480E+02  0.10550256721E+03  0.47000000000E+01 0.  1.
         13    1    6    6    0    0  0.87968144136E+01 -0.15869878250E+02  0.13618125537E+02  0.22686787402E+02  0.00000000000E+00 0. -1.
        -14    1    6    6    0    0 -0.33289052275E+02  0.72070125016E+02  0.12395987286E+03  0.14720161005E+03  0.00000000000E+00 0.  1.
</event>
<event>
12    1  0.8449700E-002  0.2635341E+03  0.7818608E-02  0.1105173E+00
         21   -1    0    0  501  502  0.00000000000E+00  0.00000000000E+00  0.52850795481E+02  0.52850795481E+02  0.00000000000E+00 0.  1.
         21   -1    0    0  502  503 -0.00000000000E+00 -0.00000000000E+00 -0.13391492202E+04  0.13391492202E+04  0.00000000000E+00 0.  1.
         -6    2    1    2    0  503  0.11248705174E+03 -0.16384093936E+03 -0.53858795524E+03  0.59920673396E+03  0.17168149080E+03 0.  0.
        -24    2    3    3    0    0  0.86785188559E+02 -0.49002649220E+02 -0.16845561658E+03  0.21078884461E+03  0.78241380802E+02 0.  0.
          6    2    1    2  501    0 -0.11248705174E+03  0.16384093936E+03 -0.74771046953E+03  0.79279328176E+03  0.17306949803E+03 0.  0.
         24    2    5    5    0    0 -0.68292382965E+02  0.20872467440E+02 -0.21243562607E+03  0.23697460562E+03  0.76997136420E+02 0.  0.
          5    1    5    5  501    0 -0.44194668777E+02  0.14296847192E+03 -0.53527484346E+03  0.55581867614E+03  0.47000000000E+01 0. -1.
        -11    1    6    6    0    0 -0.14709150529E+02  0.59215544307E+01 -0.15916276027E+03  0.15995064293E+03  0.00000000000E+00 0.  1.
         12    1    6    6    0    0 -0.53583232436E+02  0.14950913010E+02 -0.53272865795E+02  0.77023962688E+02  0.00000000000E+00 0. -1.
         -5    1    3    3    0  503  0.25701863183E+02 -0.11483829014E+03 -0.37013233865E+03  0.38841788935E+03  0.47000000000E+01 0.  1.
         11    1    4    4    0    0  0.30566950413E+02 -0.53541452651E+02 -0.49232472378E+02  0.78897794304E+02  0.00000000000E+00 0. -1.
        -12    1    4    4    0    0  0.56218238146E+02  0.45388034306E+01 -0.11922314420E+03  0.13189105031E+03  0.00000000000E+00 0.  1.
</event>
<event>
12    1  0.8449700E-002  0.1970809E+03  0.7818608E-02  0.1152855E+00
         21   -1    0    0  503  502  0.00000000000E+00  0.00000000000E+00  0.22269173975E+03  0.22269173975E+03  0.00000000000E+00 0.  1.
         21   -1    0    0  501  503 -0.00000000000E+00 -0.00000000000E+00 -0.63285476986E+03  0.63285476986E+03  0.00000000000E+00 0.  1.
          6    2    1    2  501    0  0.47441339134E+02 -0.78970504242E+02 -0.56976597949E+03  0.60194448553E+03  0.17092943305E+03 0.  0.
         24    2    3    3    0    0 -0.30487849647E+02  0.25175506673E+01 -0.26515611779E+03  0.27710218625E+03  0.74444662585E+02 0.  0.
         -6    2    1    2    0  502 -0.47441339134E+02  0.78970504242E+02  0.15960294937E+03  0.25360202408E+03  0.17422360336E+03 0.  0.
        -24    2    5    5    0    0  0.36253133556E+02  0.88126206561E+02  0.11294223428E+03  0.15722825183E+03  0.53705278277E+02 0.  0.
          5    1    3    3  501    0  0.77929188781E+02 -0.81488054909E+02 -0.30460986170E+03  0.32484229928E+03  0.47000000000E+01 0. -1.
        -11    1    4    4    0    0 -0.24294529385E+02  0.26297918908E+02 -0.55729719029E+02  0.66239008749E+02  0.00000000000E+00 0.  1.
         12    1    4    4    0    0 -0.61933202622E+01 -0.23780368240E+02 -0.20942639876E+03  0.21086317751E+03  0.00000000000E+00 0. -1.
         -5    1    5    5    0  502 -0.83694472690E+02 -0.91557023190E+01  0.46660715087E+02  0.96373772243E+02  0.47000000000E+01 0.  1.
         13    1    6    6    0    0  0.21184692369E+02  0.36589753174E+02  0.13792132698E+02  0.44472734934E+02  0.00000000000E+00 0. -1.
        -14    1    6    6    0    0  0.15068441187E+02  0.51536453387E+02  0.99150101584E+02  0.11275551690E+03  0.00000000000E+00 0.  1.
</event>
<event>
12    1  0.8449700E-002  0.1831143E+03  0.7818608E-02  0.1164930E+00
         21   -1    0    0  503  502  0.00000000000E+00  0.00000000000E+00  0.31999376330E+02  0.31999376330E+02  0.00000000000E+00 0.  1.
         21   -1    0    0  501  503 -0.00000000000E+00 -0.00000000000E+00 -0.11073497988E+04  0.11073497988E+04  0.00000000000E+00 0.  1.
          6    2    1    2  501    0 -0.18272253763E+02  0.58315177991E+02 -0.67319520845E+03  0.69765510227E+03  0.17261609949E+03 0.  0.
         24    2    3    3    0    0  0.26690104383E+02  0.92443044149E+02 -0.50603432142E+03  0.52115814182E+03  0.79227496731E+02 0.  0.
         -6    2    1    2    0  502  0.18272253763E+02 -0.58315177991E+02 -0.40215521404E+03  0.44169407288E+03  0.17213454794E+03 0.  0.
        -24    2    5    5    0    0  0.39331311462E+02 -0.67444418019E+02 -0.40320304666E+03  0.41824167667E+03  0.79105636235E+02 0.  0.
          5    1    3    3  501    0 -0.44962358146E+02 -0.34127866158E+02 -0.16716088702E+03  0.17649696045E+03  0.47000000000E+01 0. -1.
        -11    1    4    4    0    0 -0.87187777049E+01  0.14188937042E+02 -0.26053996746E+03  0.26107167151E+03  0.00000000000E+00 0.  1.
         12    1    4    4    0    0  0.35408882088E+02  0.78254107107E+02 -0.24549435396E+03  0.26008647031E+03  0.00000000000E+00 0. -1.
         -5    1    5    5    0  502 -0.21059057699E+02  0.91292400280E+01  0.10478326221E+01  0.23452396207E+02  0.47000000000E+01 0.  1.
         13    1    6    6    0    0  0.26893048609E+02  0.12315290838E+02 -0.13236516596E+03  0.13562978880E+03  0.00000000000E+00 0. -1.
        -14    1    6    6    0    0  0.12438262853E+02 -0.79759708857E+02 -0.27083788071E+03  0.28261188787E+03  0.00000000000E+00 0.  1.
</event>
<event>
12    1  0.8449700E-002  0.3017208E+03  0.7818608E-02  0.1084543E+00
         21   -1    0    0  503  502  0.00000000000E+00  0.00000000000E+00  0.32873015932E+03  0.32873015932E+03  0.00000000000E+00 0.  1.
         21   -1    0    0  501  503 -0.00000000000E+00 -0.00000000000E+00 -0.37516200686E+03  0.37516200686E+03  0.00000000000E+00 0.  1.
          6    2    1    2  501    0 -0.12704350895E+03  0.21085585944E+03 -0.20434432311E+03  0.36334587698E+03  0.17223059341E+03 0.  0.
         24    2    3    3    0    0 -0.77363166189E+02  0.51446966620E+02 -0.11255995345E+03  0.17275261351E+03  0.92422251098E+02 0.  0.
         -6    2    1    2    0  502  0.12704350895E+03 -0.21085585944E+03  0.15791247557E+03  0.34054628920E+03  0.17445680991E+03 0.  0.
        -24    2    5    5    0    0  0.20803602056E+01 -0.11986866807E+03  0.98813704498E+02  0.17498901126E+03  0.80524408606E+02 0.  0.
          5    1    3    3  501    0 -0.49680342762E+02  0.15940889282E+03 -0.91784369661E+02  0.19059326347E+03  0.47000000000E+01 0. -1.
        -13    1    4    4    0    0 -0.88379014770E+02  0.11130388908E+02 -0.72373329586E+02  0.11477209872E+03  0.00000000000E+00 0.  1.
         14    1    4    4    0    0  0.11015848580E+02  0.40316577712E+02 -0.40186623863E+02  0.57980514795E+02  0.00000000000E+00 0. -1.
         -5    1    5    5    0  502  0.12496314875E+03 -0.90987191364E+02  0.59098771068E+02  0.16555727794E+03  0.47000000000E+01 0.  1.
         11    1    6    6    0    0 -0.14940243488E+02 -0.62455285302E+02  0.59510579366E+01  0.64492547075E+02  0.00000000000E+00 0. -1.
        -12    1    6    6    0    0  0.17020603693E+02 -0.57413382771E+02  0.92862646562E+02  0.11049646419E+03  0.00000000000E+00 0.  1.
</event>
<event>
12    1  0.8449700E-002  0.1744980E+03  0.7818608E-02  0.1173414E+00
         21   -1    0    0  503  502  0.00000000000E+00  0.00000000000E+00  0.84061841403E+03  0.84061841403E+03  0.00000000000E+00 0.  1.
         21   -1    0    0  501  503 -0.00000000000E+00 -0.00000000000E+00 -0.53610161750E+02  0.53610161750E+02  0.00000000000E+00 0.  1.
          6    2    1    2  501    0 -0.32633032320E+01 -0.28353465514E+02  0.13834356040E+03  0.22268471561E+03  0.17214811561E+03 0.  0.
         24    2    3    3    0    0 -0.18114533065E+01 -0.60728129843E+02  0.24331367587E+02  0.10406306131E+03  0.80906848680E+02 0.  0.
         -6    2    1    2    0  502  0.32633032320E+01  0.28353465514E+02  0.64866469188E+03  0.67154386017E+03  0.17143717650E+03 0.  0.
        -24    2    5    5    0    0 -0.16621458701E+02  0.26219177169E+02  0.64503110140E+03  0.65068116802E+03  0.79731690719E+02 0.  0.
          5    1    3    3  501    0 -0.14518499255E+01  0.32374664329E+02  0.11401219281E+03  0.11862165430E+03  0.47000000000E+01 0. -1.
        -13    1    4    4    0    0 -0.54449858995E+01  0.17628025943E+02 -0.68108686081E+01  0.19666802010E+02  0.00000000000E+00 0.  1.
         14    1    4    4    0    0  0.36335325930E+01 -0.78356155786E+02  0.31142236195E+02  0.84396259300E+02  0.00000000000E+00 0. -1.
         -5    1    5    5    0  502  0.19884761933E+02  0.21342883446E+01  0.36335904792E+01  0.20862692147E+02  0.47000000000E+01 0.  1.
         13    1    6    6    0    0 -0.39612824705E+02  0.39080235077E+02  0.34095191159E+03  0.34546294544E+03  0.00000000000E+00 0. -1.
        -14    1    6    6    0    0  0.22991366004E+02 -0.12861057908E+02  0.30407918980E+03  0.30521822258E+03  0.00000000000E+00 0.  1.
</event>
<event>
12    1  0.8449700E-002  0.2341780E+03  0.7818608E-02  0.1123849E+00
         21   -1    0    0  501  502  0.00000000000E+00  0.00000000000E+00  0.72583126049E+03  0.72583126049E+03  0.00000000000E+00 0.  1.
         21   -1    0    0  502  503 -0.00000000000E+00 -0.00000000000E+00 -0.30542820391E+03  0.30542820391E+03  0.00000000000E+00 0. -1.
         -6    2    1    2    0  503  0.15610702606E+03 -0.28655171197E+02 -0.23726546407E+03  0.33336799905E+03  0.17218826884E+03 0.  0.
        -24    2    3    3    0    0  0.10871272601E+03 -0.53198853161E+02 -0.23877069079E+03  0.27976792712E+03  0.81302370763E+02 0.  0.
          6    2    1    2  501    0 -0.15610702606E+03  0.28655171197E+02  0.65766852065E+03  0.69789146535E+03  0.17127198234E+03 0.  0.
         24    2    5    5    0    0 -0.15356897548E+02 -0.18841925714E+02  0.20110938120E+03  0.21775095393E+03  0.79872662807E+02 0.  0.
          5    1    5    5  501    0 -0.14075012852E+03  0.47497096912E+02  0.45655913945E+03  0.48014051142E+03  0.47000000000E+01 0. -1.
        -13    1    6    6    0    0 -0.38159959336E+02 -0.13708148565E+02  0.18493174877E+03  0.18932471454E+03  0.00000000000E+00 0.  1.
         14    1    6    6    0    0  0.22803061788E+02 -0.51337771500E+01  0.16177632433E+02  0.28426239390E+02  0.00000000000E+00 0. -1.
         -5    1    3    3    0  503  0.47394300059E+02  0.24543681964E+02  0.15052267285E+01  0.53600071921E+02  0.47000000000E+01 0.  1.
         13    1    4    4    0    0  0.69435690756E+02  0.32400862137E+01 -0.75591801914E+02  0.10269339719E+03  0.00000000000E+00 0. -1.
        -14    1    4    4    0    0  0.39277035249E+02 -0.56438939375E+02 -0.16317888888E+03  0.17707452994E+03  0.00000000000E+00 0.  1.
</event>
<event>
12    1  0.8449700E-002  0.1824303E+03  0.7818608E-02  0.1165525E+00
         21   -1    0    0  503  502  0.00000000000E+00  0.00000000000E+00  0.41199618307E+03  0.41199618307E+03  0.00000000000E+00 0.  1.
         21   -1    0    0  501  503 -0.00000000000E+00 -0.00000000000E+00 -0.80765500124E+02  0.80765500124E+02  0.00000000000E+00 0.  1.
          6    2    1    2  501    0 -0.59983972181E+02 -0.96197180835E+01  0.15748832794E+03  0.24083466139E+03  0.17177934915E+03 0.  0.
         24    2    3    3    0    0 -0.88244121101E+02  0.33560627349E+02  0.13604781983E+03  0.18475468603E+03  0.81926455505E+02 0.  0.
         -6    2    1    2    0  502  0.59983972181E+02  0.96197180835E+01  0.17374235500E+03  0.25192702181E+03  0.17201802958E+03 0.  0.
        -24    2    5    5    0    0  0.93679191763E+02 -0.30335068674E+02  0.14024586006E+03  0.18967063273E+03  0.81302154304E+02 0.  0.
          5    1    3    3  501    0  0.28260148919E+02 -0.43180345432E+02  0.21440508115E+02  0.56079975364E+02  0.47000000000E+01 0. -1.
        -11    1    4    4    0    0 -0.77118242692E+02 -0.71193636059E+01  0.60669844204E+02  0.98380580857E+02  0.00000000000E+00 0.  1.
         12    1    4    4    0    0 -0.11125878409E+02  0.40679990955E+02  0.75377975624E+02  0.86374105168E+02  0.00000000000E+00 0. -1.
         -5    1    5    5    0  502 -0.33695219582E+02  0.39954786757E+02  0.33496494942E+02  0.62256389077E+02  0.47000000000E+01 0.  1.
         13    1    6    6    0    0  0.47956582888E+01 -0.31962616149E+02  0.13897424485E+02  0.35181608502E+02  0.00000000000E+00 0. -1.
        -14    1    6    6    0    0  0.88883533475E+02  0.16275474752E+01  0.12634843558E+03  0.15448902423E+03  0.00000000000E+00 0.  1.
</event>
<event>
12    1  0.8449700E-002  0.2047274E+03  0.7818608E-02  0.1146067E+00
         21   -1    0    0  501  502  0.00000000000E+00  0.00000000000E+00  0.11851027191E+04  0.11851027191E+04  0.00000000000E+00 0.  1.
         21   -1    0    0  502  503 -0.00000000000E+00 -0.00000000000E+00 -0.39121805537E+02  0.39121805537E+02  0.00000000000E+00 0. -1.
         -6    2    1    2    0  503 -0.12284073084E+02  0.10846241578E+03  0.37956471923E+03  0.43125710268E+03  0.17320022643E+03 0.  0.
        -24    2    3    3    0    0  0.34964080562E+02  0.47596427623E+02  0.31700708541E+03  0.33189612398E+03  0.78572501970E+02 0.  0.
          6    2    1    2  501    0  0.12284073084E+02 -0.10846241578E+03  0.76641619435E+03  0.79296742198E+03  0.17172232025E+03 0.  0.
         24    2    5    5    0    0  0.56289631271E+02 -0.11452951318E+03  0.67370266830E+03  0.69005393047E+03  0.77547467433E+02 0.  0.
          5    1    5    5  501    0 -0.44005558187E+02  0.60670974008E+01  0.92713526049E+02  0.10291349151E+03  0.47000000000E+01 0. -1.
        -13    1    6    6    0    0 -0.11442601044E+02 -0.61916086062E+02  0.31611505861E+03  0.32232478203E+03  0.00000000000E+00 0.  1.
         14    1    6    6    0    0  0.67732232316E+02 -0.52613427117E+02  0.35758760969E+03  0.36772914844E+03  0.00000000000E+00 0. -1.
         -5    1    3    3    0  503 -0.47248153646E+02  0.60865988154E+02  0.62557633827E+02  0.99360978694E+02  0.47000000000E+01 0.  1.
         11    1    4    4    0    0  0.16877891062E+02  0.28804710705E+02  0.33861370907E+02  0.47551729781E+02  0.00000000000E+00 0. -1.
        -12    1    4    4    0    0  0.18086189500E+02  0.18791716919E+02  0.28314571450E+03  0.28434439420E+03  0.00000000000E+00 0.  1.
</event>
<event>
12    1  0.8449700E-002  0.2620484E+03  0.7818608E-02  0.1106046E+00
         21   -1    0    0  501  502  0.00000000000E+00  0.00000000000E+00  0.55466077946E+03  0.55466077946E+03  0.00000000000E+00 0.  1.
         21   -1    0    0  502  503 -0.00000000000E+00 -0.00000000000E+00 -0.21758954308E+03  0.21758954308E+03  0.00000000000E+00 0. -1.
         -6    2    1    2    0  503  0.19437260102E+03 -0.33170479372E+02 -0.85665939115E+02  0.27488114455E+03  0.17128923426E+03 0.  0.
        -24    2    3    3    0    0  0.35192203333E+02 -0.15969429454E+02  0.97014456451E+01  0.88464130296E+02  0.78982722471E+02 0.  0.
          6    2    1    2  501    0 -0.19437260102E+03  0.33170479372E+02  0.42273717549E+03  0.49736917799E+03  0.17259313700E+03 0.  0.
         24    2    5    5    0    0 -0.10453939495E+03  0.56806710917E+02  0.14387448877E+03  0.20340461482E+03  0.80734635125E+02 0.  0.
          5    1    5    5  501    0 -0.89833206077E+02 -0.23636231545E+02  0.27886268672E+03  0.29396456317E+03  0.47000000000E+01 0. -1.
        -11    1    6    6    0    0 -0.10104097759E+03  0.74141718390E+02  0.13248809331E+03  0.18237151211E+03  0.00000000000E+00 0.  1.
         12    1    6    6    0    0 -0.34984173536E+01 -0.17335007473E+02  0.11386395462E+02  0.21033102712E+02  0.00000000000E+00 0. -1.
         -5    1    3    3    0  503  0.15918039769E+03 -0.17201049919E+02 -0.95367384760E+02  0.18641701425E+03  0.47000000000E+01 0.  1.
         13    1    4    4    0    0  0.41263740480E+02 -0.21752084266E+02 -0.24889877540E+02  0.52871121156E+02  0.00000000000E+00 0. -1.
        -14    1    4    4    0    0 -0.60715371471E+01  0.57826548122E+01  0.34591323185E+02  0.35593009140E+02  0.00000000000E+00 0.  1.
</event>
<event>
12    1  0.8449700E-002  0.1983414E+03  0.7818608E-02  0.1151169E+00
         21   -1    0    0  503  502  0.00000000000E+00  0.00000000000E+00  0.18142868200E+03  0.18142868200E+03  0.00000000000E+00 0. -1.
         21   -1    0    0  501  503 -0.00000000000E+00 -0.00000000000E+00 -0.22747333313E+03  0.22747333313E+03  0.00000000000E+00 0. -1.
          6    2    1    2  501    0  0.92362682053E+02 -0.32732653254E+02  0.21455700876E+02  0.19938924876E+03  0.17231782785E+03 0.  0.
         24    2    3    3    0    0  0.65336326989E+02  0.46003528562E+02 -0.72667080762E+01  0.11120264563E+03  0.76993915892E+02 0.  0.
         -6    2    1    2    0  502 -0.92362682053E+02  0.32732653254E+02 -0.67500352009E+02  0.20951276637E+03  0.17244422323E+03 0.  0.
        -24    2    5    5    0    0 -0.63680102843E+02 -0.35826154793E+01 -0.10757436454E+03  0.14811646702E+03  0.79361535184E+02 0.  0.
          5    1    3    3  501    0  0.27026355065E+02 -0.78736181817E+02  0.28722408952E+02  0.88186603127E+02  0.47000000000E+01 0. -1.
        -11    1    4    4    0    0  0.19851309683E+02  0.59818930736E+02 -0.88168927930E+01  0.63640526153E+02  0.00000000000E+00 0.  1.
         12    1    4    4    0    0  0.45485017306E+02 -0.13815402174E+02  0.15501847167E+01  0.47562119477E+02  0.00000000000E+00 0. -1.
         -5    1    5    5    0  502 -0.28682579210E+02  0.36315268734E+02  0.40074012527E+02  0.61396299346E+02  0.47000000000E+01 0.  1.
         13    1    6    6    0    0 -0.27162306429E+02  0.37571254867E+02 -0.56033234939E+02  0.72726291673E+02  0.00000000000E+00 0. -1.
        -14    1    6    6    0    0 -0.36517796413E+02 -0.41153870346E+02 -0.51541129597E+02  0.75390175351E+02  0.00000000000E+00 0.  1.
</event>
<event>
12    1  0.8449700E-002  0.2060425E+03  0.7818608E-02  0.1144830E+00
         21   -1    0    0  503  502  0.00000000000E+00  0.00000000000E+00  0.22925050121E+03  0.22925050121E+03  0.00000000000E+00 0. -1.
         21   -1    0    0  501  503 -0.00000000000E+00 -0.00000000000E+00 -0.19847760801E+03  0.19847760801E+03  0.00000000000E+00 0.  1.
          6    2    1    2  501    0  0.10355186360E+03 -0.44594119727E+02 -0.40812022649E+02  0.20960453318E+03  0.17192095616E+03 0.  0.
         24    2    3    3    0    0  0.71909831303E+01 -0.16361502557E+02  0.28403185278E+02  0.87558087243E+02  0.80871927783E+02 0.  0.
         -6    2    1    2    0  502 -0.10355186360E+03  0.44594119727E+02  0.71584915850E+02  0.21812357604E+03  0.17245831461E+03 0.  0.
        -24    2    5    5    0    0 -0.11918882067E+03 -0.26204762666E+01  0.16964072438E+02  0.14410155880E+03  0.79149463837E+02 0.  0.
          5    1    3    3  501    0  0.96360880471E+02 -0.28232617170E+02 -0.69215207927E+02  0.12204644594E+03  0.47000000000E+01 0. -1.
        -13    1    4    4    0    0  0.23985298495E+02 -0.13072464351E+02 -0.21525283345E+02  0.34778178376E+02  0.00000000000E+00 0.  1.
         14    1    4    4    0    0 -0.16794315365E+02 -0.32890382058E+01  0.49928468623E+02  0.52779908866E+02  0.00000000000E+00 0. -1.
         -5    1    5    5    0  502  0.15636957073E+02  0.47214595994E+02  0.54620843412E+02  0.74022017241E+02  0.47000000000E+01 0.  1.
         13    1    6    6    0    0 -0.28575131355E+02 -0.22863056481E+02  0.33710790870E+02  0.49756154441E+02  0.00000000000E+00 0. -1.
        -14    1    6    6    0    0 -0.90613689319E+02  0.20242580214E+02 -0.16746718432E+02  0.94345404361E+02  0.00000000000E+00 0.  1.
</event>
<event>
12    1  0.8449700E-002  0.1827057E+03  0.7818608E-02  0.1165726E+00
         21   -1    0    0  503  502  0.00000000000E+00  0.00000000000E+00  0.25197314967E+02  0.25197314967E+02  0.00000000000E+00 0.  1.
         21   -1    0    0  501  503 -0.00000000000E+00 -0.00000000000E+00 -0.17462534271E+04  0.17462534271E+04  0.00000000000E+00 0.  1.
          6    2    1    2  501    0 -0.58617405442E+02 -0.11590249709E+02 -0.13074739718E+04  0.13201778485E+04  0.17265871131E+03 0.  0.
         24    2    3    3    0    0 -0.47827811853E+02  0.18354628788E+02 -0.36537999507E+03  0.37753461689E+03  0.80034081310E+02 0.  0.
         -6    2    1    2    0  502  0.58617405442E+02  0.11590249709E+02 -0.41358214037E+03  0.45127289362E+03  0.17037225001E+03 0.  0.
        -24    2    5    5    0    0 -0.18496649936E+02  0.38709935879E+02 -0.29098520613E+03  0.30384781705E+03  0.76226770543E+02 0.  0.
          5    1    3    3  501    0 -0.10789593588E+02 -0.29944878496E+02 -0.94209397670E+03  0.94264323157E+03  0.47000000000E+01 0. -1.
        -11    1    4    4    0    0 -0.39193040712E+02  0.33253595628E+01 -0.35532634062E+03  0.35749679830E+03  0.00000000000E+00 0.  1.
         12    1    4    4    0    0 -0.86347711416E+01  0.15029269225E+02 -0.10053654445E+02  0.20037818589E+02  0.00000000000E+00 0. -1.
         -5    1    5    5    0  502  0.77114055378E+02 -0.27119686170E+02 -0.12259693424E+03  0.14742507656E+03  0.47000000000E+01 0.  1.
         11    1    6    6    0    0 -0.23106709026E+02 -0.22811537221E+01 -0.22386257239E+03  0.22506349100E+03  0.00000000000E+00 0. -1.
        -12    1    6    6    0    0  0.46100590904E+01  0.40991089601E+02 -0.67122633740E+02  0.78784326053E+02  0.00000000000E+00 0.  1.
</event>
<event>
12    1  0.8449700E-002  0.1766605E+03  0.7818608E-02  0.1171273E+00
         21   -1    0    0  501  502  0.00000000000E+00  0.00000000000E+00  0.31948821461E+02  0.31948821461E+02  0.00000000000E+00 0. -1.
         21   -1    0    0  502  503 -0.00000000000E+00 -0.00000000000E+00 -0.17593578161E+04  0.17593578161E+04  0.00000000000E+00 0. -1.
         -6    2    1    2    0  503  0.32344039656E+02 -0.24748217848E+02 -0.14637904141E+04  0.14744121960E+04  0.17190211241E+03 0.  0.
        -24    2    3    3    0    0  0.58526372753E+02  0.20701446591E+02 -0.12554946139E+04  0.12595624417E+04  0.79855699809E+02 0.  0.
          6    2    1    2  501    0 -0.32344039656E+02  0.24748217848E+02 -0.26361858057E+03  0.31689444155E+03  0.17108103306E+03 0.  0.
         24    2    5    5    0    0 -0.96214843971E+01  0.62999454525E+02 -0.84656151199E+02  0.13242462626E+03  0.79423632957E+02 0.  0.
          5    1    5    5  501    0 -0.22722555259E+02 -0.38251236677E+02 -0.17896242938E+03  0.18446981529E+03  0.47000000000E+01 0. -1.
        -11    1    6    6    0    0  0.18798413347E+02 -0.96609242833E+01 -0.31808967499E+02  0.38190629947E+02  0.00000000000E+00 0.  1.
         12    1    6    6    0    0 -0.28419897744E+02  0.72660378809E+02 -0.52847183700E+02  0.94233996315E+02  0.00000000000E+00 0. -1.
         -5    1    3    3    0  503 -0.26182333096E+02 -0.45449664439E+02 -0.20829580013E+03  0.21484975429E+03  0.47000000000E+01 0.  1.
         11    1    4    4    0    0  0.47224022170E+01 -0.23097483387E+02 -0.58792435738E+03  0.58839684298E+03  0.00000000000E+00 0. -1.
        -12    1    4    4    0    0  0.53803970536E+02  0.43798929978E+02 -0.66757025655E+03  0.67116559875E+03  0.00000000000E+00 0.  1.
</event>
<event>
12    1  0.8449700E-002  0.1757264E+03  0.7818608E-02  0.1172293E+00
         21   -1    0    0  501  502  0.00000000000E+00  0.00000000000E+00  0.21238639015E+03  0.21238639015E+03  0.00000000000E+00 0.  1.
         21   -1    0    0  502  503 -0.00000000000E+00 -0.00000000000E+00 -0.31404559024E+03  0.31404559024E+03  0.00000000000E+00 0.  1.
         -6    2    1    2    0  503 -0.11569864098E+02 -0.26505109709E+02 -0.24418685873E+03  0.30017128407E+03  0.17216037641E+03 0.  0.
        -24    2    3    3    0    0 -0.47412731708E+02  0.32900621491E+02 -0.93863328809E+02  0.13454216312E+03  0.77206548548E+02 0.  0.
          6    2    1    2  501    0  0.11569864098E+02  0.26505109709E+02  0.14252765865E+03  0.22626069632E+03  0.17333028190E+03 0.  0.
         24    2    5    5    0    0  0.57704748944E+02  0.26921938757E+02  0.14740924511E+03  0.17962893426E+03  0.80513599124E+02 0.  0.
          5    1    5    5  501    0 -0.46134884846E+02 -0.41682904810E+00 -0.48815864624E+01  0.46631762058E+02  0.47000000000E+01 0. -1.
        -11    1    6    6    0    0  0.32414604183E+02  0.54826744741E+02  0.78386159086E+02  0.10100033881E+03  0.00000000000E+00 0.  1.
         12    1    6    6    0    0  0.25290144762E+02 -0.27904805984E+02  0.69023086021E+02  0.78628595454E+02  0.00000000000E+00 0. -1.
         -5    1    3    3    0  503  0.35842867610E+02 -0.59405731200E+02 -0.15032352992E+03  0.16562912095E+03  0.47000000000E+01 0.  1.
         13    1    4    4    0    0 -0.28004064693E+02 -0.30492030189E+01  0.40388589586E+01  0.28457646776E+02  0.00000000000E+00 0. -1.
        -14    1    4    4    0    0 -0.19408667015E+02  0.35949824510E+02 -0.97902187768E+02  0.10608451634E+03  0.00000000000E+00 0.  1.
</event>
<event>
12    1  0.8449700E-002  0.1863306E+03  0.7818608E-02  0.1162100E+00
         21   -1    0    0  501  502  0.00000000000E+00  0.00000000000E+00  0.10675144858E+03  0.10675144858E+03  0.00000000000E+00 0.  1.
         21   -1    0    0  502  503 -0.00000000000E+00 -0.00000000000E+00 -0.37926684640E+03  0.37926684640E+03  0.00000000000E+00 0. -1.
         -6    2    1    2    0  503 -0.72028250711E+02  0.44017350551E+00 -0.22940734324E+03  0.29476614967E+03  0.17050246686E+03 0.  0.
        -24    2    3    3    0    0  0.17504054083E+02  0.34689941992E+02 -0.10547334960E+03  0.13801537608E+03  0.80086406918E+02 0.  0.
          6    2    1    2  501    0  0.72028250711E+02 -0.44017350551E+00 -0.43108054585E+02  0.19125214532E+03  0.17184532599E+03 0.  0.
         24    2    5    5    0    0  0.73156157537E+02 -0.10405003565E+01  0.34398998586E+02  0.11359220805E+03  0.79793437064E+02 0.  0.
          5    1    5    5  501    0 -0.11279068259E+01  0.60032685101E+00 -0.77507053171E+02  0.77659937274E+02  0.47000000000E+01 0. -1.
        -11    1    6    6    0    0 -0.46029572667E+01  0.18993614058E+02  0.26470336105E+02  0.32903241240E+02  0.00000000000E+00 0.  1.
         12    1    6    6    0    0  0.77759114804E+02 -0.20034114415E+02  0.79286624808E+01  0.80688966806E+02  0.00000000000E+00 0. -1.
         -5    1    3    3    0  503 -0.89532304795E+02 -0.34249768486E+02 -0.12393399364E+03  0.15675077359E+03  0.47000000000E+01 0.  1.
         11    1    4    4    0    0 -0.24298408308E+02  0.35723786552E+02 -0.33082983975E+02  0.54415856150E+02  0.00000000000E+00 0. -1.
        -12    1    4    4    0    0  0.41802462391E+02 -0.10338445605E+01 -0.72390365623E+02  0.83599519925E+02  0.00000000000E+00 0.  1.
</event>
<event>
12    1  0.8449700E-002  0.2240879E+03  0.7818608E-02  0.1130917E+00
         21   -1    0    0  501  502  0.00000000000E+00  0.00000000000E+00  0.85489524094E+03  0.85489524094E+03  0.00000000000E+00 0.  1.
         21   -1    0    0  502  503 -0.00000000000E+00 -0.00000000000E+00 -0.64596306624E+02  0.64596306624E+02  0.00000000000E+00 0.  1.
         -6    2    1    2    0  503 -0.59498091142E+01 -0.14315604217E+03  0.25573046788E+03  0.33985474591E+03  0.17197128678E+03 0.  0.
        -24    2    3    3    0    0 -0.16269831908E+02 -0.91400759632E+02  0.25939579011E+03  0.28674507892E+03  0.79484325920E+02 0.  0.
          6    2    1    2  501    0  0.59498091142E+01  0.14315604217E+03  0.53456846643E+03  0.57963680165E+03  0.17229719640E+03 0.  0.
         24    2    5    5    0    0  0.16388565079E+02  0.17003727086E+03  0.40384864947E+03  0.44569155676E+03  0.79787051223E+02 0.  0.
          5    1    5    5  501    0 -0.10438755965E+02 -0.26881228694E+02  0.13071981696E+03  0.13394524489E+03  0.47000000000E+01 0. -1.
        -11    1    6    6    0    0  0.31162509034E+01  0.51653889609E+02  0.48560837559E+02  0.70964711483E+02  0.00000000000E+00 0.  1.
         12    1    6    6    0    0  0.13272314176E+02  0.11838338125E+03  0.35528781191E+03  0.37472684528E+03  0.00000000000E+00 0. -1.
         -5    1    3    3    0  503  0.10320022794E+02 -0.51755282537E+02 -0.36653222241E+01  0.53109666991E+02  0.47000000000E+01 0.  1.
         13    1    4    4    0    0 -0.60432847589E+01  0.13875020079E+02  0.48585931632E+02  0.50888409539E+02  0.00000000000E+00 0. -1.
        -14    1    4    4    0    0 -0.10226547149E+02 -0.10527577971E+03  0.21080985848E+03  0.23585666938E+03  0.00000000000E+00 0.  1.
</event>
<event>
12    1  0.8449700E-002  0.1972802E+03  0.7818608E-02  0.1152791E+00
         21   -1    0    0  501  502  0.00000000000E+00  0.00000000000E+00  0.73592132973E+03  0.73592132973E+03  0.00000000000E+00 0.  1.
         21   -1    0    0  502  503 -0.00000000000E+00 -0.00000000000E+00 -0.55888886717E+02  0.55888886717E+02  0.00000000000E+00 0.  1.
         -6    2    1    2    0  503 -0.88730586469E+02 -0.15487961025E+02  0.23254637443E+03  0.30276700527E+03  0.17168881532E+03 0.  0.
        -24    2    3    3    0    0 -0.81406515475E+02 -0.71897821222E+02  0.18619733829E+03  0.22924124452E+03  0.78011421865E+02 0.  0.
          6    2    1    2  501    0  0.88730586469E+02  0.15487961025E+02  0.44748606859E+03  0.48904321118E+03  0.17551776808E+03 0.  0.
         24    2    5    5    0    0  0.84099954001E+02 -0.25291823214E+02  0.42729270332E+03  0.44306174143E+03  0.77538208815E+02 0.  0.
          5    1    5    5  501    0  0.46306324689E+01  0.40779784238E+02  0.20193365269E+02  0.45981469751E+02  0.47000000000E+01 0. -1.
        -13    1    6    6    0    0  0.36105893300E+02 -0.50115892822E+02  0.19411752218E+03  0.20370775798E+03  0.00000000000E+00 0.  1.
         14    1    6    6    0    0  0.47994060701E+02  0.24824069608E+02  0.23317518114E+03  0.23935398345E+03  0.00000000000E+00 0. -1.
         -5    1    3    3    0  503 -0.73240709948E+01  0.56409860198E+02  0.46349036132E+02  0.73525760750E+02  0.47000000000E+01 0.  1.
         11    1    4    4    0    0 -0.47555194490E+02 -0.56685609809E+02  0.17574401388E+03  0.19068485335E+03  0.00000000000E+00 0. -1.
        -12    1    4    4    0    0 -0.33851320985E+02 -0.15212211414E+02  0.10453324414E+02  0.38556391167E+02  0.00000000000E+00 0.  1.
</event>
<event>
12    1  0.8449700E-002  0.2203122E+03  0.7818608E-02  0.1133652E+00
         21   -1    0    0  501  502  0.00000000000E+00  0.00000000000E+00  0.27078547366E+03  0.27078547366E+03  0.00000000000E+00 0. -1.
         21   -1    0    0  502  503 -0.00000000000E+00 -0.00000000000E+00 -0.25686201409E+03  0.25686201409E+03  0.00000000000E+00 0. -1.
         -6    2    1    2    0  503  0.13873908387E+03 -0.21459659242E+01 -0.13806740481E+03  0.26000017658E+03  0.17112669279E+03 0.  0.
        -24    2    3    3    0    0  0.10738472164E+03 -0.54293972994E+02 -0.13584367625E+03  0.19893017051E+03  0.81488615265E+02 0.  0.
          6    2    1    2  501    0 -0.13873908387E+03  0.21459659242E+01  0.15199086437E+03  0.26764731117E+03  0.17111610608E+03 0.  0.
         24    2    5    5    0    0 -0.64319036898E+01 -0.23063694098E+02  0.82198154523E+02  0.11587831159E+03  0.78089327814E+02 0.  0.
          5    1    5    5  501    0 -0.13230718018E+03  0.25209660022E+02  0.69792709851E+02  0.15176899958E+03  0.47000000000E+01 0. -1.
        -11    1    6    6    0    0  0.27071202961E+02 -0.27983155971E+02  0.17150919295E+02  0.42544812615E+02  0.00000000000E+00 0.  1.
         12    1    6    6    0    0 -0.33503106651E+02  0.49194618723E+01  0.65047235228E+02  0.73333498970E+02  0.00000000000E+00 0. -1.
         -5    1    3    3    0  503  0.31354362236E+02  0.52148007070E+02 -0.22237285598E+01  0.61070006069E+02  0.47000000000E+01 0.  1.
         13    1    4    4    0    0  0.57850973027E+02 -0.24412840944E+02 -0.12526588045E+03  0.14012231331E+03  0.00000000000E+00 0. -1.
        -14    1    4    4    0    0  0.49533748610E+02 -0.29881132050E+02 -0.10577795795E+02  0.58807857195E+02  0.00000000000E+00 0.  1.
</event>
<event>
12    1  0.8449700E-002  0.2422675E+03  0.7818608E-02  0.1118355E+00
         21   -1    0    0  501  502  0.00000000000E+00  0.00000000000E+00  0.40951493978E+03  0.40951493978E+03  0.00000000000E+00 0.  1.
         21   -1    0    0  502  503 -0.00000000000E+00 -0.00000000000E+00 -0.15803231419E+03  0.15803231419E+03  0.00000000000E+00 0. -1.
         -6    2    1    2    0  503  0.11041141823E+03 -0.12939962511E+03  0.38411204196E+02  0.24491281120E+03  0.17196488080E+03 0.  0.
        -24    2    3    3    0    0  0.12427167304E+03 -0.71882760311E+02  0.59227895904E+02  0.18201828796E+03  0.94932257688E+02 0.  0.
          6    2    1    2  501    0 -0.11041141823E+03  0.12939962511E+03  0.21307142139E+03  0.32263444276E+03  0.17250683693E+03 0.  0.
         24    2    5    5    0    0 -0.10401664344E+03  0.45357773102E+02  0.18950493358E+03  0.23499087265E+03  0.80198507997E+02 0.  0.
          5    1    5    5  501    0 -0.63947747938E+01  0.84041852010E+02  0.23566487806E+02  0.87643570109E+02  0.47000000000E+01 0. -1.
        -13    1    6    6    0    0 -0.32979155002E+02  0.99484766273E+00  0.12499026886E+03  0.12927173587E+03  0.00000000000E+00 0.  1.
         14    1    6    6    0    0 -0.71037488436E+02  0.44362925439E+02  0.64514664726E+02  0.10571913678E+03  0.00000000000E+00 0. -1.
         -5    1    3    3    0  503 -0.13860254809E+02 -0.57516864801E+02 -0.20816691708E+02  0.62894523239E+02  0.47000000000E+01 0.  1.
         13    1    4    4    0    0  0.13819255514E+02 -0.50407776137E+02 -0.49163186602E+01  0.52498437188E+02  0.00000000000E+00 0. -1.
        -14    1    4    4    0    0  0.11045241753E+03 -0.21474984174E+02  0.64144214564E+02  0.12951985078E+03  0.00000000000E+00 0.  1.
</event>
<event>
12    1  0.8449700E-002  0.2193479E+03  0.7818608E-02  0.1134594E+00
         21   -1    0    0  501  502  0.00000000000E+00  0.00000000000E+00  0.10064329246E+03  0.10064329246E+03  0.00000000000E+00 0. -1.
         21   -1    0    0  502  503 -0.00000000000E+00 -0.00000000000E+00 -0.55478832642E+03  0.55478832642E+03  0.00000000000E+00 0.  1.
         -6    2    1    2    0  503 -0.45387158679E+02 -0.12872428936E+03 -0.35151918305E+03  0.41434193391E+03  0.17170779045E+03 0.  0.
        -24    2    3    3    0    0 -0.27464047155E+02 -0.72313761484E+02 -0.33437014223E+03  0.35253930303E+03  0.80604058125E+02 0.  0.
          6    2    1    2  501    0  0.45387158679E+02  0.12872428936E+03 -0.10262585091E+03  0.24108968497E+03  0.17018294298E+03 0.  0.
         24    2    5    5    0    0 -0.32644790559E+02  0.10506406549E+03 -0.76939388330E+02  0.15547032002E+03  0.78404149907E+02 0.  0.
          5    1    5    5  501    0  0.78031949238E+02  0.23660223875E+02 -0.25686462577E+02  0.85619364956E+02  0.47000000000E+01 0. -1.
        -13    1    6    6    0    0 -0.24265541231E+02  0.23315043335E+02 -0.63962695607E+02  0.72274713187E+02  0.00000000000E+00 0.  1.
         14    1    6    6    0    0 -0.83792493285E+01  0.81749022151E+02 -0.12976692724E+02  0.83195606831E+02  0.00000000000E+00 0. -1.
         -5    1    3    3    0  503 -0.17923111524E+02 -0.56410527877E+02 -0.17149040821E+02  0.61802630875E+02  0.47000000000E+01 0.  1.
         11    1    4    4    0    0  0.25643746852E+02 -0.40243556049E+02 -0.11355032597E+03  0.12316989115E+03  0.00000000000E+00 0. -1.
        -12    1    4    4    0    0 -0.53107794007E+02 -0.32070205435E+02 -0.22081981625E+03  0.22936941189E+03  0.00000000000E+00 0.  1.
</event>
<event>
12    1  0.8449700E-002  0.1913692E+03  0.7818608E-02  0.1157404E+00
         21   -1    0    0  501  502  0.00000000000E+00  0.00000000000E+00  0.12754325667E+03  0.12754325667E+03  0.00000000000E+00 0. -1.
         21   -1    0    0  502  503 -0.00000000000E+00 -0.00000000000E+00 -0.30036736879E+03  0.30036736879E+03  0.00000000000E+00 0. -1.
         -6    2    1    2    0  503 -0.74032749077E+02  0.38707933241E+02 -0.13306515948E+03  0.23245487328E+03  0.17131777320E+03 0.  0.
        -24    2    3    3    0    0  0.36904716007E+01  0.61024387134E+02 -0.36694063585E+02  0.10656443969E+03  0.79195518168E+02 0.  0.
          6    2    1    2  501    0  0.74032749077E+02 -0.38707933241E+02 -0.39758952637E+02  0.19545575218E+03  0.17217149797E+03 0.  0.
         24    2    5    5    0    0  0.85335316501E+02  0.30958074897E+02 -0.20844219024E+02  0.12223718986E+03  0.79163946815E+02 0.  0.
          5    1    5    5  501    0 -0.11302567424E+02 -0.69666008139E+02 -0.18914733614E+02  0.73218562319E+02  0.47000000000E+01 0. -1.
        -13    1    6    6    0    0 -0.12675586156E+02  0.16628488182E+01 -0.15093866207E+02  0.19780302012E+02  0.00000000000E+00 0.  1.
         14    1    6    6    0    0  0.98010902657E+02  0.29295226079E+02 -0.57503528163E+01  0.10245688785E+03  0.00000000000E+00 0. -1.
         -5    1    3    3    0  503 -0.77723220678E+02 -0.22316453893E+02 -0.96371095896E+02  0.12589043360E+03  0.47000000000E+01 0.  1.
         13    1    4    4    0    0 -0.31585703979E+02  0.32167425838E+01 -0.17123057480E+02  0.36072194640E+02  0.00000000000E+00 0. -1.
        -14    1    4    4    0    0  0.35276175579E+02  0.57807644550E+02 -0.19571006104E+02  0.70492245048E+02  0.00000000000E+00 0.  1.
</event>
<event>
12    1  0.8449700E-002  0.1734057E+03  0.7818608E-02  0.1174631E+00
         21   -1    0    0  501  502  0.00000000000E+00  0.00000000000E+00  0.56660634041E+03  0.56660634041E+03  0.00000000000E+00 0.  1.
         21   -1    0    0  502  503 -0.00000000000E+00 -0.00000000000E+00 -0.12628281979E+03  0.12628281979E+03  0.00000000000E+00 0.  1.
         -6    2    1    2    0  503  0.24470542956E+02 -0.77999908055E+01 -0.43948734996E+02  0.17888826492E+03  0.17149306892E+03 0.  0.
        -24    2    3    3    0    0  0.23280205802E+02  0.17062040711E+02 -0.91182978096E+02  0.12529067883E+03  0.80934155279E+02 0.  0.
          6    2    1    2  501    0 -0.24470542956E+02  0.77999908055E+01  0.48427225562E+03  0.51400089528E+03  0.17034569398E+03 0.  0.
         24    2    5    5    0    0  0.50695405272E+02  0.40599258856E+01  0.24392151224E+03  0.26209917297E+03  0.81312761765E+02 0.  0.
          5    1    5    5  501    0 -0.75165948228E+02  0.37400649199E+01  0.24035074338E+03  0.25190172231E+03  0.47000000000E+01 0. -1.
        -11    1    6    6    0    0  0.50326819462E+02  0.36986904706E+02  0.14631347810E+03  0.15908630912E+03  0.00000000000E+00 0.  1.
         12    1    6    6    0    0  0.36858580948E+00 -0.32926978821E+02  0.97608034138E+02  0.10301286385E+03  0.00000000000E+00 0. -1.
         -5    1    3    3    0  503  0.11903371546E+01 -0.24862031517E+02  0.47234243100E+02  0.53597586092E+02  0.47000000000E+01 0.  1.
         13    1    4    4    0    0  0.56873381118E+01 -0.24685833421E+02 -0.21862041755E+01  0.25426672515E+02  0.00000000000E+00 0. -1.
        -14    1    4    4    0    0  0.17592867690E+02  0.41747874132E+02 -0.88996773920E+02  0.99864006310E+02  0.00000000000E+00 0.  1.
</event>
<event>
12    1  0.8449700E-002  0.1828632E+03  0.7818608E-02  0.1165158E+00
         21   -1    0    0  503  502  0.00000000000E+00  0.00000000000E+00  0.73321771955E+02  0.73321771955E+02  0.00000000000E+00 0.  1.
         21   -1    0    0  501  503 -0.00000000000E+00 -0.00000000000E+00 -0.71077253717E+03  0.71077253717E+03  0.00000000000E+00 0. -1.
          6    2    1    2  501    0  0.47924398427E+02 -0.36757350093E+02 -0.83789867703E+02  0.20114590998E+03  0.17260093981E+03 0.  0.
         24    2    3    3    0    0  0.56850157988E+02  0.15813767025E+02 -0.10589803877E+03  0.14322999881E+03  0.76278583184E+02 0.  0.
         -6    2    1    2    0  502 -0.47924398427E+02  0.36757350093E+02 -0.55366089751E+03  0.58294839914E+03  0.17216444429E+03 0.  0.
        -24    2    5    5    0    0 -0.51197439487E+01  0.80254273220E+02 -0.43564404608E+03  0.45000371897E+03  0.79061065296E+02 0.  0.
          5    1    3    3  501    0 -0.89257595610E+01 -0.52571117119E+02  0.22108171070E+02  0.57915911172E+02  0.47000000000E+01 0. -1.
        -11    1    4    4    0    0  0.20270044137E+02 -0.75735357617E+01  0.66176196139E+01  0.22627992014E+02  0.00000000000E+00 0.  1.
         12    1    4    4    0    0  0.36580113851E+02  0.23387302787E+02 -0.11251565839E+03  0.12060200680E+03  0.00000000000E+00 0. -1.
         -5    1    5    5    0  502 -0.42804654478E+02 -0.43496923126E+02 -0.11801685143E+03  0.13294468018E+03  0.47000000000E+01 0.  1.
         13    1    6    6    0    0  0.45747943832E+00  0.59788798414E+02 -0.12424470104E+03  0.13788275976E+03  0.00000000000E+00 0. -1.
        -14    1    6    6    0    0 -0.55772233870E+01  0.20465474806E+02 -0.31139934504E+03  0.31212095920E+03  0.00000000000E+00 0.  1.
</event>
<event>
12    1  0.8449700E-002  0.2288434E+03  0.7818608E-02  0.1128699E+00
         21   -1    0    0  503  502  0.00000000000E+00  0.00000000000E+00  0.28377071167E+03  0.28377071167E+03  0.00000000000E+00 0. -1.
         21   -1    0    0  501  503 -0.00000000000E+00 -0.00000000000E+00 -0.18408003666E+03  0.18408003666E+03  0.00000000000E+00 0. -1.
          6    2    1    2  501    0  0.41718242638E+02 -0.13261814107E+03  0.11826612370E+02  0.22914879154E+03  0.18177270641E+03 0.  0.
         24    2    3    3    0    0  0.71191688154E+01 -0.11669612339E+03  0.71616238267E+02  0.15810306034E+03  0.78733882965E+02 0.  0.
         -6    2    1    2    0  502 -0.41718242638E+02  0.13261814107E+03  0.87864062641E+02  0.23870195678E+03  0.17300447265E+03 0.  0.
        -24    2    5    5    0    0 -0.26928167990E+02  0.12686948584E+02 -0.74422186229E+01  0.84729184878E+02  0.78978245463E+02 0.  0.
          5    1    3    3  501    0  0.34599073823E+02 -0.15922017676E+02 -0.59789625897E+02  0.71045731196E+02  0.47000000000E+01 0. -1.
        -11    1    4    4    0    0 -0.10742143909E+02 -0.22032368245E+02  0.55176872831E+02  0.60376371219E+02  0.00000000000E+00 0.  1.
         12    1    4    4    0    0  0.17861312725E+02 -0.94663755149E+02  0.16439365436E+02  0.97726689124E+02  0.00000000000E+00 0. -1.
         -5    1    5    5    0  502 -0.14790074648E+02  0.11993119249E+03  0.95306281264E+02  0.15397277190E+03  0.47000000000E+01 0.  1.
         13    1    6    6    0    0  0.42445991154E+01  0.34788715006E+02 -0.24622779233E+02  0.42831677186E+02  0.00000000000E+00 0. -1.
        -14    1    6    6    0    0 -0.31172767105E+02 -0.22101766422E+02  0.17180560610E+02  0.41897507692E+02  0.00000000000E+00 0.  1.
</event>
<event>
12    1  0.8449700E-002  0.3069300E+03  0.7818608E-02  0.1082206E+00
         21   -1    0    0  503  502  0.00000000000E+00  0.00000000000E+00  0.40139539547E+03  0.40139539547E+03  0.00000000000E+00 0. -1.
         21   -1    0    0  501  503 -0.00000000000E+00 -0.00000000000E+00 -0.71007965745E+03  0.71007965745E+03  0.00000000000E+00 0.  1.
          6    2    1    2  501    0 -0.46577573645E+02 -0.24630815488E+03 -0.60992958835E+03  0.68141137244E+03  0.17166880388E+03 0.  0.
         24    2    3    3    0    0 -0.97292387511E+02 -0.18797582551E+03 -0.45261772794E+03  0.50607237387E+03  0.80285243394E+02 0.  0.
         -6    2    1    2    0  502  0.46577573645E+02  0.24630815488E+03  0.30124532636E+03  0.43006368048E+03  0.17711252097E+03 0.  0.
        -24    2    5    5    0    0 -0.15418918417E+02  0.21432813152E+03  0.26810151523E+03  0.35268869008E+03  0.79602755224E+02 0.  0.
          5    1    3    3  501    0  0.50714813865E+02 -0.58332329366E+02 -0.15731186041E+03  0.17533899857E+03  0.47000000000E+01 0. -1.
        -11    1    4    4    0    0 -0.69614801208E+02 -0.13853544694E+03 -0.39899880203E+03  0.42806347032E+03  0.00000000000E+00 0.  1.
         12    1    4    4    0    0 -0.27677586302E+02 -0.49440378571E+02 -0.53618925911E+02  0.78008903547E+02  0.00000000000E+00 0. -1.
         -5    1    5    5    0  502  0.61996492063E+02  0.31980023360E+02  0.33143811134E+02  0.77374990395E+02  0.47000000000E+01 0.  1.
         13    1    6    6    0    0 -0.38928700044E+02  0.17778331629E+03  0.18863485865E+03  0.26211726600E+03  0.00000000000E+00 0. -1.
        -14    1    6    6    0    0  0.23509781627E+02  0.36544815227E+02  0.79466656581E+02  0.90571424082E+02  0.00000000000E+00 0.  1.
</event>
<event>
12    1  0.8449700E-002  0.2115972E+03  0.7818608E-02  0.1140490E+00
         21   -1    0    0  503  502  0.00000000000E+00  0.00000000000E+00  0.73412529768E+03  0.73412529768E+03  0.00000000000E+00 0. -1.
         21   -1    0    0  501  503 -0.00000000000E+00 -0.00000000000E+00 -0.11905367151E+03  0.11905367151E+03  0.00000000000E+00 0.  1.
          6    2    1    2  501    0 -0.10971190424E+02 -0.12201242998E+03  0.92782530655E+01  0.21180052177E+03  0.17252818596E+03 0.  0.
         24    2    3    3    0    0 -0.72687399484E+02 -0.49167897903E+02 -0.13372573918E+02  0.11356424396E+03  0.70831289310E+02 0.  0.
         -6    2    1    2    0  502  0.10971190424E+02  0.12201242998E+03  0.60579337310E+03  0.64137844742E+03  0.17138641089E+03 0.  0.
        -24    2    5    5    0    0  0.46942647266E+02  0.14017785978E+02  0.33462777948E+03  0.34725320539E+03  0.78796747360E+02 0.  0.
          5    1    3    3  501    0  0.61716209059E+02 -0.72844532077E+02  0.22650826984E+02  0.98236277806E+02  0.47000000000E+01 0. -1.
        -13    1    4    4    0    0 -0.79078083211E+01  0.17147176280E+02 -0.85675246869E+01  0.20735514609E+02  0.00000000000E+00 0.  1.
         14    1    4    4    0    0 -0.64779591163E+02 -0.66315074183E+02 -0.48050492316E+01  0.92828729353E+02  0.00000000000E+00 0. -1.
         -5    1    5    5    0  502 -0.35971456842E+02  0.10799464400E+03  0.27116559362E+03  0.29412524203E+03  0.47000000000E+01 0.  1.
         11    1    6    6    0    0  0.14226372262E+02  0.45234715470E+02  0.16154646945E+03  0.16836220164E+03  0.00000000000E+00 0. -1.
        -12    1    6    6    0    0  0.32716275004E+02 -0.31216929492E+02  0.17308131004E+03  0.17889100375E+03  0.00000000000E+00 0.  1.
</event>
<event>
12    1  0.8449700E-002  0.2939091E+03  0.7818608E-02  0.1088417E+00
         21   -1    0    0  501  502  0.00000000000E+00  0.00000000000E+00  0.10439907633E+04  0.10439907633E+04  0.00000000000E+00 0.  1.
         21   -1    0    0  502  503 -0.00000000000E+00 -0.00000000000E+00 -0.24500403845E+03  0.24500403845E+03  0.00000000000E+00 0. -1.
         -6    2    1    2    0  503  0.33325881658E+02  0.23538148811E+03 -0.12516246472E+03  0.31944982374E+03  0.17282212815E+03 0.  0.
        -24    2    3    3    0    0  0.39866751161E+02  0.37320010572E+02 -0.50714595089E+02  0.10770538544E+03  0.77758207672E+02 0.  0.
          6    2    1    2  501    0 -0.33325881658E+02 -0.23538148811E+03  0.92414918953E+03  0.96954497796E+03  0.17161200557E+03 0.  0.
         24    2    5    5    0    0  0.10695414821E+01 -0.19429258600E+03  0.86265541077E+03  0.88784480761E+03  0.79644784976E+02 0.  0.
          5    1    5    5  501    0 -0.34395423140E+02 -0.41088902115E+02  0.61493778756E+02  0.81700170353E+02  0.47000000000E+01 0. -1.
        -11    1    6    6    0    0  0.14193723217E+02 -0.11438754882E+02  0.18278427154E+03  0.18369103629E+03  0.00000000000E+00 0.  1.
         12    1    6    6    0    0 -0.13124181735E+02 -0.18285383111E+03  0.67987113923E+03  0.70415377132E+03  0.00000000000E+00 0. -1.
         -5    1    3    3    0  503 -0.65408695025E+01  0.19806147754E+03 -0.74447869634E+02  0.21174443830E+03  0.47000000000E+01 0.  1.
         11    1    4    4    0    0 -0.23003051836E+02  0.15976251519E+02 -0.95725955621E+01  0.29597560578E+02  0.00000000000E+00 0. -1.
        -12    1    4    4    0    0  0.62869802997E+02  0.21343759053E+02 -0.41141999527E+02  0.78107824861E+02  0.00000000000E+00 0.  1.
</event>
<event>
12    1  0.8449700E-002  0.2018590E+03  0.7818608E-02  0.1148471E+00
         21   -1    0    0  503  502  0.00000000000E+00  0.00000000000E+00  0.23505194402E+03  0.23505194402E+03  0.00000000000E+00 0.  1.
         21   -1    0    0  501  503 -0.00000000000E+00 -0.00000000000E+00 -0.18425006338E+03  0.18425006338E+03  0.00000000000E+00 0. -1.
          6    2    1    2  501    0  0.10310320946E+03  0.17649736645E+02  0.79185764772E+02  0.21683504063E+03  0.17264201255E+03 0.  0.
         24    2    3    3    0    0  0.57950696975E+01  0.39148445992E+02  0.75447721824E+02  0.11699951823E+03  0.80189431238E+02 0.  0.
         -6    2    1    2    0  502 -0.10310320946E+03 -0.17649736645E+02 -0.28383884134E+02  0.20246696676E+03  0.17101299000E+03 0.  0.
        -24    2    5    5    0    0 -0.10828540320E+03 -0.48870858471E+02 -0.61997198242E+02  0.15606051823E+03  0.79982144298E+02 0.  0.
          5    1    3    3  501    0  0.97308139762E+02 -0.21498709347E+02  0.37380429486E+01  0.99835522398E+02  0.47000000000E+01 0. -1.
        -13    1    4    4    0    0 -0.25768835353E+02 -0.59989106358E+01  0.39647432911E+01  0.26753298743E+02  0.00000000000E+00 0.  1.
         14    1    4    4    0    0  0.31563905051E+02  0.45147356628E+02  0.71482978533E+02  0.90246219491E+02  0.00000000000E+00 0. -1.
         -5    1    5    5    0  502  0.51821937448E+01  0.31221121825E+02  0.33613314108E+02  0.46406448532E+02  0.47000000000E+01 0.  1.
         11    1    6    6    0    0 -0.29728476934E+02  0.22009956357E+02 -0.10908691431E+02  0.38564492327E+02  0.00000000000E+00 0. -1.
        -12    1    6    6    0    0 -0.78556926270E+02 -0.70880814828E+02 -0.51088506811E+02  0.11749602591E+03  0.00000000000E+00 0.  1.
</event>
<event>
12    1  0.8449700E-002  0.2079255E+03  0.7818608E-02  0.1143717E+00
         21   -1    0    0  503  502  0.00000000000E+00  0.00000000000E+00  0.50594781337E+02  0.50594781337E+02  0.00000000000E+00 0.  1.
         21   -1    0    0  501  503 -0.00000000000E+00 -0.00000000000E+00 -0.12776424305E+04  0.12776424305E+04  0.00000000000E+00 0.  1.
          6    2    1    2  501    0  0.11570656872E+03  0.17589577634E+02 -0.99783330232E+03  0.10187662976E+04  0.16886700855E+03 0.  0.
         24    2    3    3    0    0  0.74899238378E+02 -0.54025045913E+02 -0.62331910152E+03  0.63526027531E+03  0.80624522146E+02 0.  0.
         -6    2    1    2    0  502 -0.11570656872E+03 -0.17589577634E+02 -0.22921434679E+03  0.30947091421E+03  0.17185932235E+03 0.  0.
        -24    2    5    5    0    0 -0.46261127982E+02 -0.79482266619E+01 -0.22320163460E+03  0.23894526217E+03  0.71222204092E+02 0.  0.
          5    1    3    3  501    0  0.40807330343E+02  0.71614623547E+02 -0.37451420080E+03  0.38350602227E+03  0.47000000000E+01 0. -1.
        -11    1    4    4    0    0  0.66891367078E+02 -0.40402487368E+02 -0.60881884622E+03  0.61381365535E+03  0.00000000000E+00 0.  1.
         12    1    4    4    0    0  0.80078712993E+01 -0.13622558546E+02 -0.14500255295E+02  0.21446619959E+02  0.00000000000E+00 0. -1.
         -5    1    5    5    0  502 -0.69445440738E+02 -0.96413509720E+01 -0.60127121937E+01  0.70525652041E+02  0.47000000000E+01 0.  1.
         13    1    6    6    0    0 -0.60088900400E+02  0.92554289119E+01 -0.18604814565E+03  0.19573004730E+03  0.00000000000E+00 0. -1.
        -14    1    6    6    0    0  0.13827772417E+02 -0.17203655574E+02 -0.37153488945E+02  0.43215214866E+02  0.00000000000E+00 0.  1.
</event>
<event>
12    1  0.8449700E-002  0.1753634E+03  0.7818608E-02  0.1172503E+00
         21   -1    0    0  501  502  0.00000000000E+00  0.00000000000E+00  0.32261958804E+03  0.32261958804E+03  0.00000000000E+00 0.  1.
         21   -1    0    0  502  503 -0.00000000000E+00 -0.00000000000E+00 -0.11948177352E+03  0.11948177352E+03  0.00000000000E+00 0.  1.
         -6    2    1    2    0  503  0.17199640570E+02  0.28772945410E+02  0.14396222893E+01  0.17482903669E+03  0.17157916405E+03 0.  0.
        -24    2    3    3    0    0  0.48207277912E+02 -0.21253151908E+01  0.53534512977E+02  0.10662241152E+03  0.78574397548E+02 0.  0.
          6    2    1    2  501    0 -0.17199640570E+02 -0.28772945410E+02  0.20169819223E+03  0.26727232487E+03  0.17212967457E+03 0.  0.
         24    2    5    5    0    0 -0.67619154693E+02  0.12370204662E+02  0.11691300478E+03  0.16028866157E+03  0.85430862660E+02 0.  0.
          5    1    5    5  501    0  0.50419514123E+02 -0.41143150072E+02  0.84785187451E+02  0.10698366330E+03  0.47000000000E+01 0. -1.
        -13    1    6    6    0    0 -0.41839032433E+02 -0.34567228661E+02  0.44252215022E+02  0.70026112748E+02  0.00000000000E+00 0.  1.
         14    1    6    6    0    0 -0.25780122260E+02  0.46937433323E+02  0.72660789760E+02  0.90262548819E+02  0.00000000000E+00 0. -1.
         -5    1    3    3    0  503 -0.31007637342E+02  0.30898260601E+02 -0.52094890688E+02  0.68206625173E+02  0.47000000000E+01 0.  1.
         13    1    4    4    0    0  0.41694341291E+01 -0.31022436088E+02  0.42539687470E+02  0.52814777589E+02  0.00000000000E+00 0. -1.
        -14    1    4    4    0    0  0.44037843783E+02  0.28897120897E+02  0.10994825508E+02  0.53807633930E+02  0.00000000000E+00 0.  1.
</event>
<event>
12    1  0.8449700E-002  0.2221208E+03  0.7818608E-02  0.1132656E+00
         21   -1    0    0  501  502  0.00000000000E+00  0.00000000000E+00  0.22066631721E+03  0.22066631721E+03  0.00000000000E+00 0. -1.
         21   -1    0    0  502  503 -0.00000000000E+00 -0.00000000000E+00 -0.27311562383E+03  0.27311562383E+03  0.00000000000E+00 0. -1.
         -6    2    1    2    0  503 -0.12659682264E+03 -0.60268964246E+02 -0.13324133163E+03  0.25742417816E+03  0.16986715836E+03 0.  0.
        -24    2    3    3    0    0 -0.76433584286E+02 -0.97947888462E+02 -0.56988308682E+02  0.15856738618E+03  0.80374541809E+02 0.  0.
          6    2    1    2  501    0  0.12659682264E+03  0.60268964246E+02  0.80792025005E+02  0.23635776288E+03  0.17227459828E+03 0.  0.
         24    2    5    5    0    0  0.57433748656E+02 -0.18494946459E+02  0.85667819919E+02  0.13131897095E+03  0.79151741820E+02 0.  0.
          5    1    5    5  501    0  0.69163073988E+02  0.78763910705E+02 -0.48757949145E+01  0.10503879192E+03  0.47000000000E+01 0. -1.
        -11    1    6    6    0    0  0.50094938804E+02 -0.31572389582E+02  0.17825473935E+02  0.61839034587E+02  0.00000000000E+00 0.  1.
         12    1    6    6    0    0  0.73388098522E+01  0.13077443123E+02  0.67842345984E+02  0.69479936365E+02  0.00000000000E+00 0. -1.
         -5    1    3    3    0  503 -0.50163238358E+02  0.37678924215E+02 -0.76253022943E+02  0.98856791980E+02  0.47000000000E+01 0.  1.
         13    1    4    4    0    0 -0.43970818937E+02 -0.92191025915E+02 -0.69238222883E+02  0.12339590627E+03  0.00000000000E+00 0. -1.
        -14    1    4    4    0    0 -0.32462765349E+02 -0.57568625471E+01  0.12249914201E+02  0.35171479901E+02  0.00000000000E+00 0.  1.
</event>
<event>
12    1  0.8449700E-002  0.2533871E+03  0.7818608E-02  0.1111202E+00
         21   -1    0    0  503  502  0.00000000000E+00  0.00000000000E+00  0.11273607904E+04  0.11273607904E+04  0.00000000000E+00 0.  1.
         21   -1    0    0  501  503 -0.00000000000E+00 -0.00000000000E+00 -0.68721533424E+02  0.68721533424E+02  0.00000000000E+00 0.  1.
          6    2    1    2  501    0 -0.38558902156E+02  0.18136195944E+03  0.28163589070E+03  0.37884531763E+03  0.17270220175E+03 0.  0.
         24    2    3    3    0    0 -0.50965430016E+02  0.15794907295E+03  0.29585682635E+03  0.34840833029E+03  0.79446322843E+02 0.  0.
         -6    2    1    2    0  502  0.38558902156E+02 -0.18136195944E+03  0.77700336630E+03  0.81723700622E+03  0.17251998095E+03 0.  0.
        -24    2    5    5    0    0  0.29074728066E+02 -0.27789355285E+02  0.19553726720E+03  0.21573936806E+03  0.81798924133E+02 0.  0.
          5    1    3    3  501    0  0.12406527860E+02  0.23412886494E+02 -0.14220935650E+02  0.30436987339E+02  0.47000000000E+01 0. -1.
        -13    1    4    4    0    0 -0.25659542772E+02  0.13794977726E+03  0.18048083710E+03  0.22860858632E+03  0.00000000000E+00 0.  1.
         14    1    4    4    0    0 -0.25305887244E+02  0.19999295686E+02  0.11537598926E+03  0.11979974396E+03  0.00000000000E+00 0. -1.
         -5    1    5    5    0  502  0.94841740901E+01 -0.15357260416E+03  0.58146609910E+03  0.60149763816E+03  0.47000000000E+01 0.  1.
         11    1    6    6    0    0 -0.16498196673E+02 -0.40068677690E+02  0.10621169794E+03  0.11471100298E+03  0.00000000000E+00 0. -1.
        -12    1    6    6    0    0  0.45572924738E+02  0.12279322405E+02  0.89325569254E+02  0.10102836508E+03  0.00000000000E+00 0.  1.
</event>
<event>
12    1  0.8449700E-002  0.2080448E+03  0.7818608E-02  0.1143543E+00
         21   -1    0    0  503  502  0.00000000000E+00  0.00000000000E+00  0.34228690314E+03  0.34228690314E+03  0.00000000000E+00 0.  1.
         21   -1    0    0  501  503 -0.00000000000E+00 -0.00000000000E+00 -0.13825018803E+03  0.13825018803E+03  0.00000000000E+00 0.  1.
          6    2    1    2  501    0 -0.85228178821E+02  0.76959953664E+02  0.27701576465E+02  0.20781615091E+03  0.17097806382E+03 0.  0.
         24    2    3    3    0    0  0.31366425261E+01 -0.78550389619E+01  0.89150139147E+01  0.83812322104E+02  0.82906499745E+02 0.  0.
         -6    2    1    2    0  502  0.85228178821E+02 -0.76959953664E+02  0.17633513865E+03  0.27272094027E+03  0.17348185267E+03 0.  0.
        -24    2    5    5    0    0  0.45120814357E+02  0.23027413119E+02  0.11481154911E+03  0.14857056262E+03  0.79532198670E+02 0.  0.
          5    1    3    3  501    0 -0.88364821347E+02  0.84814992626E+02  0.18786562550E+02  0.12400382881E+03  0.47000000000E+01 0. -1.
        -13    1    4    4    0    0  0.27898519820E+02  0.18382048487E+02 -0.18784170413E+02  0.38328477309E+02  0.00000000000E+00 0.  1.
         14    1    4    4    0    0 -0.24761877294E+02 -0.26237087448E+02  0.27699184328E+02  0.45483844795E+02  0.00000000000E+00 0. -1.
         -5    1    5    5    0  502  0.40107364464E+02 -0.99987366784E+02  0.61523589542E+02  0.12415037765E+03  0.47000000000E+01 0.  1.
         13    1    6    6    0    0  0.30086677750E+02 -0.80946149140E+01  0.10919641961E+03  0.11355434392E+03  0.00000000000E+00 0. -1.
        -14    1    6    6    0    0  0.15034136607E+02  0.31122028033E+02  0.56151294985E+01  0.35016218695E+02  0.00000000000E+00 0.  1.
</event>
<event>
12    1  0.8449700E-002  0.1891424E+03  0.7818608E-02  0.1159415E+00
         21   -1    0    0  503  502  0.00000000000E+00  0.00000000000E+00  0.15718355773E+03  0.15718355773E+03  0.00000000000E+00 0. -1.
         21   -1    0    0  501  503 -0.00000000000E+00 -0.00000000000E+00 -0.28632377012E+03  0.28632377012E+03  0.00000000000E+00 0. -1.
          6    2    1    2  501    0 -0.44802694038E+02 -0.61958779874E+02 -0.16590317440E+03  0.25159234012E+03  0.17299904778E+03 0.  0.
         24    2    3    3    0    0  0.29158559179E+02  0.56337394296E+01 -0.51435524532E+02  0.99395268828E+02  0.79698467289E+02 0.  0.
         -6    2    1    2    0  502  0.44802694038E+02  0.61958779874E+02  0.36762962008E+02  0.19191498773E+03  0.17214434449E+03 0.  0.
        -24    2    5    5    0    0  0.52703981441E+02  0.64395365135E+01 -0.33146949111E+02  0.10216922237E+03  0.80750557117E+02 0.  0.
          5    1    3    3  501    0 -0.73961253217E+02 -0.67592519303E+02 -0.11446764987E+03  0.15219707129E+03  0.47000000000E+01 0. -1.
        -13    1    4    4    0    0  0.27935138456E+02  0.25706209438E+02 -0.64904557232E+02  0.75191639919E+02  0.00000000000E+00 0.  1.
         14    1    4    4    0    0  0.12234207227E+01 -0.20072470009E+02  0.13469032700E+02  0.24203628909E+02  0.00000000000E+00 0. -1.
         -5    1    5    5    0  502 -0.79012874031E+01  0.55519243360E+02  0.69909911119E+02  0.89745765352E+02  0.47000000000E+01 0.  1.
         11    1    6    6    0    0  0.60422290348E+02 -0.18585068292E+02 -0.45295907732E+01  0.63378033473E+02  0.00000000000E+00 0. -1.
        -12    1    6    6    0    0 -0.77183089066E+01  0.25024604806E+02 -0.28617358338E+02  0.38791188901E+02  0.00000000000E+00 0.  1.
</event>
<event>
12    1  0.8449700E-002  0.2763859E+03  0.7818608E-02  0.1097834E+00
         21   -1    0    0  501  502  0.00000000000E+00  0.00000000000E+00  0.32646545412E+03  0.32646545412E+03  0.00000000000E+00 0. -1.
         21   -1    0    0  502  503 -0.00000000000E+00 -0.00000000000E+00 -0.24528702074E+03  0.24528702074E+03  0.00000000000E+00 0.  1.
         -6    2    1    2    0  503 -0.61091768734E+02  0.20633920290E+03 -0.23191773841E+02  0.27735720229E+03  0.17343900492E+03 0.  0.
        -24    2    3    3    0    0 -0.77401976652E+02  0.91475726710E+02 -0.59221874373E+02  0.15578459358E+03  0.80017089577E+02 0.  0.
          6    2    1    2  501    0  0.61091768734E+02 -0.20633920290E+03  0.10437020721E+03  0.29439527257E+03  0.17166061137E+03 0.  0.
         24    2    5    5    0    0  0.67501353837E+02 -0.78063485847E+02  0.10294838737E+03  0.16586568866E+03  0.79137321292E+02 0.  0.
          5    1    5    5  501    0 -0.64095851030E+01 -0.12827571706E+03  0.14218198484E+01  0.12852958391E+03  0.47000000000E+01 0. -1.
        -13    1    6    6    0    0  0.26899820781E+02  0.10966173601E+02  0.95057818710E+01  0.30564967045E+02  0.00000000000E+00 0.  1.
         14    1    6    6    0    0  0.40601533056E+02 -0.89029659448E+02  0.93442605496E+02  0.13530072162E+03  0.00000000000E+00 0. -1.
         -5    1    3    3    0  503  0.16310207918E+02  0.11486347619E+03  0.36030100532E+02  0.12157260872E+03  0.47000000000E+01 0.  1.
         11    1    4    4    0    0  0.14788405648E+02  0.22658295018E+02 -0.15663407369E+01  0.27102558884E+02  0.00000000000E+00 0. -1.
        -12    1    4    4    0    0 -0.92190382301E+02  0.68817431692E+02 -0.57655533636E+02  0.12868203469E+03  0.00000000000E+00 0.  1.
</event>
<event>
12    1  0.8449700E-002  0.1779000E+03  0.7818608E-02  0.1170825E+00
         21   -1    0    0  501  502  0.00000000000E+00  0.00000000000E+00  0.15785514799E+03  0.15785514799E+03  0.00000000000E+00 0.  1.
         21   -1    0    0  502  503 -0.00000000000E+00 -0.00000000000E+00 -0.24691516764E+03  0.24691516764E+03  0.00000000000E+00 0.  1.
         -6    2    1    2    0  503  0.21509293013E+02  0.19403538878E+02 -0.13673122427E+03  0.22437434847E+03  0.17552570625E+03 0.  0.
        -24    2    3    3    0    0  0.21364020116E+01 -0.21939705964E+02 -0.15466683645E+03  0.17509606741E+03  0.79062555060E+02 0.  0.
          6    2    1    2  501    0 -0.21509293013E+02 -0.19403538878E+02  0.47671204621E+02  0.18039596716E+03  0.17155469743E+03 0.  0.
         24    2    5    5    0    0 -0.50696975360E+02 -0.70256640251E+02  0.27200453273E+02  0.11811354283E+03  0.75529898265E+02 0.  0.
          5    1    5    5  501    0  0.29187682347E+02  0.50853101372E+02  0.20470751348E+02  0.62282424333E+02  0.47000000000E+01 0. -1.
        -11    1    6    6    0    0 -0.35098420956E+02 -0.41798292427E+02  0.53435279102E+02  0.76382756275E+02  0.00000000000E+00 0.  1.
         12    1    6    6    0    0 -0.15598554404E+02 -0.28458347824E+02 -0.26234825829E+02  0.41730786556E+02  0.00000000000E+00 0. -1.
         -5    1    3    3    0  503  0.19372891002E+02  0.41343244842E+02  0.17935612183E+02  0.49278281060E+02  0.47000000000E+01 0.  1.
         13    1    4    4    0    0  0.23051915332E+02 -0.44544289349E+02 -0.81279753567E+02  0.95509072103E+02  0.00000000000E+00 0. -1.
        -14    1    4    4    0    0 -0.20915513320E+02  0.22604583385E+02 -0.73387082887E+02  0.79586995308E+02  0.00000000000E+00 0.  1.
</event>
<event>
12    1  0.8449700E-002  0.2175309E+03  0.7818608E-02  0.1136655E+00
         21   -1    0    0  501  502  0.00000000000E+00  0.00000000000E+00  0.22130651462E+03  0.22130651462E+03  0.00000000000E+00 0.  1.
         21   -1    0    0  502  503 -0.00000000000E+00 -0.00000000000E+00 -0.22471072138E+03  0.22471072138E+03  0.00000000000E+00 0. -1.
         -6    2    1    2    0  503  0.64285616209E+02  0.11055136377E+03  0.57033206910E+02  0.22024660636E+03  0.17000451888E+03 0.  0.
        -24    2    3    3    0    0 -0.60172502910E+01  0.65527777134E+02 -0.22375528228E+02  0.10493202095E+03  0.78612771739E+02 0.  0.
          6    2    1    2  501    0 -0.64285616209E+02 -0.11055136377E+03 -0.60437413669E+02  0.22577062964E+03  0.17597003084E+03 0.  0.
         24    2    5    5    0    0 -0.71673760133E+02 -0.41709384279E+02 -0.94099350959E+02  0.14864074676E+03  0.79765801675E+02 0.  0.
          5    1    5    5  501    0  0.73881439243E+01 -0.68841979494E+02  0.33661937291E+02  0.77129882882E+02  0.47000000000E+01 0. -1.
        -11    1    6    6    0    0  0.11223848186E+02  0.11328864486E+02 -0.78167638994E+01  0.17760060149E+02  0.00000000000E+00 0.  1.
         12    1    6    6    0    0 -0.82897608319E+02 -0.53038248765E+02 -0.86282587060E+02  0.13088068661E+03  0.00000000000E+00 0. -1.
         -5    1    3    3    0  503  0.70302866500E+02  0.45023586638E+02  0.79408735138E+02  0.11531458541E+03  0.47000000000E+01 0.  1.
         11    1    4    4    0    0  0.43567807180E+01  0.13753021428E+02 -0.45170269249E+02  0.47418143792E+02  0.00000000000E+00 0. -1.
        -12    1    4    4    0    0 -0.10374031009E+02  0.51774755706E+02  0.22794741021E+02  0.57513877161E+02  0.00000000000E+00 0.  1.
</event>
<event>
12    1  0.8449700E-002  0.3162181E+03  0.7818608E-02  0.1077574E+00
         21   -1    0    0  503  502  0.00000000000E+00  0.00000000000E+00  0.25877761557E+04  0.25877761557E+04  0.00000000000E+00 0. -1.
         21   -1    0    0  501  503 -0.00000000000E+00 -0.00000000000E+00 -0.48446382105E+02  0.48446382105E+02  0.00000000000E+00 0.  1.
          6    2    1    2  501    0 -0.24710737572E+03  0.90560935965E+02  0.66895008140E+03  0.73930026474E+03  0.17264799962E+03 0.  0.
         24    2    3    3    0    0 -0.15179754105E+03 -0.83795078581E+00  0.47049141984E+03  0.50087700364E+03  0.80451233674E+02 0.  0.
         -6    2    1    2    0  502  0.24710737572E+03 -0.90560935965E+02  0.18703796922E+04  0.18969222731E+04  0.17530139430E+03 0.  0.
        -24    2    5    5    0    0  0.17705910315E+03 -0.50450548407E+02  0.85186512564E+03  0.87520332151E+03  0.80071704561E+02 0.  0.
          5    1    3    3  501    0 -0.95309834664E+02  0.91398886751E+02  0.19845866156E+03  0.23842326110E+03  0.47000000000E+01 0. -1.
        -11    1    4    4    0    0 -0.10520073365E+03 -0.30875999141E+02  0.24072254718E+03  0.26451439735E+03  0.00000000000E+00 0.  1.
         12    1    4    4    0    0 -0.46596807401E+02  0.30038048355E+02  0.22976887266E+03  0.23636260629E+03  0.00000000000E+00 0. -1.
         -5    1    5    5    0  502  0.70048272564E+02 -0.40110387558E+02  0.10185145666E+04  0.10217189515E+04  0.47000000000E+01 0.  1.
         13    1    6    6    0    0  0.10842173659E+03 -0.58033955833E+02  0.65832761803E+03  0.66971521235E+03  0.00000000000E+00 0. -1.
        -14    1    6    6    0    0  0.68637366561E+02  0.75834074259E+01  0.19353750760E+03  0.20548810916E+03  0.00000000000E+00 0.  1.
</event>
<event>
12    1  0.8449700E-002  0.2790542E+03  0.7818608E-02  0.1096212E+00
         21   -1    0    0  503  502  0.00000000000E+00  0.00000000000E+00  0.34959536952E+03  0.34959536952E+03  0.00000000000E+00 0.  1.
         21   -1    0    0  501  503 -0.00000000000E+00 -0.00000000000E+00 -0.25676497579E+03  0.25676497579E+03  0.00000000000E+00 0. -1.
          6    2    1    2  501    0  0.14335885892E+03 -0.16624069857E+03  0.15681920423E+03  0.32009922632E+03  0.17228905822E+03 0.  0.
         24    2    3    3    0    0  0.74553657954E+02 -0.16913723524E+03  0.80144295625E+02  0.21693102766E+03  0.80438239554E+02 0.  0.
         -6    2    1    2    0  502 -0.14335885892E+03  0.16624069857E+03 -0.63988810496E+02  0.28626111899E+03  0.17222986990E+03 0.  0.
        -24    2    5    5    0    0 -0.94762783463E+02  0.32082785976E+02 -0.30826014131E+02  0.13969446138E+03  0.92493292223E+02 0.  0.
          5    1    3    3  501    0  0.68805200968E+02  0.28965366653E+01  0.76674908606E+02  0.10316819866E+03  0.47000000000E+01 0. -1.
        -13    1    4    4    0    0  0.17536640275E+02 -0.42834925993E+02  0.61702821669E+02  0.77133668647E+02  0.00000000000E+00 0.  1.
         14    1    4    4    0    0  0.57017017679E+02 -0.12630230925E+03  0.18441473955E+02  0.13979735901E+03  0.00000000000E+00 0. -1.
         -5    1    5    5    0  502 -0.48596075458E+02  0.13415791260E+03 -0.33162796365E+02  0.14656665762E+03  0.47000000000E+01 0.  1.
         11    1    6    6    0    0 -0.59374530176E+02  0.57433760063E+02 -0.44801916485E+02  0.93974376025E+02  0.00000000000E+00 0. -1.
        -12    1    6    6    0    0 -0.35388253287E+02 -0.25350974087E+02  0.13975902354E+02  0.45720085351E+02  0.00000000000E+00 0.  1.
</event>
<event>
12    1  0.8449700E-002  0.2155591E+03  0.7818608E-02  0.1137699E+00
         21   -1    0    0  503  502  0.00000000000E+00  0.00000000000E+00  0.19653136693E+04  0.19653136693E+04  0.00000000000E+00 0. -1.
         21   -1    0    0  501  503 -0.00000000000E+00 -0.00000000000E+00 -0.33521502151E+02  0.33521502151E+02  0.00000000000E+00 0. -1.
          6    2    1    2  501    0 -0.11214352708E+03 -0.66772325705E+02  0.41244176163E+03  0.46426963752E+03  0.16853300992E+03 0.  0.
         24    2    3    3    0    0 -0.98877891633E+02 -0.74780751145E+02  0.42088622320E+03  0.44600735691E+03  0.80052178844E+02 0.  0.
         -6    2    1    2    0  502  0.11214352708E+03  0.66772325705E+02  0.15193504055E+04  0.15345655339E+04  0.17155468243E+03 0.  0.
        -24    2    5    5    0    0  0.24261602492E+02  0.48230969070E+02  0.38539170823E+03  0.39704567401E+03  0.78763232201E+02 0.  0.
          5    1    3    3  501    0 -0.13265635447E+02  0.80084254398E+01 -0.84444615683E+01  0.18262280608E+02  0.47000000000E+01 0. -1.
        -11    1    4    4    0    0 -0.22607210042E+02 -0.66271977552E+02  0.17766098405E+03  0.19096200200E+03  0.00000000000E+00 0.  1.
         12    1    4    4    0    0 -0.76270681591E+02 -0.85087735934E+01  0.24322523915E+03  0.25504535490E+03  0.00000000000E+00 0. -1.
         -5    1    5    5    0  502  0.87881924587E+02  0.18541356635E+02  0.11339586973E+04  0.11375198599E+04  0.47000000000E+01 0.  1.
         11    1    6    6    0    0  0.40618916555E+02  0.44844892863E+02  0.16036462589E+03  0.17139945751E+03  0.00000000000E+00 0. -1.
        -12    1    6    6    0    0 -0.16357314063E+02  0.33860762073E+01  0.22502708234E+03  0.22564621650E+03  0.00000000000E+00 0.  1.
</event>
<event>
12    1  0.8449700E-002  0.2386769E+03  0.7818608E-02  0.1120988E+00
         21   -1    0    0  503  502  0.00000000000E+00  0.00000000000E+00  0.26003494688E+03  0.26003494688E+03  0.00000000000E+00 0.  1.
         21   -1    0    0  501  503 -0.00000000000E+00 -0.00000000000E+00 -0.22108792906E+03  0.22108792906E+03  0.00000000000E+00 0.  1.
          6    2    1    2  501    0  0.96979748714E+02 -0.13400595376E+03 -0.11731087267E+02  0.23712508081E+03  0.16949341650E+03 0.  0.
         24    2    3    3    0    0  0.89846815586E+02 -0.10435498829E+03 -0.67790370302E+02  0.17313452133E+03  0.80110013846E+02 0.  0.
         -6    2    1    2    0  502 -0.96979748714E+02  0.13400595376E+03  0.50678105082E+02  0.24399779513E+03  0.17205809016E+03 0.  0.
        -24    2    5    5    0    0 -0.11945378389E+02  0.86523996088E+01  0.45419661815E+02  0.92359742846E+02  0.79055805197E+02 0.  0.
          5    1    3    3  501    0  0.71329331286E+01 -0.29650965474E+02  0.56059283035E+02  0.63990559483E+02  0.47000000000E+01 0. -1.
        -13    1    4    4    0    0  0.10289423815E+03 -0.92822535024E+02 -0.47718172758E+02  0.14656149312E+03  0.00000000000E+00 0.  1.
         14    1    4    4    0    0 -0.13047422569E+02 -0.11532453263E+02 -0.20072197544E+02  0.26573028209E+02  0.00000000000E+00 0. -1.
         -5    1    5    5    0  502 -0.85034370325E+02  0.12535355415E+03  0.52584432671E+01  0.15163805228E+03  0.47000000000E+01 0.  1.
         11    1    6    6    0    0  0.28253790848E+02 -0.25540412679E+01  0.41736992057E+02  0.50465595509E+02  0.00000000000E+00 0. -1.
        -12    1    6    6    0    0 -0.40199169238E+02  0.11206440877E+02  0.36826697580E+01  0.41894147337E+02  0.00000000000E+00 0.  1.
</event>
<event>
12    1  0.8449700E-002  0.1782087E+03  0.7818608E-02  0.1170081E+00
         21   -1    0    0  503  502  0.00000000000E+00  0.00000000000E+00  0.44378788628E+02  0.44378788628E+02  0.00000000000E+00 0.  1.
         21   -1    0    0  501  503 -0.00000000000E+00 -0.00000000000E+00 -0.11317618150E+04  0.11317618150E+04  0.00000000000E+00 0.  1.
          6    2    1    2  501    0 -0.24195149577E+02  0.41736865052E+02 -0.90189424213E+03  0.91891613327E+03  0.16931114799E+03 0.  0.
         24    2    3    3    0    0 -0.58723235778E+02  0.69899033720E+02 -0.77023798722E+03  0.77984508691E+03  0.80978449474E+02 0.  0.
         -6    2    1    2    0  502  0.24195149577E+02 -0.41736865052E+02 -0.18548878424E+03  0.25722447035E+03  0.17155456246E+03 0.  0.
        -24    2    5    5    0    0  0.20597852269E+02 -0.88690243602E+02 -0.17265179927E+03  0.20818939629E+03  0.72415123473E+02 0.  0.
          5    1    3    3  501    0  0.34528086200E+02 -0.28162168667E+02 -0.13165625491E+03  0.13907104636E+03  0.47000000000E+01 0. -1.
        -11    1    4    4    0    0  0.20128120772E+02  0.75598755229E+01 -0.14024588572E+03  0.14188446505E+03  0.00000000000E+00 0.  1.
         12    1    4    4    0    0 -0.78851356550E+02  0.62339158197E+02 -0.62999210151E+03  0.63796062186E+03  0.00000000000E+00 0. -1.
         -5    1    5    5    0  502  0.35972973080E+01  0.46953378549E+02 -0.12836984965E+02  0.49035074060E+02  0.47000000000E+01 0.  1.
         13    1    6    6    0    0  0.36374579140E+02 -0.93089481768E+02 -0.14945471131E+03  0.17979285958E+03  0.00000000000E+00 0. -1.
        -14    1    6    6    0    0 -0.15776726870E+02  0.43992381663E+01 -0.23197087966E+02  0.28396536713E+02  0.00000000000E+00 0.  1.
</event>
<event>
12    1  0.8449700E-002  0.1900151E+03  0.7818608E-02  0.1158520E+00
         21   -1    0    0  501  502  0.00000000000E+00  0.00000000000E+00  0.69486593675E+02  0.69486593675E+02  0.00000000000E+00 0.  1.
         21   -1    0    0  502  503 -0.00000000000E+00 -0.00000000000E+00 -0.60039522647E+03  0.60039522647E+03  0.00000000000E+00 0.  1.
         -6    2    1    2    0  503 -0.52752644298E+02 -0.64506257909E+02 -0.38918128401E+03  0.43309100411E+03  0.17076840231E+03 0.  0.
        -24    2    3    3    0    0  0.34352881366E+02 -0.20839146068E+02 -0.14457185896E+03  0.16974702738E+03  0.79363974404E+02 0.  0.
          6    2    1    2  501    0  0.52752644298E+02  0.64506257909E+02 -0.14172734879E+03  0.23679081604E+03  0.17040936117E+03 0.  0.
         24    2    5    5    0    0 -0.30846558938E+02  0.57165498779E+01 -0.81672064153E+02  0.11815783679E+03  0.79415106822E+02 0.  0.
          5    1    5    5  501    0  0.83599203237E+02  0.58789708031E+02 -0.60055284633E+02  0.11863297924E+03  0.47000000000E+01 0. -1.
        -11    1    6    6    0    0  0.15367506847E+02  0.14017815749E+02  0.33148077486E+01  0.21062938434E+02  0.00000000000E+00 0.  1.
         12    1    6    6    0    0 -0.46214065785E+02 -0.83012658715E+01 -0.84986871902E+02  0.97094898358E+02  0.00000000000E+00 0. -1.
         -5    1    3    3    0  503 -0.87105525665E+02 -0.43667111841E+02 -0.24460942505E+03  0.26334397674E+03  0.47000000000E+01 0.  1.
         11    1    4    4    0    0  0.24517169896E+02 -0.36043617945E+02 -0.14522547220E+03  0.15162675157E+03  0.00000000000E+00 0. -1.
        -12    1    4    4    0    0  0.98357114704E+01  0.15204471877E+02  0.65361324200E+00  0.18120275811E+02  0.00000000000E+00 0.  1.
</event>
<event>
12    1  0.8449700E-002  0.1831607E+03  0.7818608E-02  0.1164845E+00
         21   -1    0    0  501  502  0.00000000000E+00  0.00000000000E+00  0.59686312526E+02  0.59686312526E+02  0.00000000000E+00 0.  1.
         21   -1    0    0  502  503 -0.00000000000E+00 -0.00000000000E+00 -0.56393499039E+03  0.56393499039E+03  0.00000000000E+00 0.  1.
         -6    2    1    2    0  503 -0.59345742518E+02 -0.18542738734E+02 -0.27362732229E+03  0.32911484188E+03  0.17198522416E+03 0.  0.
        -24    2    3    3    0    0 -0.30309755771E+02  0.56332057219E+02 -0.16053022976E+03  0.19032591605E+03  0.79762257285E+02 0.  0.
          6    2    1    2  501    0  0.59345742518E+02  0.18542738734E+02 -0.23062135557E+03  0.29450646104E+03  0.17228492572E+03 0.  0.
         24    2    5    5    0    0  0.55887636489E+01  0.71655433790E+02 -0.12978367083E+03  0.16840689792E+03  0.79695336014E+02 0.  0.
          5    1    5    5  501    0  0.53756978869E+02 -0.53112695056E+02 -0.10083768475E+03  0.12609956312E+03  0.47000000000E+01 0. -1.
        -11    1    6    6    0    0  0.37519680813E+02  0.57362077041E+02 -0.10553662759E+03  0.12584162306E+03  0.00000000000E+00 0.  1.
         12    1    6    6    0    0 -0.31930917164E+02  0.14293356749E+02 -0.24247043233E+02  0.42565274856E+02  0.00000000000E+00 0. -1.
         -5    1    3    3    0  503 -0.29035986747E+02 -0.74874795953E+02 -0.11309709253E+03  0.13878892584E+03  0.47000000000E+01 0.  1.
         11    1    4    4    0    0  0.24520958657E+02  0.29835715029E+02 -0.41930397731E+02  0.57005311671E+02  0.00000000000E+00 0. -1.
        -12    1    4    4    0    0 -0.54830714429E+02  0.26496342189E+02 -0.11859983203E+03  0.13332060438E+03  0.00000000000E+00 0.  1.
</event>
<event>
12    1  0.8449700E-002  0.2445454E+03  0.7818608E-02  0.1117278E+00
         21   -1    0    0  501  502  0.00000000000E+00  0.00000000000E+00  0.20246343717E+03  0.20246343717E+03  0.00000000000E+00 0. -1.
         21   -1    0    0  502  503 -0.00000000000E+00 -0.00000000000E+00 -0.12487417879E+04  0.12487417879E+04  0.00000000000E+00 0. -1.
         -6    2    1    2    0  503 -0.51795082828E+02 -0.16465815657E+03 -0.11590400861E+04  0.11845574517E+04  0.17322643019E+03 0.  0.
        -24    2    3    3    0    0 -0.80426067406E+02 -0.17280263920E+03 -0.10873837940E+04  0.11068221311E+04  0.79514841363E+02 0.  0.
          6    2    1    2  501    0  0.51795082828E+02  0.16465815657E+03  0.11276173542E+03  0.26664777330E+03  0.16908810396E+03 0.  0.
         24    2    5    5    0    0  0.43010143538E+02  0.16306059223E+03  0.14300476216E+03  0.23476583427E+03  0.78905042631E+02 0.  0.
          5    1    5    5  501    0  0.87849392900E+01  0.15975643374E+01 -0.30243026738E+02  0.31881939032E+02  0.47000000000E+01 0. -1.
        -13    1    6    6    0    0 -0.16437328718E+02  0.54197697024E+01  0.18056487408E+02  0.25011925487E+02  0.00000000000E+00 0.  1.
         14    1    6    6    0    0  0.59447472256E+02  0.15764082253E+03  0.12494827475E+03  0.20975390878E+03  0.00000000000E+00 0. -1.
         -5    1    3    3    0  503  0.28630984578E+02  0.81444826333E+01 -0.71656292094E+02  0.77735320620E+02  0.47000000000E+01 0.  1.
         13    1    4    4    0    0 -0.80555634046E+02 -0.91614161120E+02 -0.74656364777E+03  0.75646523044E+03  0.00000000000E+00 0. -1.
        -14    1    4    4    0    0  0.12956663946E+00 -0.81188478083E+02 -0.34082014626E+03  0.35035690069E+03  0.00000000000E+00 0.  1.
</event>
<event>
12    1  0.8449700E-002  0.1840337E+03  0.7818608E-02  0.1164533E+00
         21   -1    0    0  503  502  0.00000000000E+00  0.00000000000E+00  0.25076150194E+03  0.25076150194E+03  0.00000000000E+00 0.  1.
         21   -1    0    0  501  503 -0.00000000000E+00 -0.00000000000E+00 -0.28436840813E+03  0.28436840813E+03  0.00000000000E+00 0.  1.
          6    2    1    2  501    0 -0.51604700723E+02  0.29598151693E+02 -0.21178218622E+03  0.27897596406E+03  0.17157155476E+03 0.  0.
         24    2    3    3    0    0 -0.24960957632E+02  0.22351152500E+02 -0.22988162073E+03  0.24562798702E+03  0.79780480260E+02 0.  0.
         -6    2    1    2    0  502  0.51604700723E+02 -0.29598151693E+02  0.17817528003E+03  0.25615394601E+03  0.17415314502E+03 0.  0.
        -24    2    5    5    0    0  0.43975323247E+02  0.28156055290E+02  0.40386635497E+02  0.10648245110E+03  0.83551418666E+02 0.  0.
          5    1    3    3  501    0 -0.26643743090E+02  0.72469991932E+01  0.18099434514E+02  0.33347977043E+02  0.47000000000E+01 0. -1.
        -11    1    4    4    0    0 -0.39842986624E+02 -0.76597848849E+01 -0.59706888062E+02  0.72187591521E+02  0.00000000000E+00 0.  1.
         12    1    4    4    0    0  0.14882028992E+02  0.30010937384E+02 -0.17017473267E+03  0.17344039550E+03  0.00000000000E+00 0. -1.
         -5    1    5    5    0  502  0.76293774759E+01 -0.57754206982E+02  0.13778864454E+03  0.14967149491E+03  0.47000000000E+01 0.  1.
         13    1    6    6    0    0  0.45927547763E+02  0.40881408462E+02  0.58093446097E+02  0.84590056631E+02  0.00000000000E+00 0. -1.
        -14    1    6    6    0    0 -0.19522245164E+01 -0.12725353173E+02 -0.17706810600E+02  0.21892394468E+02  0.00000000000E+00 0.  1.
</event>
<event>
12    1  0.8449700E-002  0.2033854E+03  0.7818608E-02  0.1150634E+00
         21   -1    0    0  501  502  0.00000000000E+00  0.00000000000E+00  0.81108700541E+02  0.81108700541E+02  0.00000000000E+00 0.  1.
         21   -1    0    0  502  503 -0.00000000000E+00 -0.00000000000E+00 -0.49436901705E+03  0.49436901705E+03  0.00000000000E+00 0.  1.
         -6    2    1    2    0  503  0.64678521352E+02 -0.31127008862E+02 -0.14860301661E+03  0.25188982472E+03  0.19029825393E+03 0.  0.
        -24    2    3    3    0    0  0.46480613505E+02  0.47587760323E+02 -0.13568007767E+03  0.16993696578E+03  0.77746038473E+02 0.  0.
          6    2    1    2  501    0 -0.64678521352E+02  0.31127008862E+02 -0.26465729990E+03  0.32358789286E+03  0.17179475025E+03 0.  0.
         24    2    5    5    0    0  0.17898177607E+02 -0.22147700561E+02 -0.92748651675E+02  0.12551775577E+03  0.79633719136E+02 0.  0.
          5    1    5    5  501    0 -0.82576698959E+02  0.53274709423E+02 -0.17190864822E+03  0.19807013710E+03  0.47000000000E+01 0. -1.
        -11    1    6    6    0    0 -0.28226858276E+00  0.16136389607E+02  0.66543254626E+01  0.17456883813E+02  0.00000000000E+00 0.  1.
         12    1    6    6    0    0  0.18180446190E+02 -0.38284090168E+02 -0.99402977137E+02  0.10806087195E+03  0.00000000000E+00 0. -1.
         -5    1    3    3    0  503  0.18197907848E+02 -0.78714769185E+02 -0.12922938933E+02  0.81952858940E+02  0.47000000000E+01 0.  1.
         11    1    4    4    0    0  0.13694462439E+02  0.62778559014E+02 -0.70334338948E+02  0.95265969834E+02  0.00000000000E+00 0. -1.
        -12    1    4    4    0    0  0.32786151065E+02 -0.15190798691E+02 -0.65345738725E+02  0.74670995950E+02  0.00000000000E+00 0.  1.
</event>
<event>
12    1  0.8449700E-002  0.2300548E+03  0.7818608E-02  0.1126748E+00
         21   -1    0    0  503  502  0.00000000000E+00  0.00000000000E+00  0.22299025215E+03  0.22299025215E+03  0.00000000000E+00 0.  1.
         21   -1    0    0  501  503 -0.00000000000E+00 -0.00000000000E+00 -0.23891412787E+03  0.23891412787E+03  0.00000000000E+00 0.  1.
          6    2    1    2  501    0  0.90095740252E+02  0.12157280967E+03 -0.31224942244E+02  0.23134126313E+03  0.17218185894E+03 0.  0.
         24    2    3    3    0    0  0.10186591519E+03  0.12702520460E+03 -0.65868515788E+02  0.19405141443E+03  0.82493774236E+02 0.  0.
         -6    2    1    2    0  502 -0.90095740252E+02 -0.12157280967E+03  0.15301066532E+02  0.23056311689E+03  0.17328599992E+03 0.  0.
        -24    2    5    5    0    0 -0.43856934305E+02 -0.14050676292E+03  0.42209301131E+02  0.17361871549E+03  0.81830630897E+02 0.  0.
          5    1    3    3  501    0 -0.11770174942E+02 -0.54523949256E+01  0.34643573544E+02  0.37289848705E+02  0.47000000000E+01 0. -1.
        -13    1    4    4    0    0  0.87401108418E+02  0.60413844392E+02 -0.11516782190E+02  0.10687105604E+03  0.00000000000E+00 0.  1.
         14    1    4    4    0    0  0.14464806776E+02  0.66611360208E+02 -0.54351733598E+02  0.87180358390E+02  0.00000000000E+00 0. -1.
         -5    1    5    5    0  502 -0.46238805947E+02  0.18933953250E+02 -0.26908234598E+02  0.56944401395E+02  0.47000000000E+01 0.  1.
         11    1    6    6    0    0 -0.47410947665E+01 -0.37406949433E+02 -0.24286025575E+02  0.44850517095E+02  0.00000000000E+00 0. -1.
        -12    1    6    6    0    0 -0.39115839539E+02 -0.10309981349E+03  0.66495326705E+02  0.12876819840E+03  0.00000000000E+00 0.  1.
</event>
<event>
12    1  0.8449700E-002  0.2837453E+03  0.7818608E-02  0.1093666E+00
         21   -1    0    0  503  502  0.00000000000E+00  0.00000000000E+00  0.21540629850E+03  0.21540629850E+03  0.00000000000E+00 0.  1.
         21   -1    0    0  501  503 -0.00000000000E+00 -0.00000000000E+00 -0.67797339701E+03  0.67797339701E+03  0.00000000000E+00 0.  1.
          6    2    1    2  501    0 -0.12701856917E+03 -0.18551040450E+03 -0.53051662723E+03  0.60161177556E+03  0.17303470641E+03 0.  0.
         24    2    3    3    0    0 -0.13399526703E+03 -0.20049893570E+03 -0.42890402564E+03  0.49855576562E+03  0.80278474216E+02 0.  0.
         -6    2    1    2    0  502  0.12701856917E+03  0.18551040450E+03  0.67949528722E+02  0.29176791995E+03  0.17309983698E+03 0.  0.
        -24    2    5    5    0    0  0.35739694472E+02  0.12009874034E+02  0.28450980284E+02  0.91726693274E+02  0.78630561137E+02 0.  0.
          5    1    3    3  501    0  0.69766978619E+01  0.14988531197E+02 -0.10161260160E+03  0.10305600993E+03  0.47000000000E+01 0. -1.
        -13    1    4    4    0    0 -0.69899787113E+02 -0.62279097341E+02 -0.22754404727E+03  0.24605072577E+03  0.00000000000E+00 0.  1.
         14    1    4    4    0    0 -0.64095479921E+02 -0.13821983836E+03 -0.20135997837E+03  0.25250503985E+03  0.00000000000E+00 0. -1.
         -5    1    5    5    0  502  0.91278874701E+02  0.17350053047E+03  0.39498548437E+02  0.20004122667E+03  0.47000000000E+01 0.  1.
         13    1    6    6    0    0  0.48128327675E+02 -0.19462043122E+02  0.89353994092E+01  0.52677779090E+02  0.00000000000E+00 0. -1.
        -14    1    6    6    0    0 -0.12388633203E+02  0.31471917156E+02  0.19515580875E+02  0.39048914184E+02  0.00000000000E+00 0.  1.
</event>
<event>
12    1  0.8449700E-002  0.1881421E+03  0.7818608E-02  0.1160210E+00
         21   -1    0    0  501  502  0.00000000000E+00  0.00000000000E+00  0.16112707239E+04  0.16112707239E+04  0.00000000000E+00 0. -1.
         21   -1    0    0  502  503 -0.00000000000E+00 -0.00000000000E+00 -0.90938828754E+02  0.90938828754E+02  0.00000000000E+00 0. -1.
         -6    2    1    2    0  503  0.75791006855E+02  0.15124454576E+02  0.18658295531E+02  0.18879584566E+03  0.17123876167E+03 0.  0.
        -24    2    3    3    0    0 -0.27220322449E+02  0.31749434187E+02 -0.32077428496E+02  0.72675530444E+02  0.50037973390E+02 0.  0.
          6    2    1    2  501    0 -0.75791006855E+02 -0.15124454576E+02  0.15016735997E+04  0.15134137070E+04  0.17153548586E+03 0.  0.
         24    2    5    5    0    0 -0.23246994069E+01 -0.26400168315E+02  0.39258369936E+03  0.40182613200E+03  0.81485619832E+02 0.  0.
          5    1    5    5  501    0 -0.73466307448E+02  0.11275713739E+02  0.11090899003E+04  0.11115875750E+04  0.47000000000E+01 0. -1.
        -11    1    6    6    0    0 -0.68283339763E+01  0.26508269789E+02  0.75115204464E+02  0.79947535633E+02  0.00000000000E+00 0.  1.
         12    1    6    6    0    0  0.45036345694E+01 -0.52908438104E+02  0.31746849490E+03  0.32187859637E+03  0.00000000000E+00 0. -1.
         -5    1    3    3    0  503  0.10301132930E+03 -0.16624979611E+02  0.50735724028E+02  0.11612031521E+03  0.47000000000E+01 0.  1.
         13    1    4    4    0    0 -0.24575924384E+02  0.29368575304E+02 -0.45106115588E+02  0.59169679213E+02  0.00000000000E+00 0. -1.
        -14    1    4    4    0    0 -0.26443980648E+01  0.23808588835E+01  0.13028687092E+02  0.13505851231E+02  0.00000000000E+00 0.  1.
</event>
<event>
12    1  0.8449700E-002  0.2550923E+03  0.7818608E-02  0.1110190E+00
         21   -1    0    0  503  502  0.00000000000E+00  0.00000000000E+00  0.15805267794E+03  0.15805267794E+03  0.00000000000E+00 0.  1.
         21   -1    0    0  501  503 -0.00000000000E+00 -0.00000000000E+00 -0.58407317423E+03  0.58407317423E+03  0.00000000000E+00 0. -1.
          6    2    1    2  501    0 -0.18875353080E+03  0.50237885434E+01 -0.41508182652E+03  0.48720118922E+03  0.17151950976E+03 0.  0.
         24    2    3    3    0    0 -0.69660621615E+02 -0.42827267375E+02 -0.20115733019E+03  0.23768440682E+03  0.96658309109E+02 0.  0.
         -6    2    1    2    0  502  0.18875353080E+03 -0.50237885434E+01 -0.10938669765E+02  0.25492466294E+03  0.17092043599E+03 0.  0.
        -24    2    5    5    0    0  0.41943740218E+02  0.37825330130E+02  0.43220182710E+01  0.10115815105E+03  0.83810850958E+02 0.  0.
          5    1    3    3  501    0 -0.11909290918E+03  0.47851055918E+02 -0.21392449633E+03  0.24951678241E+03  0.47000000000E+01 0. -1.
        -13    1    4    4    0    0 -0.84368400575E+02 -0.58723070394E+02 -0.14716066221E+03  0.17950678682E+03  0.00000000000E+00 0.  1.
         14    1    4    4    0    0  0.14707778961E+02  0.15895803019E+02 -0.53996667978E+02  0.58177619995E+02  0.00000000000E+00 0. -1.
         -5    1    5    5    0  502  0.14680979058E+03 -0.42849118673E+02 -0.15260688036E+02  0.15376651190E+03  0.47000000000E+01 0.  1.
         11    1    6    6    0    0  0.32954308359E+02 -0.90720753565E+01 -0.27419946962E+02  0.43819430417E+02  0.00000000000E+00 0. -1.
        -12    1    6    6    0    0  0.89894318587E+01  0.46897405486E+02  0.31741965233E+02  0.57338720629E+02  0.00000000000E+00 0.  1.
</event>
<event>
12    1  0.8449700E-002  0.2031196E+03  0.7818608E-02  0.1147213E+00
         21   -1    0    0  501  502  0.00000000000E+00  0.00000000000E+00  0.20969943505E+04  0.20969943505E+04  0.00000000000E+00 0. -1.
         21   -1    0    0  502  503 -0.00000000000E+00 -0.00000000000E+00 -0.44491701027E+02  0.44491701027E+02  0.00000000000E+00 0. -1.
         -6    2    1    2    0  503 -0.31352755259E+02 -0.10316902322E+03  0.22639259292E+03  0.30415653459E+03  0.17213584401E+03 0.  0.
        -24    2    3    3    0    0  0.29596485400E+02 -0.28431587838E+02  0.49864102062E+02  0.10294795558E+03  0.80171976080E+02 0.  0.
          6    2    1    2  501    0  0.31352755259E+02  0.10316902322E+03  0.18261100566E+04  0.18373295170E+04  0.17168276715E+03 0.  0.
         24    2    5    5    0    0 -0.18583967319E+01  0.13278292911E+03  0.12680098743E+04  0.12774385745E+04  0.79784148060E+02 0.  0.
          5    1    5    5  501    0  0.33211151991E+02 -0.29613905889E+02  0.55810018226E+03  0.55989094249E+03  0.47000000000E+01 0. -1.
        -11    1    6    6    0    0 -0.72204945078E+01 -0.51400166200E+01  0.20737041906E+02  0.22551723189E+02  0.00000000000E+00 0.  1.
         12    1    6    6    0    0  0.53620977760E+01  0.13792294573E+03  0.12472728324E+04  0.12548868513E+04  0.00000000000E+00 0. -1.
         -5    1    3    3    0  503 -0.60949240659E+02 -0.74737435380E+02  0.17652849085E+03  0.20120857901E+03  0.47000000000E+01 0.  1.
         11    1    4    4    0    0  0.40006507196E+02 -0.49638095698E+02  0.46885096240E+02  0.79137054607E+02  0.00000000000E+00 0. -1.
        -12    1    4    4    0    0 -0.10410021796E+02  0.21206507860E+02  0.29790058220E+01  0.23810900972E+02  0.00000000000E+00 0.  1.
</event>
<event>
12    1  0.8449700E-002  0.2790032E+03  0.7818608E-02  0.1096256E+00
         21   -1    0    0  503  502  0.00000000000E+00  0.00000000000E+00  0.28854678932E+03  0.28854678932E+03  0.00000000000E+00 0. -1.
         21   -1    0    0  501  503 -0.00000000000E+00 -0.00000000000E+00 -0.27011244912E+03  0.27011244912E+03  0.00000000000E+00 0.  1.
          6    2    1    2  501    0  0.16903290010E+03 -0.14057164810E+03  0.21048408918E+02  0.27964376707E+03  0.17153743433E+03 0.  0.
         24    2    3    3    0    0  0.11796693680E+03 -0.99457093650E+02 -0.52157886565E+02  0.18125987157E+03  0.79541085320E+02 0.  0.
         -6    2    1    2    0  502 -0.16903290010E+03  0.14057164810E+03 -0.26140687139E+01  0.27901547138E+03  0.17178559411E+03 0.  0.
        -24    2    5    5    0    0 -0.92244029759E+02  0.81371275061E+02 -0.68528483859E+02  0.16167828673E+03  0.79457346222E+02 0.  0.
          5    1    3    3  501    0  0.51065963301E+02 -0.41114554451E+02  0.73206295483E+02  0.98383895501E+02  0.47000000000E+01 0. -1.
        -11    1    4    4    0    0  0.12398366532E+03 -0.70156469369E+02 -0.51049880000E+02  0.15132735941E+03  0.00000000000E+00 0.  1.
         12    1    4    4    0    0 -0.60167285128E+01 -0.29300624281E+02 -0.11080065651E+01  0.29932512153E+02  0.00000000000E+00 0. -1.
         -5    1    5    5    0  502 -0.76788870345E+02  0.59200373040E+02  0.65914415145E+02  0.11733718465E+03  0.47000000000E+01 0.  1.
         13    1    6    6    0    0 -0.41876180784E+02 -0.84303986564E+00  0.24455412378E+01  0.41955999633E+02  0.00000000000E+00 0. -1.
        -14    1    6    6    0    0 -0.50367848975E+02  0.82214314926E+02 -0.70974025097E+02  0.11972228710E+03  0.00000000000E+00 0.  1.
</event>
<event>
12    1  0.8449700E-002  0.1985520E+03  0.7818608E-02  0.1151067E+00
         21   -1    0    0  501  502  0.00000000000E+00  0.00000000000E+00  0.60058282255E+02  0.60058282255E+02  0.00000000000E+00 0. -1.
         21   -1    0    0  502  503 -0.00000000000E+00 -0.00000000000E+00 -0.66388924857E+03  0.66388924857E+03  0.00000000000E+00 0.  1.
         -6    2    1    2    0  503 -0.53778916137E+02 -0.82591099553E+02 -0.34379108301E+03  0.39677231065E+03  0.17182111686E+03 0.  0.
        -24    2    3    3    0    0 -0.25119932008E+02 -0.52144338693E+02 -0.34070512377E+03  0.35458278870E+03  0.79365796422E+02 0.  0.
          6    2    1    2  501    0  0.53778916137E+02  0.82591099553E+02 -0.26003988330E+03  0.32717522017E+03  0.17236421391E+03 0.  0.
         24    2    5    5    0    0 -0.21153894457E+02 -0.83416935176E+01 -0.11049520273E+03  0.13672995126E+03  0.77258129963E+02 0.  0.
          5    1    5    5  501    0  0.74932810594E+02  0.90932793070E+02 -0.14954468058E+03  0.19044526890E+03  0.47000000000E+01 0. -1.
        -13    1    6    6    0    0 -0.45320688599E+02  0.14193742846E+02 -0.65064501679E+02  0.80553190687E+02  0.00000000000E+00 0.  1.
         14    1    6    6    0    0  0.24166794142E+02 -0.22535436363E+02 -0.45430701049E+02  0.56176760578E+02  0.00000000000E+00 0. -1.
         -5    1    3    3    0  503 -0.28658984129E+02 -0.30446760859E+02 -0.30859592422E+01  0.42189521952E+02  0.47000000000E+01 0.  1.
         11    1    4    4    0    0  0.48619475588E+01  0.19219021385E+02 -0.91942098852E+02  0.94055084171E+02  0.00000000000E+00 0. -1.
        -12    1    4    4    0    0 -0.29981879567E+02 -0.71363360079E+02 -0.24876302491E+03  0.26052770453E+03  0.00000000000E+00 0.  1.
</event>
<event>
12    1  0.8449700E-002  0.1938488E+03  0.7818608E-02  0.1155722E+00
         21   -1    0    0  503  502  0.00000000000E+00  0.00000000000E+00  0.38914120458E+04  0.38914120458E+04  0.00000000000E+00 0.  1.
         21   -1    0    0  501  503 -0.00000000000E+00 -0.00000000000E+00 -0.95128189686E+01  0.95128189686E+01  0.00000000000E+00 0.  1.
          6    2    1    2  501    0 -0.41193428587E+02 -0.72882113266E+02  0.20202549396E+04  0.20295337801E+04  0.17483890476E+03 0.  0.
         24    2    3    3    0    0 -0.49126912159E+02 -0.10431044666E+03  0.11272710507E+04  0.11359494270E+04  0.79667786144E+02 0.  0.
         -6    2    1    2    0  502  0.41193428587E+02  0.72882113266E+02  0.18616442873E+04  0.18713910847E+04  0.17139556173E+03 0.  0.
        -24    2    5    5    0    0 -0.10407804896E+02  0.98568655375E+02  0.14796092528E+04  0.14850035288E+04  0.78535581404E+02 0.  0.
          5    1    3    3  501    0  0.79334835713E+01  0.31428333391E+02  0.89298388887E+03  0.89358435309E+03  0.47000000000E+01 0. -1.
        -11    1    4    4    0    0 -0.70696223042E+02 -0.83231719582E+02  0.92930036199E+03  0.93569473542E+03  0.00000000000E+00 0.  1.
         12    1    4    4    0    0  0.21569310883E+02 -0.21078727074E+02  0.19797068872E+03  0.20025469158E+03  0.00000000000E+00 0. -1.
         -5    1    5    5    0  502  0.51601233483E+02 -0.25686542109E+02  0.38203503450E+03  0.38638755586E+03  0.47000000000E+01 0.  1.
         13    1    6    6    0    0 -0.29194947702E+01  0.17291300765E+02  0.48574536763E+02  0.51642987458E+02  0.00000000000E+00 0. -1.
        -14    1    6    6    0    0 -0.74883101255E+01  0.81277354610E+02  0.14310347160E+04  0.14333605414E+04  0.00000000000E+00 0.  1.
</event>
<event>
12    1  0.8449700E-002  0.1918875E+03  0.7818608E-02  0.1157588E+00
         21   -1    0    0  501  502  0.00000000000E+00  0.00000000000E+00  0.57465764607E+03  0.57465764607E+03  0.00000000000E+00 0. -1.
         21   -1    0    0  502  503 -0.00000000000E+00 -0.00000000000E+00 -0.62878134542E+02  0.62878134542E+02  0.00000000000E+00 0. -1.
         -6    2    1    2    0  503  0.70970376346E+02 -0.36071407216E+02  0.25804973421E+03  0.31941692796E+03  0.17058595431E+03 0.  0.
        -24    2    3    3    0    0 -0.25621833637E+02 -0.22145123151E+02  0.12999629576E+03  0.15834623070E+03  0.83830823858E+02 0.  0.
          6    2    1    2  501    0 -0.70970376346E+02  0.36071407216E+02  0.25372977732E+03  0.31811885265E+03  0.17459342420E+03 0.  0.
         24    2    5    5    0    0  0.38373462038E+01  0.11579880434E+02  0.40450531701E+02  0.90728974137E+02  0.80291234742E+02 0.  0.
          5    1    5    5  501    0 -0.74807722550E+02  0.24491526782E+02  0.21327924562E+03  0.22738987851E+03  0.47000000000E+01 0. -1.
        -13    1    6    6    0    0 -0.18250535982E+02  0.39804579566E+02  0.13294427886E+02  0.45762740640E+02  0.00000000000E+00 0.  1.
         14    1    6    6    0    0  0.22087882186E+02 -0.28224699132E+02  0.27156103815E+02  0.44966233497E+02  0.00000000000E+00 0. -1.
         -5    1    3    3    0  503  0.96592209983E+02 -0.13926284066E+02  0.12805343845E+03  0.16107069726E+03  0.47000000000E+01 0.  1.
         11    1    4    4    0    0 -0.20546648234E+02 -0.53881258778E+02  0.74435146337E+02  0.94159151501E+02  0.00000000000E+00 0. -1.
        -12    1    4    4    0    0 -0.50751854023E+01  0.31736135628E+02  0.55561149421E+02  0.64187079201E+02  0.00000000000E+00 0.  1.
</event>
<event>
12    1  0.8449700E-002  0.2241035E+03  0.7818608E-02  0.1132776E+00
         21   -1    0    0  501  502  0.00000000000E+00  0.00000000000E+00  0.12662958425E+04  0.12662958425E+04  0.00000000000E+00 0. -1.
         21   -1    0    0  502  503 -0.00000000000E+00 -0.00000000000E+00 -0.50025143531E+02  0.50025143531E+02  0.00000000000E+00 0. -1.
         -6    2    1    2    0  503  0.59726556996E+02 -0.11156668254E+03  0.27291004413E+03  0.34670678798E+03  0.17236971423E+03 0.  0.
        -24    2    3    3    0    0  0.34713644816E+02 -0.13082821474E+03  0.14092215608E+03  0.21091450179E+03  0.79402859412E+02 0.  0.
          6    2    1    2  501    0 -0.59726556996E+02  0.11156668254E+03  0.94336065489E+03  0.96961419810E+03  0.18495399886E+03 0.  0.
         24    2    5    5    0    0 -0.75270087281E+02  0.45689005033E+01  0.58933236464E+03  0.59941391853E+03  0.79359617093E+02 0.  0.
          5    1    5    5  501    0  0.15543530285E+02  0.10699778203E+03  0.35402829025E+03  0.37020027957E+03  0.47000000000E+01 0. -1.
        -13    1    6    6    0    0  0.16575682676E+02  0.55218364265E+01  0.83177097683E+02  0.84992196775E+02  0.00000000000E+00 0.  1.
         14    1    6    6    0    0 -0.91845769956E+02 -0.95293592328E+00  0.50615526695E+03  0.51442172175E+03  0.00000000000E+00 0. -1.
         -5    1    3    3    0  503  0.25012912180E+02  0.19261532202E+02  0.13198788805E+03  0.13579228619E+03  0.47000000000E+01 0.  1.
         13    1    4    4    0    0 -0.22137174976E+02 -0.31937176381E+02  0.16789658976E+02  0.42331198892E+02  0.00000000000E+00 0. -1.
        -14    1    4    4    0    0  0.56850819792E+02 -0.98891038358E+02  0.12413249711E+03  0.16858330290E+03  0.00000000000E+00 0.  1.
</event>
<event>
12    1  0.8449700E-002  0.1911063E+03  0.7818608E-02  0.1157493E+00
         21   -1    0    0  501  502  0.00000000000E+00  0.00000000000E+00  0.48247933997E+03  0.48247933997E+03  0.00000000000E+00 0. -1.
         21   -1    0    0  502  503 -0.00000000000E+00 -0.00000000000E+00 -0.11416479625E+03  0.11416479625E+03  0.00000000000E+00 0. -1.
         -6    2    1    2    0  503 -0.25123552431E+02  0.78469672855E+02  0.10845339612E+02  0.19129753432E+03  0.17230334530E+03 0.  0.
        -24    2    3    3    0    0  0.21669557951E+02  0.10256572042E+03 -0.24121900234E+02  0.12793340764E+03  0.69251671271E+02 0.  0.
          6    2    1    2  501    0  0.25123552431E+02 -0.78469672855E+02  0.35746920411E+03  0.40534660190E+03  0.17243246024E+03 0.  0.
         24    2    5    5    0    0  0.60397776920E+01 -0.17343116332E+02  0.32157122768E+03  0.33178437598E+03  0.79596200136E+02 0.  0.
          5    1    5    5  501    0  0.19083774739E+02 -0.61126556523E+02  0.35897976427E+02  0.73562225920E+02  0.47000000000E+01 0. -1.
        -11    1    6    6    0    0 -0.28051297304E+02 -0.33541041638E+02  0.16042703004E+03  0.16627900866E+03  0.00000000000E+00 0.  1.
         12    1    6    6    0    0  0.34091074996E+02  0.16197925306E+02  0.16114419764E+03  0.16550536732E+03  0.00000000000E+00 0. -1.
         -5    1    3    3    0  503 -0.46793110382E+02 -0.24096047562E+02  0.34967239846E+02  0.63364126679E+02  0.47000000000E+01 0.  1.
         11    1    4    4    0    0  0.10547114591E+02  0.57219809089E+02  0.22094694309E+02  0.62237638893E+02  0.00000000000E+00 0. -1.
        -12    1    4    4    0    0  0.11122443360E+02  0.45345911328E+02 -0.46216594543E+02  0.65695768750E+02  0.00000000000E+00 0.  1.
</event>
<event>
12    1  0.8449700E-002  0.1727915E+03  0.7818608E-02  0.1175078E+00
         21   -1    0    0  503  502  0.00000000000E+00  0.00000000000E+00  0.10371626443E+03  0.10371626443E+03  0.00000000000E+00 0. -1.
         21   -1    0    0  501  503 -0.00000000000E+00 -0.00000000000E+00 -0.28731233009E+03  0.28731233009E+03  0.00000000000E+00 0. -1.
          6    2    1    2  501    0  0.93217252316E+01 -0.18417411322E+02 -0.96491982812E+02  0.19790803836E+03  0.17155405357E+03 0.  0.
         24    2    3    3    0    0 -0.26307318009E+02 -0.66060479521E+02 -0.37155469104E+02  0.11375221545E+03  0.80641029883E+02 0.  0.
         -6    2    1    2    0  502 -0.93217252316E+01  0.18417411322E+02 -0.87104082844E+02  0.19312055617E+03  0.17112081219E+03 0.  0.
        -24    2    5    5    0    0 -0.26693247958E+02 -0.23857153378E+02 -0.11118861282E+03  0.14124509755E+03  0.79407661505E+02 0.  0.
          5    1    3    3  501    0  0.35629043241E+02  0.47643068199E+02 -0.59336513708E+02  0.84155822904E+02  0.47000000000E+01 0. -1.
        -11    1    4    4    0    0 -0.10187883599E+02  0.18443839496E+02 -0.34211897923E+01  0.21346492151E+02  0.00000000000E+00 0.  1.
         12    1    4    4    0    0 -0.16119434411E+02 -0.84504319016E+02 -0.33734279312E+02  0.92405723301E+02  0.00000000000E+00 0. -1.
         -5    1    5    5    0  502  0.17371522726E+02  0.42274564701E+02  0.24084529980E+02  0.51875458618E+02  0.47000000000E+01 0.  1.
         13    1    6    6    0    0 -0.58653085192E+01  0.13354099200E+02  0.65745981485E+01  0.15998723395E+02  0.00000000000E+00 0. -1.
        -14    1    6    6    0    0 -0.20827939439E+02 -0.37211252578E+02 -0.11776321097E+03  0.12524637415E+03  0.00000000000E+00 0.  1.
</event>
<event>
12    1  0.8449700E-002  0.1792775E+03  0.7818608E-02  0.1173185E+00
         21   -1    0    0  503  502  0.00000000000E+00  0.00000000000E+00  0.42505046617E+02  0.42505046617E+02  0.00000000000E+00 0.  1.
         21   -1    0    0  501  503 -0.00000000000E+00 -0.00000000000E+00 -0.68661190666E+03  0.68661190666E+03  0.00000000000E+00 0.  1.
          6    2    1    2  501    0 -0.49703842801E+02  0.12048888805E+02 -0.37073189929E+03  0.41180403982E+03  0.17182775779E+03 0.  0.
         24    2    3    3    0    0 -0.74209838756E+02  0.59268582708E+02 -0.28341771577E+03  0.30945121878E+03  0.80091136387E+02 0.  0.
         -6    2    1    2    0  502  0.49703842801E+02 -0.12048888805E+02 -0.27337496075E+03  0.31731291346E+03  0.15276769348E+03 0.  0.
        -24    2    5    5    0    0 -0.10771894819E+02 -0.38357218442E+02 -0.11545102896E+03  0.14610689347E+03  0.80193355752E+02 0.  0.
          5    1    3    3  501    0  0.24505995955E+02 -0.47219693903E+02 -0.87314183526E+02  0.10235282104E+03  0.47000000000E+01 0. -1.
        -11    1    4    4    0    0 -0.54280278301E+02 -0.66020762925E+01 -0.10897299895E+03  0.12192231347E+03  0.00000000000E+00 0.  1.
         12    1    4    4    0    0 -0.19929560455E+02  0.65870659000E+02 -0.17444471682E+03  0.18752890530E+03  0.00000000000E+00 0. -1.
         -5    1    5    5    0  502  0.60475737620E+02  0.26308329637E+02 -0.15792393179E+03  0.17120601999E+03  0.47000000000E+01 0.  1.
         13    1    6    6    0    0 -0.18538174862E+02  0.18847748164E+02 -0.62128470812E+02  0.67519244837E+02  0.00000000000E+00 0. -1.
        -14    1    6    6    0    0  0.77662800429E+01 -0.57204966605E+02 -0.53322558152E+02  0.78587648635E+02  0.00000000000E+00 0.  1.
</event>
<event>
12    1  0.8449700E-002  0.1750777E+03  0.7818608E-02  0.1172788E+00
         21   -1    0    0  501  502  0.00000000000E+00  0.00000000000E+00  0.24987424349E+03  0.24987424349E+03  0.00000000000E+00 0.  1.
         21   -1    0    0  502  503 -0.00000000000E+00 -0.00000000000E+00 -0.29456359190E+03  0.29456359190E+03  0.00000000000E+00 0.  1.
         -6    2    1    2    0  503  0.29311460422E+02 -0.14361691872E+01 -0.23050580409E+03  0.28913416473E+03  0.17205933627E+03 0.  0.
        -24    2    3    3    0    0  0.16910146554E+01 -0.46772501311E+02 -0.60001930538E+02  0.11049505106E+03  0.80114906418E+02 0.  0.
          6    2    1    2  501    0 -0.29311460422E+02  0.14361691872E+01  0.18581645568E+03  0.25530367066E+03  0.17260065109E+03 0.  0.
         24    2    5    5    0    0 -0.28002326444E+02 -0.28069722165E+02  0.25767519020E+02  0.92484557586E+02  0.79482002785E+02 0.  0.
          5    1    5    5  501    0 -0.13091339775E+01  0.29505891352E+02  0.16004893666E+03  0.16281911308E+03  0.47000000000E+01 0. -1.
        -11    1    6    6    0    0 -0.42657119136E+02  0.13484643024E+02  0.11953974864E+02  0.46307266444E+02  0.00000000000E+00 0.  1.
         12    1    6    6    0    0  0.14654792692E+02 -0.41554365189E+02  0.13813544156E+02  0.46177291142E+02  0.00000000000E+00 0. -1.
         -5    1    3    3    0  503  0.27620445766E+02  0.45336332124E+02 -0.17050387356E+03  0.17863911367E+03  0.47000000000E+01 0.  1.
         13    1    4    4    0    0  0.24886882404E+02 -0.55377278722E+02 -0.20872215991E+02  0.64200072545E+02  0.00000000000E+00 0. -1.
        -14    1    4    4    0    0 -0.23195867748E+02  0.86047774107E+01 -0.39129714547E+02  0.46294978512E+02  0.00000000000E+00 0.  1.
</event>
<event>
12    1  0.8449700E-002  0.1834605E+03  0.7818608E-02  0.1164728E+00
         21   -1    0    0  501  502  0.00000000000E+00  0.00000000000E+00  0.20862933505E+03  0.20862933505E+03  0.00000000000E+00 0. -1.
         21   -1    0    0  502  503 -0.00000000000E+00 -0.00000000000E+00 -0.19155930203E+03  0.19155930203E+03  0.00000000000E+00 0. -1.
         -6    2    1    2    0  503 -0.47470584153E+02 -0.40548262478E+02 -0.72101703661E+02  0.19620490085E+03  0.17146454298E+03 0.  0.
        -24    2    3    3    0    0  0.36504684772E+02 -0.14996891687E+02 -0.58569068981E+02  0.10726705434E+03  0.80736524174E+02 0.  0.
          6    2    1    2  501    0  0.47470584153E+02  0.40548262478E+02  0.89171736679E+02  0.20398373623E+03  0.17251129839E+03 0.  0.
         24    2    5    5    0    0  0.73182499946E+02 -0.68283096042E+01  0.82929681355E+01  0.10667439753E+03  0.76865789905E+02 0.  0.
          5    1    5    5  501    0 -0.25711915793E+02  0.47376572082E+02  0.80878768543E+02  0.97309338694E+02  0.47000000000E+01 0. -1.
        -11    1    6    6    0    0  0.38903539948E+02 -0.17390313406E+02 -0.31581595771E+02  0.53040603431E+02  0.00000000000E+00 0.  1.
         12    1    6    6    0    0  0.34278959998E+02  0.10562003802E+02  0.39874563906E+02  0.53633794100E+02  0.00000000000E+00 0. -1.
         -5    1    3    3    0  503 -0.83975268924E+02 -0.25551370791E+02 -0.13532634679E+02  0.88937846509E+02  0.47000000000E+01 0.  1.
         11    1    4    4    0    0  0.14568653340E+02 -0.18275336562E+02  0.16747480934E+02  0.28752594739E+02  0.00000000000E+00 0. -1.
        -12    1    4    4    0    0  0.21936031432E+02  0.32784448748E+01 -0.75316549916E+02  0.78514459604E+02  0.00000000000E+00 0.  1.
</event>
<event>
12    1  0.8449700E-002  0.2097837E+03  0.7818608E-02  0.1142790E+00
         21   -1    0    0  501  502  0.00000000000E+00  0.00000000000E+00  0.89245982723E+03  0.89245982723E+03  0.00000000000E+00 0.  1.
         21   -1    0    0  502  503 -0.00000000000E+00 -0.00000000000E+00 -0.52263268708E+02  0.52263268708E+02  0.00000000000E+00 0.  1.
         -6    2    1    2    0  503 -0.77420268708E+02  0.78863014824E+02  0.55848170335E+03  0.59658276631E+03  0.17831407956E+03 0.  0.
        -24    2    3    3    0    0 -0.85791718078E+02  0.58872732159E+02  0.55922155840E+03  0.57439425687E+03  0.79836041177E+02 0.  0.
          6    2    1    2  501    0  0.77420268708E+02 -0.78863014824E+02  0.28171485517E+03  0.34814032963E+03  0.17211959904E+03 0.  0.
         24    2    5    5    0    0  0.26603761546E+02 -0.49483771012E+01  0.22945727318E+03  0.24422384419E+03  0.79135322661E+02 0.  0.
          5    1    5    5  501    0  0.50816507162E+02 -0.73914637723E+02  0.52257581995E+02  0.10391648544E+03  0.47000000000E+01 0. -1.
        -13    1    6    6    0    0  0.52563446123E+02 -0.11995920160E+01  0.10998005743E+03  0.12190146809E+03  0.00000000000E+00 0.  1.
         14    1    6    6    0    0 -0.25959684577E+02 -0.37487850853E+01  0.11947721575E+03  0.12232237610E+03  0.00000000000E+00 0. -1.
         -5    1    3    3    0  503  0.83714493703E+01  0.19990282666E+02 -0.73985504489E+00  0.22188509439E+02  0.47000000000E+01 0.  1.
         11    1    4    4    0    0 -0.20502589582E+01 -0.24323478676E+01  0.21128992231E+03  0.21131386881E+03  0.00000000000E+00 0. -1.
        -12    1    4    4    0    0 -0.83741459120E+02  0.61305080026E+02  0.34793163608E+03  0.36308038807E+03  0.00000000000E+00 0.  1.
</event>
<event>
12    1  0.8449700E-002  0.2710550E+03  0.7818608E-02  0.1100749E+00
         21   -1    0    0  503  502  0.00000000000E+00  0.00000000000E+00  0.37964249244E+03  0.37964249244E+03  0.00000000000E+00 0.  1.
         21   -1    0    0  501  503 -0.00000000000E+00 -0.00000000000E+00 -0.43429893377E+03  0.43429893377E+03  0.00000000000E+00 0. -1.
          6    2    1    2  501    0 -0.20020772324E+03  0.57295099809E+02 -0.33056216746E+03  0.42716658679E+03  0.17272546254E+03 0.  0.
         24    2    3    3    0    0 -0.18021279485E+03  0.33821674460E+02 -0.16622189130E+03  0.25989251460E+03  0.79333756422E+02 0.  0.
         -6    2    1    2    0  502  0.20020772324E+03 -0.57295099809E+02  0.27590572613E+03  0.38677483942E+03  0.17350776868E+03 0.  0.
        -24    2    5    5    0    0  0.13316545274E+03 -0.76675282356E+02  0.26492204002E+03  0.31597237569E+03  0.77734922548E+02 0.  0.
          5    1    3    3  501    0 -0.19994928391E+02  0.23473425349E+02 -0.16434027616E+03  0.16727407219E+03  0.47000000000E+01 0. -1.
        -13    1    4    4    0    0 -0.55839616934E+01 -0.50872275537E+01  0.74082843923E+01  0.10580320884E+02  0.00000000000E+00 0.  1.
         14    1    4    4    0    0 -0.17462883316E+03  0.38908902014E+02 -0.17363017569E+03  0.24931219372E+03  0.00000000000E+00 0. -1.
         -5    1    5    5    0  502  0.67042270504E+02  0.19380182547E+02  0.10983686110E+02  0.70802463732E+02  0.47000000000E+01 0.  1.
         13    1    6    6    0    0  0.10532454290E+02 -0.32410516873E+02  0.10057071728E+03  0.10618777411E+03  0.00000000000E+00 0. -1.
        -14    1    6    6    0    0  0.12263299845E+03 -0.44264765483E+02  0.16435132274E+03  0.20978460157E+03  0.00000000000E+00 0.  1.
</event>
<event>
12    1  0.8449700E-002  0.5104446E+03  0.7818608E-02  0.1011108E+00
         21   -1    0    0  501  502  0.00000000000E+00  0.00000000000E+00  0.32356018353E+03  0.32356018353E+03  0.00000000000E+00 0.  1.
         21   -1    0    0  502  503 -0.00000000000E+00 -0.00000000000E+00 -0.91008627267E+03  0.91008627267E+03  0.00000000000E+00 0. -1.
         -6    2    1    2    0  503 -0.10371718678E+03  0.46937770382E+03 -0.50300145875E+03  0.71641337464E+03  0.17077755177E+03 0.  0.
        -24    2    3    3    0    0 -0.10431118742E+03  0.43745560650E+03 -0.39623737693E+03  0.60487848189E+03  0.81398326159E+02 0.  0.
          6    2    1    2  501    0  0.10371718678E+03 -0.46937770382E+03 -0.83524630393E+02  0.51723308157E+03  0.17170035850E+03 0.  0.
         24    2    5    5    0    0  0.98060044739E+02 -0.33217721209E+03  0.18294677496E+01  0.35548206841E+03  0.80041747882E+02 0.  0.
          5    1    5    5  501    0  0.56571420368E+01 -0.13720049173E+03 -0.85354098142E+02  0.16175101315E+03  0.47000000000E+01 0. -1.
        -11    1    6    6    0    0  0.17307000469E+02 -0.17138442763E+03 -0.23224264969E+02  0.17381461613E+03  0.00000000000E+00 0.  1.
         12    1    6    6    0    0  0.80753044270E+02 -0.16079278446E+03  0.25053732719E+02  0.18166745228E+03  0.00000000000E+00 0. -1.
         -5    1    3    3    0  503  0.59400064710E+00  0.31922097321E+02 -0.10676408182E+03  0.11153489275E+03  0.47000000000E+01 0.  1.
         11    1    4    4    0    0 -0.44692977653E+02  0.60646887760E+02 -0.72021930212E+02  0.10422411275E+03  0.00000000000E+00 0. -1.
        -12    1    4    4    0    0 -0.59618209770E+02  0.37680871874E+03 -0.32421544671E+03  0.50065436914E+03  0.00000000000E+00 0.  1.
</event>
<event>
12    1  0.8449700E-002  0.2873605E+03  0.7818608E-02  0.1091770E+00
         21   -1    0    0  503  502  0.00000000000E+00  0.00000000000E+00  0.11453089766E+04  0.11453089766E+04  0.00000000000E+00 0. -1.
         21   -1    0    0  501  503 -0.00000000000E+00 -0.00000000000E+00 -0.83221654680E+02  0.83221654680E+02  0.00000000000E+00 0.  1.
          6    2    1    2  501    0 -0.18931645644E+03 -0.12989325648E+03  0.30561624403E+03  0.41931834594E+03  0.17237635531E+03 0.  0.
         24    2    3    3    0    0 -0.44960547713E+02 -0.94009189100E+02  0.18914496693E+03  0.23033701600E+03  0.80125800705E+02 0.  0.
         -6    2    1    2    0  502  0.18931645644E+03  0.12989325648E+03  0.75647107785E+03  0.80921228530E+03  0.17280929459E+03 0.  0.
        -24    2    5    5    0    0  0.41920432964E+02  0.91405397812E+02  0.43673078070E+03  0.45500492989E+03  0.78634864828E+02 0.  0.
          5    1    3    3  501    0 -0.14435590873E+03 -0.35884067380E+02  0.11647127710E+03  0.18898132994E+03  0.47000000000E+01 0. -1.
        -11    1    4    4    0    0 -0.66480542302E+02 -0.77830765917E+02  0.13088568614E+03  0.16615761633E+03  0.00000000000E+00 0.  1.
         12    1    4    4    0    0  0.21519994589E+02 -0.16178423182E+02  0.58259280788E+02  0.64179399668E+02  0.00000000000E+00 0. -1.
         -5    1    5    5    0  502  0.14739602348E+03  0.38487858668E+02  0.31974029715E+03  0.35420735541E+03  0.47000000000E+01 0.  1.
         11    1    6    6    0    0  0.50659258933E+02  0.65130825394E+02  0.40301985814E+03  0.41137986216E+03  0.00000000000E+00 0. -1.
        -12    1    6    6    0    0 -0.87388259693E+01  0.26274572418E+02  0.33710922555E+02  0.43625067731E+02  0.00000000000E+00 0.  1.
</event>
<event>
12    1  0.8449700E-002  0.2043844E+03  0.7818608E-02  0.1147164E+00
         21   -1    0    0  501  502  0.00000000000E+00  0.00000000000E+00  0.70364513395E+03  0.70364513395E+03  0.00000000000E+00 0.  1.
         21   -1    0    0  502  503 -0.00000000000E+00 -0.00000000000E+00 -0.66288812226E+02  0.66288812226E+02  0.00000000000E+00 0.  1.
         -6    2    1    2    0  503  0.10043034725E+03  0.44077360853E+02  0.17799802180E+03  0.26715861947E+03  0.16631705807E+03 0.  0.
        -24    2    3    3    0    0  0.74236738288E+02 -0.33474149038E+02  0.76122015853E+02  0.13638724483E+03  0.78583123444E+02 0.  0.
          6    2    1    2  501    0 -0.10043034725E+03 -0.44077360853E+02  0.45935829992E+03  0.50277532670E+03  0.17246423700E+03 0.  0.
         24    2    5    5    0    0 -0.64408819254E+02 -0.92552394798E+02  0.26788500976E+03  0.30194831099E+03  0.81828859664E+02 0.  0.
          5    1    5    5  501    0 -0.36021528001E+02  0.48475033945E+02  0.19147329016E+03  0.20082701572E+03  0.47000000000E+01 0. -1.
        -11    1    6    6    0    0 -0.70398911738E+02 -0.92634963191E+02  0.18302069360E+03  0.21687281403E+03  0.00000000000E+00 0.  1.
         12    1    6    6    0    0  0.59900924844E+01  0.82568393111E-01  0.84864316156E+02  0.85075496955E+02  0.00000000000E+00 0. -1.
         -5    1    3    3    0  503  0.26193608967E+02  0.77551509891E+02  0.10187600595E+03  0.13077137464E+03  0.47000000000E+01 0.  1.
         11    1    4    4    0    0  0.32278435395E+02 -0.25992098493E+02 -0.78860473942E+01  0.42186210059E+02  0.00000000000E+00 0. -1.
        -12    1    4    4    0    0  0.41958302893E+02 -0.74820505451E+01  0.84008063247E+02  0.94201034774E+02  0.00000000000E+00 0.  1.
</event>
<event>
12    1  0.8449700E-002  0.1975457E+03  0.7818608E-02  0.1151998E+00
         21   -1    0    0  501  502  0.00000000000E+00  0.00000000000E+00  0.35092746705E+02  0.35092746705E+02  0.00000000000E+00 0. -1.
         21   -1    0    0  502  503 -0.00000000000E+00 -0.00000000000E+00 -0.14581422323E+04  0.14581422323E+04  0.00000000000E+00 0. -1.
         -6    2    1    2    0  503  0.86508662178E+02  0.43415626561E+02 -0.10787262735E+04  0.10966652571E+04  0.17220815272E+03 0.  0.
        -24    2    3    3    0    0  0.40119710198E+02  0.92793983733E+02 -0.75630322435E+03  0.76716735179E+03  0.79566726223E+02 0.  0.
          6    2    1    2  501    0 -0.86508662178E+02 -0.43415626561E+02 -0.34432321215E+03  0.39656972189E+03  0.17129041024E+03 0.  0.
         24    2    5    5    0    0 -0.54536383017E+02  0.38118954610E+02 -0.13746406092E+03  0.17188569263E+03  0.78873642696E+02 0.  0.
          5    1    5    5  501    0 -0.31972279161E+02 -0.81534581171E+02 -0.20685915123E+03  0.22468402927E+03  0.47000000000E+01 0. -1.
        -13    1    6    6    0    0  0.10163650575E+02  0.19017867835E+02 -0.34331929260E+01  0.21834969743E+02  0.00000000000E+00 0.  1.
         14    1    6    6    0    0 -0.64700033592E+02  0.19101086775E+02 -0.13403086799E+03  0.15005072288E+03  0.00000000000E+00 0. -1.
         -5    1    3    3    0  503  0.46388951980E+02 -0.49378357172E+02 -0.32242304910E+03  0.32949790532E+03  0.47000000000E+01 0.  1.
         11    1    4    4    0    0  0.19021046719E+01  0.43581707786E+02 -0.54828347458E+03  0.55001613772E+03  0.00000000000E+00 0. -1.
        -12    1    4    4    0    0  0.38217605526E+02  0.49212275947E+02 -0.20801974978E+03  0.21715121407E+03  0.00000000000E+00 0.  1.
</event>
<event>
12    1  0.8449700E-002  0.2019414E+03  0.7818608E-02  0.1148194E+00
         21   -1    0    0  503  502  0.00000000000E+00  0.00000000000E+00  0.25585088029E+03  0.25585088029E+03  0.00000000000E+00 0. -1.
         21   -1    0    0  501  503 -0.00000000000E+00 -0.00000000000E+00 -0.16471961402E+03  0.16471961402E+03  0.00000000000E+00 0. -1.
          6    2    1    2  501    0  0.85745530995E+02  0.61168040250E+02  0.66095987784E+01  0.20165441633E+03  0.17183419798E+03 0.  0.
         24    2    3    3    0    0  0.11361957913E+02  0.23955334648E+01 -0.46364585311E+02  0.92955392974E+02  0.79725765243E+02 0.  0.
         -6    2    1    2    0  502 -0.85745530995E+02 -0.61168040250E+02  0.84521667494E+02  0.21891607797E+03  0.17229774138E+03 0.  0.
        -24    2    5    5    0    0 -0.42506294018E+02 -0.66333440784E+02  0.11802399967E+03  0.16377254492E+03  0.81761063922E+02 0.  0.
          5    1    3    3  501    0  0.74383573082E+02  0.58772506786E+02  0.52974184089E+02  0.10869902335E+03  0.47000000000E+01 0. -1.
        -13    1    4    4    0    0 -0.13098543552E+01  0.34385692566E+02 -0.47349719478E+02  0.58532790010E+02  0.00000000000E+00 0.  1.
         14    1    4    4    0    0  0.12671812268E+02 -0.31990159101E+02  0.98513416710E+00  0.34422602964E+02  0.00000000000E+00 0. -1.
         -5    1    5    5    0  502 -0.43239236977E+02  0.51654005334E+01 -0.33502332173E+02  0.55143533058E+02  0.47000000000E+01 0.  1.
         13    1    6    6    0    0  0.18515662789E+02 -0.34445854882E+02  0.68790670083E+02  0.79129659278E+02  0.00000000000E+00 0. -1.
        -14    1    6    6    0    0 -0.61021956807E+02 -0.31887585902E+02  0.49233329584E+02  0.84642885638E+02  0.00000000000E+00 0.  1.
</event>
<event>
12    1  0.8449700E-002  0.2651934E+03  0.7818608E-02  0.1104406E+00
         21   -1    0    0  501  502  0.00000000000E+00  0.00000000000E+00  0.10682806521E+04  0.10682806521E+04  0.00000000000E+00 0.  1.
         21   -1    0    0  502  503 -0.00000000000E+00 -0.00000000000E+00 -0.29698351008E+03  0.29698351008E+03  0.00000000000E+00 0. -1.
         -6    2    1    2    0  503 -0.19063360083E+03  0.52841782341E+02 -0.21771692634E+03  0.34131280669E+03  0.17309057823E+03 0.  0.
        -24    2    3    3    0    0 -0.16548453181E+03  0.37914471003E+02 -0.24006806532E+03  0.30420534505E+03  0.78010118515E+02 0.  0.
          6    2    1    2  501    0  0.19063360083E+03 -0.52841782341E+02  0.98901406836E+03  0.10239513555E+04  0.17661859257E+03 0.  0.
         24    2    5    5    0    0  0.15820967758E+03 -0.91570540147E+02  0.62109513777E+03  0.65255176344E+03  0.81542430065E+02 0.  0.
          5    1    5    5  501    0  0.32423923249E+02  0.38728757806E+02  0.36791893059E+03  0.37139959204E+03  0.47000000000E+01 0. -1.
        -11    1    6    6    0    0  0.12922798352E+03 -0.58411734073E+02  0.55710355426E+03  0.57487057028E+03  0.00000000000E+00 0.  1.
         12    1    6    6    0    0  0.28981694055E+02 -0.33158806074E+02  0.63991583516E+02  0.77681193165E+02  0.00000000000E+00 0. -1.
         -5    1    3    3    0  503 -0.25149069015E+02  0.14927311338E+02  0.22351138976E+02  0.37107461644E+02  0.47000000000E+01 0.  1.
         13    1    4    4    0    0 -0.12509424732E+03 -0.83050183875E+01 -0.16548168892E+03  0.20760956965E+03  0.00000000000E+00 0. -1.
        -14    1    4    4    0    0 -0.40390284498E+02  0.46219489390E+02 -0.74586376401E+02  0.96595775404E+02  0.00000000000E+00 0.  1.
</event>
<event>
12    1  0.8449700E-002  0.1866124E+03  0.7818608E-02  0.1161744E+00
         21   -1    0    0  501  502  0.00000000000E+00  0.00000000000E+00  0.44500518907E+03  0.44500518907E+03  0.00000000000E+00 0.  1.
         21   -1    0    0  502  503 -0.00000000000E+00 -0.00000000000E+00 -0.77911781572E+02  0.77911781572E+02  0.00000000000E+00 0. -1.
         -6    2    1    2    0  503  0.47563631437E+02  0.54217142417E+02  0.18542609539E+03  0.26307226398E+03  0.17211153842E+03 0.  0.
        -24    2    3    3    0    0 -0.18361375440E+01  0.17694046622E+02  0.17045138464E+02  0.83772207211E+02  0.80067442002E+02 0.  0.
          6    2    1    2  501    0 -0.47563631437E+02 -0.54217142417E+02  0.18166731210E+03  0.25984470666E+03  0.17121466562E+03 0.  0.
         24    2    5    5    0    0  0.33094255551E+02 -0.41934015818E+02  0.13648771140E+03  0.16646453610E+03  0.78916759853E+02 0.  0.
          5    1    5    5  501    0 -0.80657886988E+02 -0.12283126599E+02  0.45179600709E+02  0.93380170554E+02  0.47000000000E+01 0. -1.
        -13    1    6    6    0    0  0.23872645685E+02 -0.44993692582E+01 -0.35393174204E+00  0.24295530523E+02  0.00000000000E+00 0.  1.
         14    1    6    6    0    0  0.92216098654E+01 -0.37434646560E+02  0.13684164314E+03  0.14216900558E+03  0.00000000000E+00 0. -1.
         -5    1    3    3    0  503  0.49399768981E+02  0.36523095795E+02  0.16838095693E+03  0.17930005677E+03  0.47000000000E+01 0.  1.
         11    1    4    4    0    0  0.21085198109E+02  0.40348616105E+02 -0.33243278379E+01  0.45646988471E+02  0.00000000000E+00 0. -1.
        -12    1    4    4    0    0 -0.22921335653E+02 -0.22654569482E+02  0.20369466302E+02  0.38125218740E+02  0.00000000000E+00 0.  1.
</event>
<event>
12    1  0.8449700E-002  0.2042332E+03  0.7818608E-02  0.1147097E+00
         21   -1    0    0  503  502  0.00000000000E+00  0.00000000000E+00  0.28094572043E+02  0.28094572043E+02  0.00000000000E+00 0.  1.
         21   -1    0    0  501  503 -0.00000000000E+00 -0.00000000000E+00 -0.15567022824E+04  0.15567022824E+04  0.00000000000E+00 0.  1.
          6    2    1    2  501    0 -0.94113934247E+01 -0.10235600637E+03 -0.97533835044E+03  0.99649189145E+03  0.17648191274E+03 0.  0.
         24    2    3    3    0    0  0.54634510786E+02 -0.77905933133E+02 -0.77174988057E+03  0.78161974576E+03  0.79229316706E+02 0.  0.
         -6    2    1    2    0  502  0.94113934247E+01  0.10235600637E+03 -0.55326935988E+03  0.58830496295E+03  0.17155296118E+03 0.  0.
        -24    2    5    5    0    0 -0.12773814650E+02  0.10381448071E+02 -0.39768992209E+03  0.40615515018E+03  0.80831844453E+02 0.  0.
          5    1    3    3  501    0 -0.64045904210E+02 -0.24450073238E+02 -0.20358846987E+03  0.21487214569E+03  0.47000000000E+01 0. -1.
        -13    1    4    4    0    0  0.23024584841E+02 -0.62488164811E+02 -0.25102017615E+03  0.25970373714E+03  0.00000000000E+00 0.  1.
         14    1    4    4    0    0  0.31609925945E+02 -0.15417768322E+02 -0.52072970441E+03  0.52191600862E+03  0.00000000000E+00 0. -1.
         -5    1    5    5    0  502  0.22185208075E+02  0.91974558301E+02 -0.15557943779E+03  0.18214981277E+03  0.47000000000E+01 0.  1.
         11    1    6    6    0    0  0.20723430056E+02 -0.10042503277E+02 -0.38741262903E+02  0.45068812683E+02  0.00000000000E+00 0. -1.
        -12    1    6    6    0    0 -0.33497244706E+02  0.20423951348E+02 -0.35894865919E+03  0.36108633750E+03  0.00000000000E+00 0.  1.
</event>
<event>
12    1  0.8449700E-002  0.1848018E+03  0.7818608E-02  0.1164734E+00
         21   -1    0    0  501  502  0.00000000000E+00  0.00000000000E+00  0.10515974210E+03  0.10515974210E+03  0.00000000000E+00 0.  1.
         21   -1    0    0  502  503 -0.00000000000E+00 -0.00000000000E+00 -0.42672156538E+03  0.42672156538E+03  0.00000000000E+00 0.  1.
         -6    2    1    2    0  503 -0.42386898098E+02 -0.24787446314E+02 -0.29552444853E+03  0.34525424382E+03  0.17162379372E+03 0.  0.
        -24    2    3    3    0    0 -0.63258045449E+02  0.19296775481E+02 -0.10199751176E+03  0.14562010681E+03  0.80173419813E+02 0.  0.
          6    2    1    2  501    0  0.42386898098E+02  0.24787446314E+02 -0.26037374746E+02  0.18662706366E+03  0.17815905641E+03 0.  0.
         24    2    5    5    0    0 -0.42237090702E+02 -0.11621891516E+02 -0.20572443866E+02  0.94221355879E+02  0.80841810122E+02 0.  0.
          5    1    5    5  501    0  0.84623988799E+02  0.36409337829E+02 -0.54649308807E+01  0.92405707784E+02  0.47000000000E+01 0. -1.
        -13    1    6    6    0    0 -0.29018297463E+02  0.33756259539E+02 -0.71240656869E+01  0.45081026581E+02  0.00000000000E+00 0.  1.
         14    1    6    6    0    0 -0.13218793239E+02 -0.45378151055E+02 -0.13448378179E+02  0.49140329298E+02  0.00000000000E+00 0. -1.
         -5    1    3    3    0  503  0.20871147351E+02 -0.44084221794E+02 -0.19352693677E+03  0.19963413701E+03  0.47000000000E+01 0.  1.
         13    1    4    4    0    0 -0.55702114219E+02  0.84522220603E+01 -0.15936844005E+02  0.58550393535E+02  0.00000000000E+00 0. -1.
        -14    1    4    4    0    0 -0.75559312300E+01  0.10844553420E+02 -0.86060667756E+02  0.87069713277E+02  0.00000000000E+00 0.  1.
</event>
<event>
12    1  0.8449700E-002  0.2991884E+03  0.7818608E-02  0.1085699E+00
         21   -1    0    0  501  502  0.00000000000E+00  0.00000000000E+00  0.82479042975E+03  0.82479042975E+03  0.00000000000E+00 0. -1.
         21   -1    0    0  502  503 -0.00000000000E+00 -0.00000000000E+00 -0.15135612574E+03  0.15135612574E+03  0.00000000000E+00 0.  1.
         -6    2    1    2    0  503  0.73790022676E+02 -0.23344788791E+03  0.76471142781E+02  0.30840506830E+03  0.17123950088E+03 0.  0.
        -24    2    3    3    0    0  0.51224995523E+02 -0.89358226373E+02  0.94626913810E+02  0.16135836472E+03  0.80457294648E+02 0.  0.
          6    2    1    2  501    0 -0.73790022676E+02  0.23344788791E+03  0.59696316123E+03  0.66774148719E+03  0.17196160628E+03 0.  0.
         24    2    5    5    0    0 -0.60165146081E+02  0.55916087193E+02  0.30421539499E+03  0.32506595237E+03  0.79839922529E+02 0.  0.
          5    1    5    5  501    0 -0.13624876595E+02  0.17753180072E+03  0.29274776623E+03  0.34267553482E+03  0.47000000000E+01 0. -1.
        -11    1    6    6    0    0  0.10817828962E+02  0.24007587433E+02  0.29515084184E+02  0.39554138497E+02  0.00000000000E+00 0.  1.
         12    1    6    6    0    0 -0.70982975042E+02  0.31908499760E+02  0.27470031081E+03  0.28551181387E+03  0.00000000000E+00 0. -1.
         -5    1    3    3    0  503  0.22565027153E+02 -0.14408966153E+03 -0.18155771029E+02  0.14704670358E+03  0.47000000000E+01 0.  1.
         13    1    4    4    0    0  0.58156127989E+02 -0.90979020312E+02  0.55154105516E+02  0.12124888748E+03  0.00000000000E+00 0. -1.
        -14    1    4    4    0    0 -0.69311324659E+01  0.16207939381E+01  0.39472808294E+02  0.40109477245E+02  0.00000000000E+00 0.  1.
</event>
<event>
12    1  0.8449700E-002  0.2252874E+03  0.7818608E-02  0.1130180E+00
         21   -1    0    0  501  502  0.00000000000E+00  0.00000000000E+00  0.12926142089E+04  0.12926142089E+04  0.00000000000E+00 0. -1.
         21   -1    0    0  502  503 -0.00000000000E+00 -0.00000000000E+00 -0.12464375037E+03  0.12464375037E+03  0.00000000000E+00 0. -1.
         -6    2    1    2    0  503  0.14201949261E+03 -0.31265113825E+01 -0.34910867851E+01  0.22433022826E+03  0.17358730446E+03 0.  0.
        -24    2    3    3    0    0  0.13930605887E+03 -0.26121176846E+02  0.46147739150E+02  0.16935550314E+03  0.80393897145E+02 0.  0.
          6    2    1    2  501    0 -0.14201949261E+03  0.31265113825E+01  0.11714615453E+04  0.11929277310E+04  0.17485739305E+03 0.  0.
         24    2    5    5    0    0 -0.13409929793E+03 -0.55207412643E+02  0.81475610893E+03  0.83136662342E+03  0.79451025037E+02 0.  0.
          5    1    5    5  501    0 -0.79201946797E+01  0.58333924026E+02  0.35670543638E+03  0.36156110758E+03  0.47000000000E+01 0. -1.
        -11    1    6    6    0    0 -0.79308383347E+02  0.10099509417E+02  0.37599510576E+03  0.38440101367E+03  0.00000000000E+00 0.  1.
         12    1    6    6    0    0 -0.54790914586E+02 -0.65306922060E+02  0.43876100318E+03  0.44696560975E+03  0.00000000000E+00 0. -1.
         -5    1    3    3    0  503  0.27134337474E+01  0.22994665463E+02 -0.49638825935E+02  0.54974725126E+02  0.47000000000E+01 0.  1.
         13    1    4    4    0    0  0.60074616759E+02  0.71327091341E+01 -0.16861230829E+02  0.62802358422E+02  0.00000000000E+00 0. -1.
        -14    1    4    4    0    0  0.79231442107E+02 -0.33253885980E+02  0.63008969980E+02  0.10655314472E+03  0.00000000000E+00 0.  1.
</event>
<event>
12    1  0.8449700E-002  0.1730487E+03  0.7818608E-02  0.1174798E+00
         21   -1    0    0  503  502  0.00000000000E+00  0.00000000000E+00  0.22718237987E+03  0.22718237987E+03  0.00000000000E+00 0.  1.
         21   -1    0    0  501  503 -0.00000000000E+00 -0.00000000000E+00 -0.23154718969E+03  0.23154718969E+03  0.00000000000E+00 0.  1.
          6    2    1    2  501    0 -0.10038915544E+01 -0.60712340695E+00  0.14855774025E+03  0.22779418713E+03  0.17268298442E+03 0.  0.
         24    2    3    3    0    0  0.11747701410E+02  0.51111463034E+02  0.14257766569E+03  0.17398650554E+03  0.84808744924E+02 0.  0.
         -6    2    1    2    0  502  0.10038915544E+01  0.60712340695E+00 -0.15292255006E+03  0.23093538242E+03  0.17304469983E+03 0.  0.
        -24    2    5    5    0    0 -0.20669427466E+02  0.23236972182E+02 -0.10209811172E+02  0.84747631038E+02  0.78171213464E+02 0.  0.
          5    1    3    3  501    0 -0.12751592964E+02 -0.51718586441E+02  0.59800745626E+01  0.53807681592E+02  0.47000000000E+01 0. -1.
        -11    1    4    4    0    0 -0.33502028137E+02  0.33990601677E+01  0.42216231336E+02  0.54001385978E+02  0.00000000000E+00 0.  1.
         12    1    4    4    0    0  0.45249729548E+02  0.47712402866E+02  0.10036143435E+03  0.11998511956E+03  0.00000000000E+00 0. -1.
         -5    1    5    5    0  502  0.21673319020E+02 -0.22629848775E+02 -0.14271273889E+03  0.14618775138E+03  0.47000000000E+01 0.  1.
         11    1    6    6    0    0  0.25603439011E+02 -0.68642119810E+01  0.60727632305E+01  0.27194336700E+02  0.00000000000E+00 0. -1.
        -12    1    6    6    0    0 -0.46272866477E+02  0.30101184163E+02 -0.16282574403E+02  0.57553294338E+02  0.00000000000E+00 0.  1.
</event>
<event>
12    1  0.8449700E-002  0.1958950E+03  0.7818608E-02  0.1153294E+00
         21   -1    0    0  501  502  0.00000000000E+00  0.00000000000E+00  0.24589794176E+03  0.24589794176E+03  0.00000000000E+00 0. -1.
         21   -1    0    0  502  503 -0.00000000000E+00 -0.00000000000E+00 -0.19402785504E+03  0.19402785504E+03  0.00000000000E+00 0. -1.
         -6    2    1    2    0  503  0.92578546702E+02  0.62221587543E+00 -0.71568563764E+02  0.20855914116E+03  0.17263742810E+03 0.  0.
        -24    2    3    3    0    0  0.38469005890E+02 -0.65005470638E+02 -0.20115331094E+02  0.10903848604E+03  0.76020979119E+02 0.  0.
          6    2    1    2  501    0 -0.92578546702E+02 -0.62221587543E+00  0.12343865048E+03  0.23136665564E+03  0.17240143400E+03 0.  0.
         24    2    5    5    0    0 -0.87855486150E+02 -0.53441788223E+02  0.41128668884E+02  0.13333993686E+03  0.74252004564E+02 0.  0.
          5    1    5    5  501    0 -0.47230605521E+01  0.52819572347E+02  0.82309981601E+02  0.98026718781E+02  0.47000000000E+01 0. -1.
        -13    1    6    6    0    0 -0.46398800841E+02 -0.13477554389E+02  0.55905448508E+02  0.73891219808E+02  0.00000000000E+00 0.  1.
         14    1    6    6    0    0 -0.41456685308E+02 -0.39964233834E+02 -0.14776779624E+02  0.59448717049E+02  0.00000000000E+00 0. -1.
         -5    1    3    3    0  503  0.54109540811E+02  0.65627686513E+02 -0.51453232670E+02  0.99520655123E+02  0.47000000000E+01 0.  1.
         13    1    4    4    0    0  0.60957310547E+02 -0.45090922474E+02 -0.66287192445E+01  0.76111266692E+02  0.00000000000E+00 0. -1.
        -14    1    4    4    0    0 -0.22488304657E+02 -0.19914548164E+02 -0.13486611849E+02  0.32927219350E+02  0.00000000000E+00 0.  1.
</event>
<event>
12    1  0.8449700E-002  0.1950018E+03  0.7818608E-02  0.1154063E+00
         21   -1    0    0  503  502  0.00000000000E+00  0.00000000000E+00  0.19458984562E+03  0.19458984562E+03  0.00000000000E+00 0. -1.
         21   -1    0    0  501  503 -0.00000000000E+00 -0.00000000000E+00 -0.22534045494E+03  0.22534045494E+03  0.00000000000E+00 0. -1.
          6    2    1    2  501    0 -0.89645614747E+02  0.11072202187E+02 -0.92115050510E+02  0.21566380080E+03  0.17282002933E+03 0.  0.
         24    2    3    3    0    0  0.61977073056E+01  0.27239416710E+02 -0.39009954673E+01  0.84320240944E+02  0.79462493471E+02 0.  0.
         -6    2    1    2    0  502  0.89645614747E+02 -0.11072202187E+02  0.61364441196E+02  0.20426649976E+03  0.17262757131E+03 0.  0.
        -24    2    5    5    0    0  0.67830422983E+02 -0.48763670354E+02 -0.14780122599E+02  0.11642212624E+03  0.79729527941E+02 0.  0.
          5    1    3    3  501    0 -0.95843322053E+02 -0.16167214523E+02 -0.88214055042E+02  0.13134355985E+03  0.47000000000E+01 0. -1.
        -11    1    4    4    0    0  0.12548626365E+02 -0.24618875782E+01  0.33664906373E+02  0.36011870754E+02  0.00000000000E+00 0.  1.
         12    1    4    4    0    0 -0.63509190596E+01  0.29701304288E+02 -0.37565901840E+02  0.48308370190E+02  0.00000000000E+00 0. -1.
         -5    1    5    5    0  502  0.21815191764E+02  0.37691468167E+02  0.76144563795E+02  0.87844373524E+02  0.47000000000E+01 0.  1.
         11    1    6    6    0    0  0.80007703563E+02 -0.40026728735E+02  0.72747250650E+01  0.89756856381E+02  0.00000000000E+00 0. -1.
        -12    1    6    6    0    0 -0.12177280580E+02 -0.87369416190E+01 -0.22054847664E+02  0.26665269859E+02  0.00000000000E+00 0.  1.
</event>
<event>
12    1  0.8449700E-002  0.2151994E+03  0.7818608E-02  0.1137815E+00
         21   -1    0    0  501  502  0.00000000000E+00  0.00000000000E+00  0.78121808907E+02  0.78121808907E+02  0.00000000000E+00 0. -1.
         21   -1    0    0  502  503 -0.00000000000E+00 -0.00000000000E+00 -0.59521122433E+03  0.59521122433E+03  0.00000000000E+00 0.  1.
         -6    2    1    2    0  503 -0.82426278894E+02 -0.96449404065E+02 -0.22371641575E+03  0.31041876795E+03  0.17382231682E+03 0.  0.
        -24    2    3    3    0    0 -0.79069227109E+02 -0.23349360196E+02 -0.20421921906E+03  0.23454310064E+03  0.80671192687E+02 0.  0.
          6    2    1    2  501    0  0.82426278894E+02  0.96449404065E+02 -0.29337299967E+03  0.36291426528E+03  0.17187922508E+03 0.  0.
         24    2    5    5    0    0  0.10448169455E+03  0.65224899312E+02 -0.28916602211E+03  0.32416894664E+03  0.79358714905E+02 0.  0.
          5    1    5    5  501    0 -0.22055415659E+02  0.31224504754E+02 -0.42069775576E+01  0.38745318649E+02  0.47000000000E+01 0. -1.
        -11    1    6    6    0    0  0.78836051215E+02  0.83501340758E+02 -0.21988818762E+03  0.24806936920E+03  0.00000000000E+00 0.  1.
         12    1    6    6    0    0  0.25645643337E+02 -0.18276441446E+02 -0.69277834492E+02  0.76099577437E+02  0.00000000000E+00 0. -1.
         -5    1    3    3    0  503 -0.33570517844E+01 -0.73100043869E+02 -0.19497196690E+02  0.75875667306E+02  0.47000000000E+01 0.  1.
         13    1    4    4    0    0 -0.24248959470E+02  0.29289411490E+02 -0.52161532716E+02  0.64550036066E+02  0.00000000000E+00 0. -1.
        -14    1    4    4    0    0 -0.54820267639E+02 -0.52638771687E+02 -0.15205768634E+03  0.16999306458E+03  0.00000000000E+00 0.  1.
</event>
<event>
12    1  0.8449700E-002  0.2195663E+03  0.7818608E-02  0.1134228E+00
         21   -1    0    0  503  502  0.00000000000E+00  0.00000000000E+00  0.21882279476E+03  0.21882279476E+03  0.00000000000E+00 0. -1.
         21   -1    0    0  501  503 -0.00000000000E+00 -0.00000000000E+00 -0.47711892145E+03  0.47711892145E+03  0.00000000000E+00 0.  1.
          6    2    1    2  501    0 -0.37812967848E+02  0.13037195858E+03 -0.38450951924E+03  0.44278317748E+03  0.17257666051E+03 0.  0.
         24    2    3    3    0    0 -0.28514161432E+02  0.12679967294E+03 -0.17157067227E+03  0.22955965257E+03  0.79811803927E+02 0.  0.
         -6    2    1    2    0  502  0.37812967848E+02 -0.13037195858E+03  0.12621339255E+03  0.25315853873E+03  0.17243189135E+03 0.  0.
        -24    2    5    5    0    0 -0.32171317981E+02 -0.37273122443E+02  0.92639572420E+02  0.13185526198E+03  0.79871398992E+02 0.  0.
          5    1    3    3  501    0 -0.92988064156E+01  0.35722856390E+01 -0.21293884697E+03  0.21322352491E+03  0.47000000000E+01 0. -1.
        -11    1    4    4    0    0 -0.49349392111E+02  0.40808865830E+02 -0.71873865312E+02  0.96263069486E+02  0.00000000000E+00 0.  1.
         12    1    4    4    0    0  0.20835230679E+02  0.85990807108E+02 -0.99696806958E+02  0.13329658309E+03  0.00000000000E+00 0. -1.
         -5    1    5    5    0  502  0.69984285829E+02 -0.93098836134E+02  0.33573820130E+02  0.12130327675E+03  0.47000000000E+01 0.  1.
         13    1    6    6    0    0 -0.64789215913E+01 -0.59035499190E+02  0.67006786561E+02  0.89538126152E+02  0.00000000000E+00 0. -1.
        -14    1    6    6    0    0 -0.25692396390E+02  0.21762376747E+02  0.25632785859E+02  0.42317135830E+02  0.00000000000E+00 0.  1.
</event>
<event>
12    1  0.8449700E-002  0.2716787E+03  0.7818608E-02  0.1100815E+00
         21   -1    0    0  503  502  0.00000000000E+00  0.00000000000E+00  0.22657213300E+03  0.22657213300E+03  0.00000000000E+00 0.  1.
         21   -1    0    0  501  503 -0.00000000000E+00 -0.00000000000E+00 -0.34480886553E+03  0.34480886553E+03  0.00000000000E+00 0.  1.
          6    2    1    2  501    0  0.46470120881E+01 -0.20964842117E+03 -0.13351596655E+03  0.30271406470E+03  0.17272879442E+03 0.  0.
         24    2    3    3    0    0 -0.28763068398E+01 -0.20095308920E+03 -0.55398680804E+02  0.22361533236E+03  0.80897378379E+02 0.  0.
         -6    2    1    2    0  502 -0.46470120881E+01  0.20964842117E+03  0.15279234022E+02  0.26866693384E+03  0.16725552645E+03 0.  0.
        -24    2    5    5    0    0 -0.47080737128E+02  0.56595237059E+02  0.39584716053E+01  0.10936800777E+03  0.80784125661E+02 0.  0.
          5    1    3    3  501    0  0.75233189279E+01 -0.86953319648E+01 -0.78117285749E+02  0.79098732344E+02  0.47000000000E+01 0. -1.
        -11    1    4    4    0    0  0.13068757271E+02 -0.19016651267E+03 -0.65901678821E+02  0.20168571152E+03  0.00000000000E+00 0.  1.
         12    1    4    4    0    0 -0.15945064111E+02 -0.10786576528E+02  0.10502998017E+02  0.21929620837E+02  0.00000000000E+00 0. -1.
         -5    1    5    5    0  502  0.42433725040E+02  0.15305318411E+03  0.11320762416E+02  0.15929892607E+03  0.47000000000E+01 0.  1.
         11    1    6    6    0    0 -0.44661264787E+02  0.61011487898E+02 -0.25259939405E+02  0.79718848252E+02  0.00000000000E+00 0. -1.
        -12    1    6    6    0    0 -0.24194723413E+01 -0.44162508384E+01  0.29218411011E+02  0.29649159514E+02  0.00000000000E+00 0.  1.
</event>
<event>
12    1  0.8449700E-002  0.1849406E+03  0.7818608E-02  0.1163179E+00
         21   -1    0    0  503  502  0.00000000000E+00  0.00000000000E+00  0.94034637387E+02  0.94034637387E+02  0.00000000000E+00 0. -1.
         21   -1    0    0  501  503 -0.00000000000E+00 -0.00000000000E+00 -0.36931662362E+03  0.36931662362E+03  0.00000000000E+00 0. -1.
          6    2    1    2  501    0 -0.34606788579E+02  0.59174618015E+02 -0.16779271751E+03  0.24971470733E+03  0.17176662589E+03 0.  0.
         24    2    3    3    0    0 -0.16634324871E+02 -0.34532685147E+02 -0.63550080668E+02  0.10831921428E+03  0.78900141454E+02 0.  0.
         -6    2    1    2    0  502  0.34606788579E+02 -0.59174618015E+02 -0.10748926872E+03  0.21363655369E+03  0.17142744514E+03 0.  0.
        -24    2    5    5    0    0  0.18277759626E+02 -0.10077327934E+03 -0.51524821859E+02  0.14186472688E+03  0.83555150289E+02 0.  0.
          5    1    3    3  501    0 -0.17972463708E+02  0.93707303163E+02 -0.10424263685E+03  0.14139549305E+03  0.47000000000E+01 0. -1.
        -13    1    4    4    0    0 -0.29656164867E+02  0.12623498191E+02 -0.59980872483E+01  0.32784415075E+02  0.00000000000E+00 0.  1.
         14    1    4    4    0    0  0.13021839996E+02 -0.47156183339E+02 -0.57551993420E+02  0.75534799203E+02  0.00000000000E+00 0. -1.
         -5    1    5    5    0  502  0.16329028953E+02  0.41598661321E+02 -0.55964446864E+02  0.71771826806E+02  0.47000000000E+01 0.  1.
         13    1    6    6    0    0  0.37291352811E+01 -0.37213181050E+02  0.22160713454E+02  0.43472111918E+02  0.00000000000E+00 0. -1.
        -14    1    6    6    0    0  0.14548624345E+02 -0.63560098286E+02 -0.73685535313E+02  0.98392614961E+02  0.00000000000E+00 0.  1.
</event>
<event>
12    1  0.8449700E-002  0.1927140E+03  0.7818608E-02  0.1156245E+00
         21   -1    0    0  503  502  0.00000000000E+00  0.00000000000E+00  0.18127076577E+03  0.18127076577E+03  0.00000000000E+00 0. -1.
         21   -1    0    0  501  503 -0.00000000000E+00 -0.00000000000E+00 -0.36967426950E+03  0.36967426950E+03  0.00000000000E+00 0. -1.
          6    2    1    2  501    0  0.41586167659E+02  0.74664933492E+02 -0.27880916609E+03  0.33892955609E+03  0.17272646369E+03 0.  0.
         24    2    3    3    0    0  0.71696678791E+02  0.88160383453E+02 -0.14124935707E+03  0.19738959315E+03  0.78093557043E+02 0.  0.
         -6    2    1    2    0  502 -0.41586167659E+02 -0.74664933492E+02  0.90405662365E+02  0.21201547919E+03  0.17167736599E+03 0.  0.
        -24    2    5    5    0    0 -0.11665384697E+02 -0.52939703751E+02  0.12784784688E+03  0.15918323485E+03  0.77817330168E+02 0.  0.
          5    1    3    3  501    0 -0.30110511132E+02 -0.13495449961E+02 -0.13755980902E+03  0.14153996294E+03  0.47000000000E+01 0. -1.
        -13    1    4    4    0    0  0.76758412966E+02  0.52129318012E+02 -0.12919108372E+03  0.15905865544E+03  0.00000000000E+00 0.  1.
         14    1    4    4    0    0 -0.50617341750E+01  0.36031065441E+02 -0.12058273349E+02  0.38330937711E+02  0.00000000000E+00 0. -1.
         -5    1    5    5    0  502 -0.29920782962E+02 -0.21725229741E+02 -0.37442184511E+02  0.52832244333E+02  0.47000000000E+01 0.  1.
         13    1    6    6    0    0  0.26529625160E+02 -0.37672850577E+02  0.98219621406E+02  0.10849036229E+03  0.00000000000E+00 0. -1.
        -14    1    6    6    0    0 -0.38195009857E+02 -0.15266853174E+02  0.29628225469E+02  0.50692872559E+02  0.00000000000E+00 0.  1.
</event>
<event>
12    1  0.8449700E-002  0.2037356E+03  0.7818608E-02  0.1146640E+00
         21   -1    0    0  503  502  0.00000000000E+00  0.00000000000E+00  0.42265383094E+03  0.42265383094E+03  0.00000000000E+00 0. -1.
         21   -1    0    0  501  503 -0.00000000000E+00 -0.00000000000E+00 -0.18241000296E+03  0.18241000296E+03  0.00000000000E+00 0.  1.
          6    2    1    2  501    0 -0.10308105565E+03 -0.36861193791E+02 -0.85476184623E+02  0.22087415718E+03  0.17174039575E+03 0.  0.
         24    2    3    3    0    0 -0.30932396013E+02 -0.79801874438E+02 -0.34881588586E+02  0.12273530509E+03  0.80759380920E+02 0.  0.
         -6    2    1    2    0  502  0.10308105565E+03  0.36861193791E+02  0.32572001260E+03  0.38418967671E+03  0.17182470557E+03 0.  0.
        -24    2    5    5    0    0 -0.19017217803E+01  0.89148641823E+01  0.69970075244E+02  0.10628231562E+03  0.79479732223E+02 0.  0.
          5    1    3    3  501    0 -0.72148659640E+02  0.42940680646E+02 -0.50594596037E+02  0.98138852094E+02  0.47000000000E+01 0. -1.
        -13    1    4    4    0    0 -0.46577032054E+02 -0.41848546667E+02 -0.48802679091E+02  0.79387796667E+02  0.00000000000E+00 0.  1.
         14    1    4    4    0    0  0.15644636041E+02 -0.37953327770E+02  0.13921090505E+02  0.43347508424E+02  0.00000000000E+00 0. -1.
         -5    1    5    5    0  502  0.10498277743E+03  0.27946329609E+02  0.25574993735E+03  0.27790736110E+03  0.47000000000E+01 0.  1.
         13    1    6    6    0    0  0.15763739595E+02  0.35314376437E+02  0.12544158950E+02  0.40656568878E+02  0.00000000000E+00 0. -1.
        -14    1    6    6    0    0 -0.17665461375E+02 -0.26399512255E+02  0.57425916294E+02  0.65625746740E+02  0.00000000000E+00 0.  1.
</event>
<event>
12    1  0.8449700E-002  0.1995853E+03  0.7818608E-02  0.1150192E+00
         21   -1    0    0  501  502  0.00000000000E+00  0.00000000000E+00  0.73905547248E+02  0.73905547248E+02  0.00000000000E+00 0. -1.
         21   -1    0    0  502  503 -0.00000000000E+00 -0.00000000000E+00 -0.58290647836E+03  0.58290647836E+03  0.00000000000E+00 0. -1.
         -6    2    1    2    0  503 -0.84652418248E+02 -0.54976625647E+02 -0.34626745120E+03  0.39966916124E+03  0.17217964281E+03 0.  0.
        -24    2    3    3    0    0 -0.10999413612E+03 -0.39384901985E+02 -0.17117741444E+03  0.22200679751E+03  0.79595417205E+02 0.  0.
          6    2    1    2  501    0  0.84652418248E+02  0.54976625647E+02 -0.16273347991E+03  0.25714286437E+03  0.17161528467E+03 0.  0.
         24    2    5    5    0    0  0.97697509649E+02 -0.13402454531E+02 -0.11764450427E+03  0.17407073463E+03  0.82072907166E+02 0.  0.
          5    1    5    5  501    0 -0.13045091401E+02  0.68379080179E+02 -0.45088975636E+02  0.83072129740E+02  0.47000000000E+01 0. -1.
        -11    1    6    6    0    0  0.72260343354E+02 -0.30024959799E+02 -0.12036265443E+03  0.14356261357E+03  0.00000000000E+00 0.  1.
         12    1    6    6    0    0  0.25437166295E+02  0.16622505268E+02  0.27181501600E+01  0.30508121063E+02  0.00000000000E+00 0. -1.
         -5    1    3    3    0  503  0.25341717873E+02 -0.15591723662E+02 -0.17509003676E+03  0.17766236373E+03  0.47000000000E+01 0.  1.
         13    1    4    4    0    0 -0.19795873079E+02 -0.45949456286E+02 -0.73268438351E+02  0.88721435867E+02  0.00000000000E+00 0. -1.
        -14    1    4    4    0    0 -0.90198263043E+02  0.65645543006E+01 -0.97908976091E+02  0.13328536164E+03  0.00000000000E+00 0.  1.
</event>
<event>
12    1  0.8449700E-002  0.1939573E+03  0.7818608E-02  0.1155274E+00
         21   -1    0    0  503  502  0.00000000000E+00  0.00000000000E+00  0.48542303089E+03  0.48542303089E+03  0.00000000000E+00 0.  1.
         21   -1    0    0  501  503 -0.00000000000E+00 -0.00000000000E+00 -0.78120882371E+02  0.78120882371E+02  0.00000000000E+00 0. -1.
          6    2    1    2  501    0 -0.85599646355E+02  0.10596495759E+01  0.23974478229E+03  0.30837802568E+03  0.17404316640E+03 0.  0.
         24    2    3    3    0    0 -0.20903730102E+02 -0.59105817612E+02  0.95983083318E+02  0.13957352007E+03  0.79608740807E+02 0.  0.
         -6    2    1    2    0  502  0.85599646355E+02 -0.10596495759E+01  0.16755736623E+03  0.25516588759E+03  0.17235352302E+03 0.  0.
        -24    2    5    5    0    0  0.78624306453E+02  0.61335971165E+02  0.97095269430E+02  0.16067321094E+03  0.80277683355E+02 0.  0.
          5    1    3    3  501    0 -0.64695916252E+02  0.60165467188E+02  0.14376169898E+03  0.16880450561E+03  0.47000000000E+01 0. -1.
        -11    1    4    4    0    0 -0.20668604180E+02 -0.10433345511E+02  0.87064206013E+02  0.90090076402E+02  0.00000000000E+00 0.  1.
         12    1    4    4    0    0 -0.23512592214E+00 -0.48672472100E+02  0.89188773044E+01  0.49483443665E+02  0.00000000000E+00 0. -1.
         -5    1    5    5    0  502  0.69753399018E+01 -0.62395620741E+02  0.70462096796E+02  0.94492676644E+02  0.47000000000E+01 0.  1.
         13    1    6    6    0    0  0.52584101406E+02 -0.63746792728E+01  0.56890690554E+02  0.77732071427E+02  0.00000000000E+00 0. -1.
        -14    1    6    6    0    0  0.26040205047E+02  0.67710650438E+02  0.40204578876E+02  0.82941139516E+02  0.00000000000E+00 0.  1.
</event>
<event>
12    1  0.8449700E-002  0.2091431E+03  0.7818608E-02  0.1143289E+00
         21   -1    0    0  503  502  0.00000000000E+00  0.00000000000E+00  0.92944443305E+02  0.92944443305E+02  0.00000000000E+00 0.  1.
         21   -1    0    0  501  503 -0.00000000000E+00 -0.00000000000E+00 -0.49171884044E+03  0.49171884044E+03  0.00000000000E+00 0.  1.
          6    2    1    2  501    0  0.10253486343E+03  0.58704566863E+02 -0.27706380512E+03  0.34713857001E+03  0.17257233351E+03 0.  0.
         24    2    3    3    0    0  0.23260173740E+02  0.40698855856E+02 -0.24258721317E+03  0.25871115658E+03  0.76716842960E+02 0.  0.
         -6    2    1    2    0  502 -0.10253486343E+03 -0.58704566863E+02 -0.12171059201E+03  0.23752471373E+03  0.16626754654E+03 0.  0.
        -24    2    5    5    0    0 -0.13328650961E+01  0.45776039525E+01 -0.27190511943E+02  0.85200673778E+02  0.80604589728E+02 0.  0.
          5    1    3    3  501    0  0.79274689692E+02  0.18005711007E+02 -0.34476591952E+02  0.88427413438E+02  0.47000000000E+01 0. -1.
        -13    1    4    4    0    0  0.33357183949E+02 -0.12597078628E+02 -0.94950998166E+02  0.10142524421E+03  0.00000000000E+00 0.  1.
         14    1    4    4    0    0 -0.10097010209E+02  0.53295934484E+02 -0.14763621500E+03  0.15728591236E+03  0.00000000000E+00 0. -1.
         -5    1    5    5    0  502 -0.10120199834E+03 -0.63282170815E+02 -0.94520080067E+02  0.15232403995E+03  0.47000000000E+01 0.  1.
         13    1    6    6    0    0  0.92725617171E+01 -0.30788850009E+02  0.91120264426E+01  0.33420992079E+02  0.00000000000E+00 0. -1.
        -14    1    6    6    0    0 -0.10605426813E+02  0.35366453961E+02 -0.36302538385E+02  0.51779681699E+02  0.00000000000E+00 0.  1.
</event>
<event>
12    1  0.8449700E-002  0.2229094E+03  0.7818608E-02  0.1131831E+00
         21   -1    0    0  501  502  0.00000000000E+00  0.00000000000E+00  0.20316106658E+03  0.20316106658E+03  0.00000000000E+00 0.  1.
         21   -1    0    0  502  503 -0.00000000000E+00 -0.00000000000E+00 -0.28621244311E+03  0.28621244311E+03  0.00000000000E+00 0.  1.
         -6    2    1    2    0  503 -0.22532924505E+02 -0.13941010470E+03  0.52503016294E+02  0.22848349298E+03  0.17177086442E+03 0.  0.
        -24    2    3    3    0    0  0.44671294674E+02 -0.97032908085E+02  0.14307588725E+01  0.13391764636E+03  0.80752579627E+02 0.  0.
          6    2    1    2  501    0  0.22532924505E+02  0.13941010470E+03 -0.13555439282E+03  0.26089001670E+03  0.17246941010E+03 0.  0.
         24    2    5    5    0    0  0.68115333708E+02  0.99397799432E+02 -0.43432948909E+02  0.15049440524E+03  0.79009643327E+02 0.  0.
          5    1    5    5  501    0 -0.45582409203E+02  0.40012305273E+02 -0.92121443915E+02  0.11039561147E+03  0.47000000000E+01 0. -1.
        -13    1    6    6    0    0  0.67315371728E+02  0.81420583449E+02 -0.23802062517E+01  0.10567088559E+03  0.00000000000E+00 0.  1.
         14    1    6    6    0    0  0.79996197984E+00  0.17977215983E+02 -0.41052742658E+02  0.44823519645E+02  0.00000000000E+00 0. -1.
         -5    1    3    3    0  503 -0.67204219179E+02 -0.42377196620E+02  0.51072257422E+02  0.94565846620E+02  0.47000000000E+01 0.  1.
         11    1    4    4    0    0  0.10382090592E+02  0.13583590083E+02  0.57221972097E+01  0.18029011773E+02  0.00000000000E+00 0. -1.
        -12    1    4    4    0    0  0.34289204082E+02 -0.11061649817E+03 -0.42914383371E+01  0.11588863459E+03  0.00000000000E+00 0.  1.
</event>
<event>
12    1  0.8449700E-002  0.1857208E+03  0.7818608E-02  0.1163300E+00
         21   -1    0    0  501  502  0.00000000000E+00  0.00000000000E+00  0.73058917177E+03  0.73058917177E+03  0.00000000000E+00 0. -1.
         21   -1    0    0  502  503 -0.00000000000E+00 -0.00000000000E+00 -0.46611480980E+02  0.46611480980E+02  0.00000000000E+00 0. -1.
         -6    2    1    2    0  503 -0.54209748370E+02  0.26108605096E+02  0.31000557319E+03  0.36138024873E+03  0.17570393474E+03 0.  0.
        -24    2    3    3    0    0 -0.43476133987E+02  0.80920876490E+02  0.25576818890E+03  0.28338422686E+03  0.80317439571E+02 0.  0.
          6    2    1    2  501    0  0.54209748370E+02 -0.26108605096E+02  0.37397211760E+03  0.41582040402E+03  0.17155496956E+03 0.  0.
         24    2    5    5    0    0  0.31095793174E+01 -0.25205532979E+02  0.34864489880E+03  0.35858753909E+03  0.79917265673E+02 0.  0.
          5    1    5    5  501    0  0.51100169053E+02 -0.90307211713E+00  0.25327218797E+02  0.57232864933E+02  0.47000000000E+01 0. -1.
        -11    1    6    6    0    0 -0.70557834821E+01  0.20028475562E+02  0.23343844762E+03  0.23440228826E+03  0.00000000000E+00 0.  1.
         12    1    6    6    0    0  0.10165362799E+02 -0.45234008541E+02  0.11520645118E+03  0.12418525082E+03  0.00000000000E+00 0. -1.
         -5    1    3    3    0  503 -0.10733614384E+02 -0.54812271394E+02  0.54237384290E+02  0.77996021871E+02  0.47000000000E+01 0.  1.
         11    1    4    4    0    0 -0.32551932266E+02 -0.65753057506E+01  0.57672169431E+02  0.66550297271E+02  0.00000000000E+00 0. -1.
        -12    1    4    4    0    0 -0.10924201721E+02  0.87496182240E+02  0.19809601947E+03  0.21683392959E+03  0.00000000000E+00 0.  1.
</event>
<event>
12    1  0.8449700E-002  0.2065813E+03  0.7818608E-02  0.1144381E+00
         21   -1    0    0  503  502  0.00000000000E+00  0.00000000000E+00  0.75237988522E+03  0.75237988522E+03  0.00000000000E+00 0.  1.
         21   -1    0    0  501  503 -0.00000000000E+00 -0.00000000000E+00 -0.14345765616E+03  0.14345765616E+03  0.00000000000E+00 0.  1.
          6    2    1    2  501    0  0.56959850288E+02 -0.10038261916E+03 -0.43928456352E+02  0.21120022214E+03  0.17133222050E+03 0.  0.
         24    2    3    3    0    0  0.64924842851E+02 -0.12235337277E+03  0.28977095050E+01  0.15865562271E+03  0.77315113985E+02 0.  0.
         -6    2    1    2    0  502 -0.56959850288E+02  0.10038261916E+03  0.65285068542E+03  0.68463731924E+03  0.17086002069E+03 0.  0.
        -24    2    5    5    0    0  0.23342793600E+02  0.74783561642E+02  0.37477429993E+03  0.39403038105E+03  0.93095102947E+02 0.  0.
          5    1    3    3  501    0 -0.79649925623E+01  0.21970753604E+02 -0.46826165857E+02  0.52544599431E+02  0.47000000000E+01 0. -1.
        -11    1    4    4    0    0  0.38691629785E+02 -0.27582780597E+02  0.30570841174E+02  0.56501578128E+02  0.00000000000E+00 0.  1.
         12    1    4    4    0    0  0.26233213065E+02 -0.94770592172E+02 -0.27673131669E+02  0.10215404458E+03  0.00000000000E+00 0. -1.
         -5    1    5    5    0  502 -0.80302643889E+02  0.25599057523E+02  0.27807638548E+03  0.29060693819E+03  0.47000000000E+01 0.  1.
         11    1    6    6    0    0  0.21809509543E+02  0.90952405103E+01  0.26530793865E+03  0.26635818068E+03  0.00000000000E+00 0. -1.
        -12    1    6    6    0    0  0.15332840577E+01  0.65688321132E+02  0.10946636129E+03  0.12767220037E+03  0.00000000000E+00 0.  1.
</event>
<event>
12    1  0.8449700E-002  0.2033556E+03  0.7818608E-02  0.1147445E+00
         21   -1    0    0  503  502  0.00000000000E+00  0.00000000000E+00  0.41722250135E+03  0.41722250135E+03  0.00000000000E+00 0. -1.
         21   -1    0    0  501  503 -0.00000000000E+00 -0.00000000000E+00 -0.17307018512E+03  0.17307018512E+03  0.00000000000E+00 0. -1.
          6    2    1    2  501    0 -0.62269324032E+02 -0.84984739821E+02 -0.72811493304E+02  0.21370330069E+03  0.17107808875E+03 0.  0.
         24    2    3    3    0    0  0.30167709592E+02 -0.55366286887E+02 -0.56763064784E+02  0.11520710788E+03  0.77943028923E+02 0.  0.
         -6    2    1    2    0  502  0.62269324032E+02  0.84984739821E+02  0.31696380953E+03  0.37658938579E+03  0.17393571863E+03 0.  0.
        -24    2    5    5    0    0  0.80935579032E-01  0.21913907238E+02  0.25371251952E+03  0.26764838676E+03  0.82373481723E+02 0.  0.
          5    1    3    3  501    0 -0.92437033624E+02 -0.29618452934E+02 -0.16048428520E+02  0.98496192806E+02  0.47000000000E+01 0. -1.
        -13    1    4    4    0    0 -0.23794783505E+02 -0.29592783580E+02 -0.99302519760E+01  0.39249642882E+02  0.00000000000E+00 0.  1.
         14    1    4    4    0    0  0.53962493097E+02 -0.25773503306E+02 -0.46832812808E+02  0.75957465001E+02  0.00000000000E+00 0. -1.
         -5    1    5    5    0  502  0.62188388453E+02  0.63070832582E+02  0.63251290010E+02  0.10894099903E+03  0.47000000000E+01 0.  1.
         11    1    6    6    0    0  0.30929435181E+02 -0.16961285237E+02  0.93878468379E+02  0.10028699807E+03  0.00000000000E+00 0. -1.
        -12    1    6    6    0    0 -0.30848499602E+02  0.38875192475E+02  0.15983405114E+03  0.16736138869E+03  0.00000000000E+00 0.  1.
</event>
<event>
12    1  0.8449700E-002  0.1830036E+03  0.7818608E-02  0.1165748E+00
         21   -1    0    0  503  502  0.00000000000E+00  0.00000000000E+00  0.38689662127E+03  0.38689662127E+03  0.00000000000E+00 0. -1.
         21   -1    0    0  501  503 -0.00000000000E+00 -0.00000000000E+00 -0.10395730085E+03  0.10395730085E+03  0.00000000000E+00 0. -1.
          6    2    1    2  501    0 -0.12773180829E+02 -0.51543103544E+02  0.24532457497E+03  0.30402458108E+03  0.17154286095E+03 0.  0.
         24    2    3    3    0    0  0.11790452058E+02 -0.95933996635E+02  0.14628895119E+03  0.19265102844E+03  0.79822396911E+02 0.  0.
         -6    2    1    2    0  502  0.12773180829E+02  0.51543103544E+02  0.37614745459E+02  0.18682934104E+03  0.17512991728E+03 0.  0.
        -24    2    5    5    0    0  0.10871471776E+02  0.10314323210E+03  0.39544234520E+02  0.13494482801E+03  0.76744021903E+02 0.  0.
          5    1    3    3  501    0 -0.24563632887E+02  0.44390893091E+02  0.99035623778E+02  0.11137355264E+03  0.47000000000E+01 0. -1.
        -13    1    4    4    0    0  0.21686086405E+02 -0.39987554550E+01  0.31961014004E+01  0.22282088164E+02  0.00000000000E+00 0.  1.
         14    1    4    4    0    0 -0.98956343477E+01 -0.91935241180E+02  0.14309284979E+03  0.17036894027E+03  0.00000000000E+00 0. -1.
         -5    1    5    5    0  502  0.19017090524E+01 -0.51600128554E+02 -0.19294890610E+01  0.51884513028E+02  0.47000000000E+01 0.  1.
         13    1    6    6    0    0  0.28112621108E+02  0.38942115682E+02  0.48036477091E+02  0.67928719778E+02  0.00000000000E+00 0. -1.
        -14    1    6    6    0    0 -0.17241149331E+02  0.64201116416E+02 -0.84922425709E+01  0.67016108236E+02  0.00000000000E+00 0.  1.
</event>
<event>
12    1  0.8449700E-002  0.2054228E+03  0.7818608E-02  0.1145582E+00
         21   -1    0    0  501  502  0.00000000000E+00  0.00000000000E+00  0.15410100590E+03  0.15410100590E+03  0.00000000000E+00 0.  1.
         21   -1    0    0  502  503 -0.00000000000E+00 -0.00000000000E+00 -0.31107292057E+03  0.31107292057E+03  0.00000000000E+00 0.  1.
         -6    2    1    2    0  503 -0.11288475887E-01  0.11256149353E+03  0.40544188884E+01  0.20546277711E+03  0.17183836740E+03 0.  0.
        -24    2    3    3    0    0  0.33656360949E+02  0.56680974404E+01 -0.21332435411E+02  0.90457163694E+02  0.81009553153E+02 0.  0.
          6    2    1    2  501    0  0.11288475886E-01 -0.11256149353E+03 -0.16102633356E+03  0.25971114936E+03  0.16985379316E+03 0.  0.
         24    2    5    5    0    0 -0.15421090577E+02  0.62395213383E+01 -0.46183527242E+02  0.93690669842E+02  0.79801514808E+02 0.  0.
          5    1    5    5  501    0  0.15432379053E+02 -0.11880101487E+03 -0.11484280631E+03  0.16602047952E+03  0.47000000000E+01 0. -1.
        -11    1    6    6    0    0  0.18441154348E+02 -0.18265956015E+01 -0.54784746786E+02  0.57834082560E+02  0.00000000000E+00 0.  1.
         12    1    6    6    0    0 -0.33862244925E+02  0.80661169398E+01  0.86012195430E+01  0.35856587282E+02  0.00000000000E+00 0. -1.
         -5    1    3    3    0  503 -0.33667649425E+02  0.10689339609E+03  0.25386854300E+02  0.11500561341E+03  0.47000000000E+01 0.  1.
         11    1    4    4    0    0  0.57471954831E+02  0.19079151405E+02 -0.13856961094E+02  0.62121292495E+02  0.00000000000E+00 0. -1.
        -12    1    4    4    0    0 -0.23815593882E+02 -0.13411053965E+02 -0.74754743168E+01  0.28335871200E+02  0.00000000000E+00 0.  1.
</event>
<event>
12    1  0.8449700E-002  0.1802068E+03  0.7818608E-02  0.1168357E+00
         21   -1    0    0  503  502  0.00000000000E+00  0.00000000000E+00  0.35445514723E+03  0.35445514723E+03  0.00000000000E+00 0.  1.
         21   -1    0    0  501  503 -0.00000000000E+00 -0.00000000000E+00 -0.12936095370E+03  0.12936095370E+03  0.00000000000E+00 0.  1.
          6    2    1    2  501    0 -0.19704869471E+02  0.32193776144E+02 -0.21474843034E+02  0.17841343831E+03  0.17304758012E+03 0.  0.
         24    2    3    3    0    0 -0.59114993458E+02  0.61274823039E+02  0.13748214865E+02  0.11790212558E+03  0.80390990877E+02 0.  0.
         -6    2    1    2    0  502  0.19704869471E+02 -0.32193776144E+02  0.24656903657E+03  0.30540266261E+03  0.17620946466E+03 0.  0.
        -24    2    5    5    0    0  0.34997343631E+02  0.41744075698E+02  0.18174986131E+03  0.20578197609E+03  0.79660703508E+02 0.  0.
          5    1    3    3  501    0  0.39410123987E+02 -0.29081046895E+02 -0.35223057899E+02  0.60511312735E+02  0.47000000000E+01 0. -1.
        -13    1    4    4    0    0 -0.27946003360E+02  0.31735201720E+02  0.47270693324E+02  0.63424132468E+02  0.00000000000E+00 0.  1.
         14    1    4    4    0    0 -0.31168990098E+02  0.29539621319E+02 -0.33522478459E+02  0.54477993111E+02  0.00000000000E+00 0. -1.
         -5    1    5    5    0  502 -0.15292474160E+02 -0.73937851842E+02  0.64819175260E+02  0.99620686518E+02  0.47000000000E+01 0.  1.
         11    1    6    6    0    0  0.37761598758E+02  0.50047536183E+02  0.71130150798E+02  0.94816626028E+02  0.00000000000E+00 0. -1.
        -12    1    6    6    0    0 -0.27642551278E+01 -0.83034604849E+01  0.11061971051E+03  0.11096535007E+03  0.00000000000E+00 0.  1.
</event>
<event>
12    1  0.8449700E-002  0.4527168E+03  0.7818608E-02  0.1026932E+00
         21   -1    0    0  501  502  0.00000000000E+00  0.00000000000E+00  0.78711113118E+03  0.78711113118E+03  0.00000000000E+00 0.  1.
         21   -1    0    0  502  503 -0.00000000000E+00 -0.00000000000E+00 -0.26025688161E+03  0.26025688161E+03  0.00000000000E+00 0. -1.
         -6    2    1    2    0  503 -0.37062089243E+03  0.19405295056E+03  0.26306984079E+03  0.52360123933E+03  0.17302058596E+03 0.  0.
        -24    2    3    3    0    0 -0.72276724389E+02  0.76575849485E+02  0.74339486339E+02  0.15151072806E+03  0.79632630728E+02 0.  0.
          6    2    1    2  501    0  0.37062089243E+03 -0.19405295056E+03  0.26378440877E+03  0.52376677346E+03  0.17243266842E+03 0.  0.
         24    2    5    5    0    0  0.37205788422E+03 -0.16942093333E+03  0.27170765446E+03  0.49742917599E+03  0.80499774996E+02 0.  0.
          5    1    5    5  501    0 -0.14369917862E+01 -0.24632017227E+02 -0.79232456884E+01  0.26337597466E+02  0.47000000000E+01 0. -1.
        -11    1    6    6    0    0  0.11045973949E+03 -0.84801721357E+02  0.66333980861E+02  0.15424941819E+03  0.00000000000E+00 0.  1.
         12    1    6    6    0    0  0.26159814473E+03 -0.84619211975E+02  0.20537367360E+03  0.34317975780E+03  0.00000000000E+00 0. -1.
         -5    1    3    3    0  503 -0.29834416804E+03  0.11747710107E+03  0.18873035446E+03  0.37209051127E+03  0.47000000000E+01 0.  1.
         13    1    4    4    0    0 -0.46453641089E+02 -0.39405461083E+01  0.34743977273E+02  0.58143035961E+02  0.00000000000E+00 0. -1.
        -14    1    4    4    0    0 -0.25823083300E+02  0.80516395593E+02  0.39595509066E+02  0.93367692103E+02  0.00000000000E+00 0.  1.
</event>
<event>
12    1  0.8449700E-002  0.2234918E+03  0.7818608E-02  0.1131593E+00
         21   -1    0    0  501  502  0.00000000000E+00  0.00000000000E+00  0.10906354662E+03  0.10906354662E+03  0.00000000000E+00 0. -1.
         21   -1    0    0  502  503 -0.00000000000E+00 -0.00000000000E+00 -0.45926456552E+03  0.45926456552E+03  0.00000000000E+00 0. -1.
         -6    2    1    2    0  503 -0.52835492344E+02  0.13177907671E+03 -0.14641621503E+03  0.26587674793E+03  0.17057380443E+03 0.  0.
        -24    2    3    3    0    0 -0.58855158267E+02  0.15211083873E+03 -0.15863146046E+03  0.24095849869E+03  0.79343688656E+02 0.  0.
          6    2    1    2  501    0  0.52835492344E+02 -0.13177907671E+03 -0.20378480387E+03  0.30245136421E+03  0.17260146904E+03 0.  0.
         24    2    5    5    0    0 -0.27199764635E+02 -0.33047104980E+02 -0.12173527478E+03  0.15109793734E+03  0.78607704451E+02 0.  0.
          5    1    5    5  501    0  0.80035256979E+02 -0.98731971733E+02 -0.82049529096E+02  0.15135342688E+03  0.47000000000E+01 0. -1.
        -11    1    6    6    0    0 -0.15864582720E+02 -0.21448683945E+02 -0.13012994837E+03  0.13283649533E+03  0.00000000000E+00 0.  1.
         12    1    6    6    0    0 -0.11335181915E+02 -0.11598421035E+02  0.83946735939E+01  0.18261442010E+02  0.00000000000E+00 0. -1.
         -5    1    3    3    0  503  0.60196659230E+01 -0.20331762015E+02  0.12215245433E+02  0.24918249245E+02  0.47000000000E+01 0.  1.
         11    1    4    4    0    0 -0.16251314232E+02  0.19803301110E+02 -0.73797582642E+02  0.78117598228E+02  0.00000000000E+00 0. -1.
        -12    1    4    4    0    0 -0.42603844035E+02  0.13230753762E+03 -0.84833877816E+02  0.16284090046E+03  0.00000000000E+00 0.  1.
</event>
<event>
12    1  0.8449700E-002  0.1747589E+03  0.7818608E-02  0.1173461E+00
         21   -1    0    0  503  502  0.00000000000E+00  0.00000000000E+00  0.10786170404E+03  0.10786170404E+03  0.00000000000E+00 0.  1.
         21   -1    0    0  501  503 -0.00000000000E+00 -0.00000000000E+00 -0.33754814972E+03  0.33754814972E+03  0.00000000000E+00 0.  1.
          6    2    1    2  501    0 -0.16012663223E+01  0.13510201297E+01 -0.20729489773E+03  0.27113067122E+03  0.17474632169E+03 0.  0.
         24    2    3    3    0    0 -0.24731103347E+02 -0.63975548953E+02 -0.12681733806E+03  0.16482320394E+03  0.79872103944E+02 0.  0.
         -6    2    1    2    0  502  0.16012663223E+01 -0.13510201297E+01 -0.22391547962E+02  0.17427918254E+03  0.17282205513E+03 0.  0.
        -24    2    5    5    0    0 -0.21097798502E+02 -0.51717028400E+02  0.27102324740E+02  0.99957477985E+02  0.78340240430E+02 0.  0.
          5    1    3    3  501    0  0.23129837025E+02  0.65326569083E+02 -0.80477559666E+02  0.10630746728E+03  0.47000000000E+01 0. -1.
        -11    1    4    4    0    0 -0.14090915999E+02 -0.63141163320E+02 -0.13609018353E+03  0.15068476523E+03  0.00000000000E+00 0.  1.
         12    1    4    4    0    0 -0.10640187348E+02 -0.83438563307E+00  0.92728454682E+01  0.14138438714E+02  0.00000000000E+00 0. -1.
         -5    1    5    5    0  502  0.22699064825E+02  0.50366008271E+02 -0.49493872702E+02  0.74321704556E+02  0.47000000000E+01 0.  1.
         13    1    6    6    0    0  0.29284354899E+02 -0.22840424992E+02  0.17662261843E+02  0.41124371716E+02  0.00000000000E+00 0. -1.
        -14    1    6    6    0    0 -0.50382153401E+02 -0.28876603409E+02  0.94400628967E+01  0.58833106269E+02  0.00000000000E+00 0.  1.
</event>
<event>
12    1  0.8449700E-002  0.1933617E+03  0.7818608E-02  0.1155539E+00
         21   -1    0    0  503  502  0.00000000000E+00  0.00000000000E+00  0.38524561180E+03  0.38524561180E+03  0.00000000000E+00 0.  1.
         21   -1    0    0  501  503 -0.00000000000E+00 -0.00000000000E+00 -0.27265546457E+03  0.27265546457E+03  0.00000000000E+00 0.  1.
          6    2    1    2  501    0 -0.64955932939E+02 -0.57987461547E+02 -0.20780749771E+03  0.28385331046E+03  0.17264682689E+03 0.  0.
         24    2    3    3    0    0 -0.56183336067E+02 -0.10250084945E+03 -0.18508269315E+03  0.23289345469E+03  0.79503248635E+02 0.  0.
         -6    2    1    2    0  502  0.64955932939E+02  0.57987461547E+02  0.32039764494E+03  0.37404776590E+03  0.17226509042E+03 0.  0.
        -24    2    5    5    0    0  0.45887480463E+02 -0.35744073959E+01  0.28686326264E+03  0.30124588143E+03  0.79624822590E+02 0.  0.
          5    1    3    3  501    0 -0.87725968723E+01  0.44513387900E+02 -0.22724804550E+02  0.50959855770E+02  0.47000000000E+01 0. -1.
        -11    1    4    4    0    0 -0.11516934077E+02 -0.95308285822E+02 -0.13022863089E+03  0.16178938599E+03  0.00000000000E+00 0.  1.
         12    1    4    4    0    0 -0.44666401990E+02 -0.71925636243E+01 -0.54854062264E+02  0.71104068696E+02  0.00000000000E+00 0. -1.
         -5    1    5    5    0  502  0.19068452476E+02  0.61561868942E+02  0.33534382298E+02  0.72801884479E+02  0.47000000000E+01 0.  1.
         11    1    6    6    0    0 -0.79052869243E+01  0.17875846783E+02  0.19233208918E+02  0.27421812209E+02  0.00000000000E+00 0. -1.
        -12    1    6    6    0    0  0.53792767387E+02 -0.21450254179E+02  0.26763005372E+03  0.27382406922E+03  0.00000000000E+00 0.  1.
</event>
<event>
12    1  0.8449700E-002  0.2062054E+03  0.7818608E-02  0.1144915E+00
         21   -1    0    0  501  502  0.00000000000E+00  0.00000000000E+00  0.49007578816E+03  0.49007578816E+03  0.00000000000E+00 0. -1.
         21   -1    0    0  502  503 -0.00000000000E+00 -0.00000000000E+00 -0.16446728403E+03  0.16446728403E+03  0.00000000000E+00 0. -1.
         -6    2    1    2    0  503  0.52036425507E+02 -0.96333652804E+02 -0.63379460808E+02  0.21427917022E+03  0.17294694127E+03 0.  0.
        -24    2    3    3    0    0  0.85337902586E+02 -0.18988771505E+02 -0.44928113350E+02  0.12794400205E+03  0.81902388433E+02 0.  0.
          6    2    1    2  501    0 -0.52036425507E+02  0.96333652804E+02  0.38898796494E+03  0.44026390198E+03  0.17473609894E+03 0.  0.
         24    2    5    5    0    0 -0.55673330020E+02 -0.53021991123E+01  0.13140630261E+03  0.16329192463E+03  0.79177037648E+02 0.  0.
          5    1    5    5  501    0  0.36369045133E+01  0.10163585192E+03  0.25758166233E+03  0.27697197735E+03  0.47000000000E+01 0. -1.
        -11    1    6    6    0    0  0.83715294939E+00 -0.58040545518E+01  0.96900126374E+02  0.97077403991E+02  0.00000000000E+00 0.  1.
         12    1    6    6    0    0 -0.56510482970E+02  0.50185543951E+00  0.34506176240E+02  0.66214520636E+02  0.00000000000E+00 0. -1.
         -5    1    3    3    0  503 -0.33301477079E+02 -0.77344881299E+02 -0.18451347457E+02  0.86335168163E+02  0.47000000000E+01 0.  1.
         13    1    4    4    0    0  0.98942704024E+01 -0.34901145095E+02  0.42003467253E+01  0.36518891390E+02  0.00000000000E+00 0. -1.
        -14    1    4    4    0    0  0.75443632184E+02  0.15912373590E+02 -0.49128460076E+02  0.91425110663E+02  0.00000000000E+00 0.  1.
</event>
<event>
12    1  0.8449700E-002  0.1749895E+03  0.7818608E-02  0.1172894E+00
         21   -1    0    0  503  502  0.00000000000E+00  0.00000000000E+00  0.68721860986E+02  0.68721860986E+02  0.00000000000E+00 0. -1.
         21   -1    0    0  501  503 -0.00000000000E+00 -0.00000000000E+00 -0.45899807419E+03  0.45899807419E+03  0.00000000000E+00 0. -1.
          6    2    1    2  501    0 -0.22616779078E+02 -0.10852060821E+02 -0.14718661485E+03  0.22819716155E+03  0.17257102605E+03 0.  0.
         24    2    3    3    0    0 -0.77542070370E+01  0.17073949006E+02 -0.17000011690E+03  0.18891225417E+03  0.80225635358E+02 0.  0.
         -6    2    1    2    0  502  0.22616779078E+02  0.10852060821E+02 -0.24308959836E+03  0.29952277362E+03  0.17318213871E+03 0.  0.
        -24    2    5    5    0    0  0.27932762124E+02  0.70733555822E+02 -0.16826951760E+03  0.20342809321E+03  0.85351528601E+02 0.  0.
          5    1    3    3  501    0 -0.14862572041E+02 -0.27926009826E+02  0.22813502050E+02  0.39284907385E+02  0.47000000000E+01 0. -1.
        -13    1    4    4    0    0  0.87664407788E+01  0.33898000954E+01  0.62978818321E+01  0.11313909324E+02  0.00000000000E+00 0.  1.
         14    1    4    4    0    0 -0.16520647816E+02  0.13684148910E+02 -0.17629799873E+03  0.17759834485E+03  0.00000000000E+00 0. -1.
         -5    1    5    5    0  502 -0.53159830458E+01 -0.59881495001E+02 -0.74820080755E+02  0.96094680412E+02  0.47000000000E+01 0.  1.
         11    1    6    6    0    0  0.58158164178E+02  0.40455034784E+02 -0.93850797366E+02  0.11758806940E+03  0.00000000000E+00 0. -1.
        -12    1    6    6    0    0 -0.30225402055E+02  0.30278521037E+02 -0.74418720237E+02  0.85840023807E+02  0.00000000000E+00 0.  1.
</event>
<event>
12    1  0.8449700E-002  0.1808777E+03  0.7818608E-02  0.1167409E+00
         21   -1    0    0  501  502  0.00000000000E+00  0.00000000000E+00  0.60266412249E+03  0.60266412249E+03  0.00000000000E+00 0.  1.
         21   -1    0    0  502  503 -0.00000000000E+00 -0.00000000000E+00 -0.61811957700E+02  0.61811957700E+02  0.00000000000E+00 0.  1.
         -6    2    1    2    0  503  0.46237016444E+02  0.34550005680E+02  0.15148909067E+03  0.23593576679E+03  0.17142105145E+03 0.  0.
        -24    2    3    3    0    0  0.76164252949E+02  0.49357329623E+02  0.16393570128E+03  0.19999269454E+03  0.69892948860E+02 0.  0.
          6    2    1    2  501    0 -0.46237016444E+02 -0.34550005680E+02  0.38936307412E+03  0.42854031339E+03  0.16944507114E+03 0.  0.
         24    2    5    5    0    0 -0.12847931856E+02 -0.85137928180E+02  0.27142561350E+03  0.29585533501E+03  0.80280629164E+02 0.  0.
          5    1    5    5  501    0 -0.33389084588E+02  0.50587922500E+02  0.11793746062E+03  0.13268497839E+03  0.47000000000E+01 0. -1.
        -13    1    6    6    0    0  0.10685795977E+02 -0.30837537340E+02  0.20204100459E+03  0.20465998016E+03  0.00000000000E+00 0.  1.
         14    1    6    6    0    0 -0.23533727833E+02 -0.54300390840E+02  0.69384608914E+02  0.91195354845E+02  0.00000000000E+00 0. -1.
         -5    1    3    3    0  503 -0.29927236505E+02 -0.14807323943E+02 -0.12446610614E+02  0.35943072253E+02  0.47000000000E+01 0.  1.
         11    1    4    4    0    0  0.76780387026E+02  0.14192430704E+02  0.98392205111E+02  0.12560923114E+03  0.00000000000E+00 0. -1.
        -12    1    4    4    0    0 -0.61613407726E+00  0.35164898919E+02  0.65543496170E+02  0.74383463400E+02  0.00000000000E+00 0.  1.
</event>
<event>
12    1  0.8449700E-002  0.1780226E+03  0.7818608E-02  0.1170139E+00
         21   -1    0    0  503  502  0.00000000000E+00  0.00000000000E+00  0.15136359940E+03  0.15136359940E+03  0.00000000000E+00 0. -1.
         21   -1    0    0  501  503 -0.00000000000E+00 -0.00000000000E+00 -0.27090935683E+03  0.27090935683E+03  0.00000000000E+00 0. -1.
          6    2    1    2  501    0 -0.79367729074E+01  0.38565844121E+02 -0.16176001795E+03  0.23931370105E+03  0.17191401166E+03 0.  0.
         24    2    3    3    0    0  0.53505925610E+02  0.23001938912E+02 -0.14229363518E+03  0.17284212514E+03  0.78961689066E+02 0.  0.
         -6    2    1    2    0  502  0.79367729074E+01 -0.38565844121E+02  0.42214260526E+02  0.18295925518E+03  0.17361373381E+03 0.  0.
        -24    2    5    5    0    0  0.77133710882E+02 -0.32260234468E+02  0.33108029805E+01  0.10318741838E+03  0.60385013142E+02 0.  0.
          5    1    3    3  501    0 -0.61442698517E+02  0.15563905208E+02 -0.19466382773E+02  0.66471575915E+02  0.47000000000E+01 0. -1.
        -11    1    4    4    0    0  0.67818568010E+02  0.70831672508E+01 -0.71154773167E+02  0.98552174860E+02  0.00000000000E+00 0.  1.
         12    1    4    4    0    0 -0.14312642400E+02  0.15918771662E+02 -0.71138862014E+02  0.74289950278E+02  0.00000000000E+00 0. -1.
         -5    1    5    5    0  502 -0.69196937975E+02 -0.63056096530E+01  0.38903457545E+02  0.79771836805E+02  0.47000000000E+01 0.  1.
         13    1    6    6    0    0  0.20739836655E+02 -0.28145057660E+02  0.24621519300E+02  0.42761013877E+02  0.00000000000E+00 0. -1.
        -14    1    6    6    0    0  0.56393874227E+02 -0.41151768077E+01 -0.21310716320E+02  0.60426404498E+02  0.00000000000E+00 0.  1.
</event>
<event>
12    1  0.8449700E-002  0.2227074E+03  0.7818608E-02  0.1131952E+00
         21   -1    0    0  501  502  0.00000000000E+00  0.00000000000E+00  0.27634875880E+02  0.27634875880E+02  0.00000000000E+00 0. -1.
         21   -1    0    0  502  503 -0.00000000000E+00 -0.00000000000E+00 -0.18209972073E+04  0.18209972073E+04  0.00000000000E+00 0.  1.
         -6    2    1    2    0  503  0.49270427521E+02 -0.13311605586E+03 -0.77860571160E+03  0.80972420487E+03  0.17111100039E+03 0.  0.
        -24    2    3    3    0    0 -0.81805990441E+01 -0.35649535136E+02 -0.52015092018E+03  0.52755171804E+03  0.80100086656E+02 0.  0.
          6    2    1    2  501    0 -0.49270427521E+02  0.13311605586E+03 -0.10147566198E+04  0.10389078783E+04  0.17161329435E+03 0.  0.
         24    2    5    5    0    0 -0.76292867091E-01  0.14464646536E+03 -0.85370871389E+03  0.87005429905E+03  0.85166362807E+02 0.  0.
          5    1    5    5  501    0 -0.49194134654E+02 -0.11530409499E+02 -0.16104790595E+03  0.16885357929E+03  0.47000000000E+01 0. -1.
        -11    1    6    6    0    0 -0.29380779363E+02  0.11987793173E+03 -0.53546561908E+03  0.54950648580E+03  0.00000000000E+00 0.  1.
         12    1    6    6    0    0  0.29304486496E+02  0.24768533635E+02 -0.31824309481E+03  0.32054781325E+03  0.00000000000E+00 0. -1.
         -5    1    3    3    0  503  0.57451026565E+02 -0.97466520728E+02 -0.25845479142E+03  0.28217248683E+03  0.47000000000E+01 0.  1.
         13    1    4    4    0    0 -0.16778613725E+02 -0.31905289745E+01 -0.20107099602E+02  0.26381751422E+02  0.00000000000E+00 0. -1.
        -14    1    4    4    0    0  0.85980146813E+01 -0.32459006162E+02 -0.50004382058E+03  0.50116996661E+03  0.00000000000E+00 0.  1.
</event>
<event>
12    1  0.8449700E-002  0.1984768E+03  0.7818608E-02  0.1151291E+00
         21   -1    0    0  501  502  0.00000000000E+00  0.00000000000E+00  0.33044931762E+03  0.33044931762E+03  0.00000000000E+00 0.  1.
         21   -1    0    0  502  503 -0.00000000000E+00 -0.00000000000E+00 -0.11848202995E+03  0.11848202995E+03  0.00000000000E+00 0.  1.
         -6    2    1    2    0  503 -0.84645760182E+01  0.95735990204E+02  0.10741001339E+03  0.22567662774E+03  0.17365483139E+03 0.  0.
        -24    2    3    3    0    0  0.26158848144E+02  0.75097133779E+02  0.13505823029E+03  0.17657206795E+03  0.81320998358E+02 0.  0.
          6    2    1    2  501    0  0.84645760182E+01 -0.95735990204E+02  0.10455727428E+03  0.22325471983E+03  0.17225973834E+03 0.  0.
         24    2    5    5    0    0  0.58418536482E+02 -0.11379749719E+02  0.57433083242E+02  0.11437794151E+03  0.79003356549E+02 0.  0.
          5    1    5    5  501    0 -0.49953960464E+02 -0.84356240485E+02  0.47124191033E+02  0.10887677831E+03  0.47000000000E+01 0. -1.
        -11    1    6    6    0    0  0.19197511630E+02 -0.32308208076E+02 -0.48115282949E+01  0.37888198247E+02  0.00000000000E+00 0.  1.
         12    1    6    6    0    0  0.39221024852E+02  0.20928458357E+02  0.62244611537E+02  0.76489743267E+02  0.00000000000E+00 0. -1.
         -5    1    3    3    0  503 -0.34623424163E+02  0.20638856425E+02 -0.27648216893E+02  0.49104559795E+02  0.47000000000E+01 0.  1.
         13    1    4    4    0    0  0.16929876455E+02  0.83201664772E+02  0.69075048315E+02  0.10945547057E+03  0.00000000000E+00 0. -1.
        -14    1    4    4    0    0  0.92289716895E+01 -0.81045309928E+01  0.65983181971E+02  0.67116597382E+02  0.00000000000E+00 0.  1.
</event>
<event>
12    1  0.8449700E-002  0.1838034E+03  0.7818608E-02  0.1164246E+00
         21   -1    0    0  501  502  0.00000000000E+00  0.00000000000E+00  0.94584524543E+02  0.94584524543E+02  0.00000000000E+00 0.  1.
         21   -1    0    0  502  503 -0.00000000000E+00 -0.00000000000E+00 -0.40356435877E+03  0.40356435877E+03  0.00000000000E+00 0.  1.
         -6    2    1    2    0  503  0.57458364852E+02 -0.29520560130E+02 -0.23959991252E+03  0.30197983680E+03  0.17207782134E+03 0.  0.
        -24    2    3    3    0    0 -0.11883568361E+02 -0.38507549006E+02 -0.20575951671E+03  0.22415739750E+03  0.79281205910E+02 0.  0.
          6    2    1    2  501    0 -0.57458364852E+02  0.29520560130E+02 -0.69379921714E+02  0.19616904651E+03  0.17174339612E+03 0.  0.
         24    2    5    5    0    0 -0.45893316160E+02  0.78610866224E+02 -0.59663948867E+02  0.14459290249E+03  0.95191679782E+02 0.  0.
          5    1    5    5  501    0 -0.11565048692E+02 -0.49090306094E+02 -0.97159728469E+01  0.51576144021E+02  0.47000000000E+01 0. -1.
        -13    1    6    6    0    0 -0.68272503946E+02  0.49789724261E+02 -0.13217076439E+02  0.85526852781E+02  0.00000000000E+00 0.  1.
         14    1    6    6    0    0  0.22379187786E+02  0.28821141963E+02 -0.46446872428E+02  0.59066049710E+02  0.00000000000E+00 0. -1.
         -5    1    3    3    0  503  0.69341933213E+02  0.89869888764E+01 -0.33840395810E+02  0.77822439305E+02  0.47000000000E+01 0.  1.
         11    1    4    4    0    0 -0.18181032477E+02 -0.60610665200E+02 -0.17240921010E+03  0.18365494386E+03  0.00000000000E+00 0. -1.
        -12    1    4    4    0    0  0.62974641162E+01  0.22103116194E+02 -0.33350306608E+02  0.40502453637E+02  0.00000000000E+00 0.  1.
</event>
<event>
12    1  0.8449700E-002  0.2324274E+03  0.7818608E-02  0.1124998E+00
         21   -1    0    0  503  502  0.00000000000E+00  0.00000000000E+00  0.70771341539E+03  0.70771341539E+03  0.00000000000E+00 0.  1.
         21   -1    0    0  501  503 -0.00000000000E+00 -0.00000000000E+00 -0.10577737616E+03  0.10577737616E+03  0.00000000000E+00 0.  1.
          6    2    1    2  501    0  0.13610298337E+03 -0.75603050726E+02  0.85842172642E+02  0.24747368319E+03  0.17214674526E+03 0.  0.
         24    2    3    3    0    0  0.10244663520E+03 -0.11356146591E+02 -0.72439141788E+01  0.12937404719E+03  0.77851747981E+02 0.  0.
         -6    2    1    2    0  502 -0.13610298337E+03  0.75603050726E+02  0.51609386659E+03  0.56601710837E+03  0.17257648876E+03 0.  0.
        -24    2    5    5    0    0 -0.14459353994E+03  0.10883175641E+03  0.43061672250E+03  0.47379634826E+03  0.79376161019E+02 0.  0.
          5    1    3    3  501    0  0.33656348171E+02 -0.64246904135E+02  0.93086086821E+02  0.11809963600E+03  0.47000000000E+01 0. -1.
        -13    1    4    4    0    0 -0.12014914026E+02 -0.13036035915E+01 -0.79570564333E+01  0.14469702431E+02  0.00000000000E+00 0.  1.
         14    1    4    4    0    0  0.11446154923E+03 -0.10052542999E+02  0.71314225446E+00  0.11490434476E+03  0.00000000000E+00 0. -1.
         -5    1    5    5    0  502  0.84905565646E+01 -0.33228705686E+02  0.85477144091E+02  0.92220760104E+02  0.47000000000E+01 0.  1.
         13    1    6    6    0    0  0.34923892854E+01  0.55244045485E+01  0.71935753498E+02  0.72232045935E+02  0.00000000000E+00 0. -1.
        -14    1    6    6    0    0 -0.14808592922E+03  0.10330735186E+03  0.35868096900E+03  0.40156430233E+03  0.00000000000E+00 0.  1.
</event>
<event>
12    1  0.8449700E-002  0.2578353E+03  0.7818608E-02  0.1110737E+00
         21   -1    0    0  503  502  0.00000000000E+00  0.00000000000E+00  0.14138635968E+03  0.14138635968E+03  0.00000000000E+00 0. -1.
         21   -1    0    0  501  503 -0.00000000000E+00 -0.00000000000E+00 -0.46543173233E+03  0.46543173233E+03  0.00000000000E+00 0.  1.
          6    2    1    2  501    0  0.17305284394E+03 -0.10275824457E+02 -0.23166823182E+03  0.34662544882E+03  0.19085636686E+03 0.  0.
         24    2    3    3    0    0  0.13804061894E+03 -0.81634244513E+02 -0.17404570121E+03  0.24833849116E+03  0.75237874291E+02 0.  0.
         -6    2    1    2    0  502 -0.17305284394E+03  0.10275824457E+02 -0.92377140833E+02  0.26019264319E+03  0.17062765327E+03 0.  0.
        -24    2    5    5    0    0 -0.52200922740E+02  0.34960487208E+02 -0.91849336209E+02  0.13675485316E+03  0.79488472741E+02 0.  0.
          5    1    3    3  501    0  0.35012224997E+02  0.71358420056E+02 -0.57622530606E+02  0.98286957657E+02  0.47000000000E+01 0. -1.
        -11    1    4    4    0    0  0.28196523675E+02 -0.13951102456E+02 -0.87485654303E+02  0.92969978574E+02  0.00000000000E+00 0.  1.
         12    1    4    4    0    0  0.10984409526E+03 -0.67683142057E+02 -0.86560046910E+02  0.15536851259E+03  0.00000000000E+00 0. -1.
         -5    1    5    5    0  502 -0.12085192120E+03 -0.24684662751E+02 -0.52780462430E+00  0.12343779004E+03  0.47000000000E+01 0.  1.
         11    1    6    6    0    0 -0.23340216503E+02 -0.36018875210E+01  0.87770062093E+01  0.25194744256E+02  0.00000000000E+00 0. -1.
        -12    1    6    6    0    0 -0.28860706238E+02  0.38562374729E+02 -0.10062634242E+03  0.11156010890E+03  0.00000000000E+00 0.  1.
</event>
<event>
12    1  0.8449700E-002  0.1767080E+03  0.7818608E-02  0.1171363E+00
         21   -1    0    0  503  502  0.00000000000E+00  0.00000000000E+00  0.15121923790E+03  0.15121923790E+03  0.00000000000E+00 0. -1.
         21   -1    0    0  501  503 -0.00000000000E+00 -0.00000000000E+00 -0.21029411946E+03  0.21029411946E+03  0.00000000000E+00 0. -1.
          6    2    1    2  501    0  0.16233959529E+02 -0.23688189932E+02 -0.58313602983E+02  0.18480375751E+03  0.17299503090E+03 0.  0.
         24    2    3    3    0    0  0.39151819224E+02  0.94121409382E+01 -0.94582389404E+02  0.13041281098E+03  0.80250978412E+02 0.  0.
         -6    2    1    2    0  502 -0.16233959529E+02  0.23688189932E+02 -0.76127856903E+00  0.17670959985E+03  0.17435891531E+03 0.  0.
        -24    2    5    5    0    0  0.14264433611E+02  0.56793725831E+02 -0.48019602976E+02  0.11127591038E+03  0.81531862490E+02 0.  0.
          5    1    3    3  501    0 -0.22917859695E+02 -0.33100330870E+02  0.36268786421E+02  0.54390946537E+02  0.47000000000E+01 0. -1.
        -13    1    4    4    0    0  0.63243910293E+02  0.15017117359E+02 -0.66563737389E+02  0.93037826383E+02  0.00000000000E+00 0.  1.
         14    1    4    4    0    0 -0.24092091068E+02 -0.56049764210E+01 -0.28018652015E+02  0.37374984595E+02  0.00000000000E+00 0. -1.
         -5    1    5    5    0  502 -0.30498393140E+02 -0.33105535899E+02  0.47258324407E+02  0.65433689465E+02  0.47000000000E+01 0.  1.
         13    1    6    6    0    0 -0.36450837715E+01  0.24958263853E+02  0.21239664606E+02  0.32974610275E+02  0.00000000000E+00 0. -1.
        -14    1    6    6    0    0  0.17909517383E+02  0.31835461978E+02 -0.69259267582E+02  0.78301300105E+02  0.00000000000E+00 0.  1.
</event>
<event>
12    1  0.8449700E-002  0.1889791E+03  0.7818608E-02  0.1159571E+00
         21   -1    0    0  503  502  0.00000000000E+00  0.00000000000E+00  0.15040015038E+02  0.15040015038E+02  0.00000000000E+00 0. -1.
         21   -1    0    0  501  503 -0.00000000000E+00 -0.00000000000E+00 -0.24751922384E+04  0.24751922384E+04  0.00000000000E+00 0. -1.
          6    2    1    2  501    0  0.20959878462E+02  0.73087440380E+02 -0.14910558380E+04  0.15028818121E+04  0.17211954749E+03 0.  0.
         24    2    3    3    0    0 -0.28735559725E+02  0.16959788729E+02 -0.11650031367E+04  0.11682889194E+04  0.80952601510E+02 0.  0.
         -6    2    1    2    0  502 -0.20959878462E+02 -0.73087440380E+02 -0.96909638543E+03  0.98735044141E+03  0.17300866875E+03 0.  0.
        -24    2    5    5    0    0 -0.64379387115E+02 -0.28382561069E+01 -0.40115718872E+03  0.41341906679E+03  0.76390271233E+02 0.  0.
          5    1    3    3  501    0  0.49695438187E+02  0.56127651650E+02 -0.32605270123E+03  0.33459289268E+03  0.47000000000E+01 0. -1.
        -13    1    4    4    0    0  0.82080137699E+00  0.31301206896E+01 -0.10043487107E+04  0.10043539237E+04  0.00000000000E+00 0.  1.
         14    1    4    4    0    0 -0.29556361102E+02  0.13829668040E+02 -0.16065442603E+03  0.16393499566E+03  0.00000000000E+00 0. -1.
         -5    1    5    5    0  502  0.43419508652E+02 -0.70249184273E+02 -0.56793919671E+03  0.57393137462E+03  0.47000000000E+01 0.  1.
         13    1    6    6    0    0 -0.15982973110E+02 -0.29667792535E+02 -0.25356516762E+03  0.25579469810E+03  0.00000000000E+00 0. -1.
        -14    1    6    6    0    0 -0.48396414005E+02  0.26829536428E+02 -0.14759202110E+03  0.15762436869E+03  0.00000000000E+00 0.  1.
</event>
<event>
12    1  0.8449700E-002  0.2765205E+03  0.7818608E-02  0.1098044E+00
         21   -1    0    0  503  502  0.00000000000E+00  0.00000000000E+00  0.91141643839E+03  0.91141643839E+03  0.00000000000E+00 0.  1.
         21   -1    0    0  501  503 -0.00000000000E+00 -0.00000000000E+00 -0.20072923212E+03  0.20072923212E+03  0.00000000000E+00 0. -1.
          6    2    1    2  501    0 -0.17898692766E+03  0.12159381172E+03 -0.69778217173E+02  0.28518871194E+03  0.17216917988E+03 0.  0.
         24    2    3    3    0    0 -0.14154283687E+03  0.11651867457E+03  0.58518709214E+01  0.20051393896E+03  0.80997648931E+02 0.  0.
         -6    2    1    2    0  502  0.17898692766E+03 -0.12159381172E+03  0.78046542344E+03  0.82695695858E+03  0.16706333778E+03 0.  0.
        -24    2    5    5    0    0  0.91365547845E+02 -0.13136422137E+03  0.43067168523E+03  0.46619288554E+03  0.79078973667E+02 0.  0.
          5    1    3    3  501    0 -0.37444090796E+02  0.50751371444E+01 -0.75630088095E+02  0.84674772971E+02  0.47000000000E+01 0. -1.
        -11    1    4    4    0    0 -0.89134772612E+02  0.10782482461E+03 -0.20196045192E+02  0.14134737611E+03  0.00000000000E+00 0.  1.
         12    1    4    4    0    0 -0.52408064256E+02  0.86938499611E+01  0.26047916114E+02  0.59166562855E+02  0.00000000000E+00 0. -1.
         -5    1    5    5    0  502  0.87621379818E+02  0.97704096521E+01  0.34979373822E+03  0.36076407305E+03  0.47000000000E+01 0.  1.
         13    1    6    6    0    0 -0.46602278604E+01 -0.12406314041E+02  0.11163031652E+03  0.11241424250E+03  0.00000000000E+00 0. -1.
        -14    1    6    6    0    0  0.96025775706E+02 -0.11895790733E+03  0.31904136871E+03  0.35377864303E+03  0.00000000000E+00 0.  1.
</event>
<event>
12    1  0.8449700E-002  0.1841188E+03  0.7818608E-02  0.1164461E+00
         21   -1    0    0  503  502  0.00000000000E+00  0.00000000000E+00  0.59256219578E+03  0.59256219578E+03  0.00000000000E+00 0.  1.
         21   -1    0    0  501  503 -0.00000000000E+00 -0.00000000000E+00 -0.59934903243E+02  0.59934903243E+02  0.00000000000E+00 0. -1.
          6    2    1    2  501    0 -0.86864115391E+01  0.62474073207E+02  0.18586998558E+03  0.25988994299E+03  0.17034279368E+03 0.  0.
         24    2    3    3    0    0 -0.42576218811E+02  0.68357051149E+02  0.19361250430E+03  0.22432078413E+03  0.79678049177E+02 0.  0.
         -6    2    1    2    0  502  0.86864115391E+01 -0.62474073207E+02  0.34675730696E+03  0.39260715603E+03  0.17297770224E+03 0.  0.
        -24    2    5    5    0    0 -0.24841618096E+02 -0.60374355449E+02  0.10488212188E+03  0.14836499599E+03  0.82156824182E+02 0.  0.
          5    1    3    3  501    0  0.33889807272E+02 -0.58829779418E+01 -0.77425187158E+01  0.35569158866E+02  0.47000000000E+01 0. -1.
        -13    1    4    4    0    0 -0.60243328036E+02  0.44231787039E+02  0.92724796189E+02  0.11909490915E+03  0.00000000000E+00 0.  1.
         14    1    4    4    0    0  0.17667109225E+02  0.24125264110E+02  0.10088770811E+03  0.10522587497E+03  0.00000000000E+00 0. -1.
         -5    1    5    5    0  502  0.33528029635E+02 -0.20997177584E+01  0.24187518508E+03  0.24424216004E+03  0.47000000000E+01 0.  1.
         11    1    6    6    0    0 -0.11645880571E+02 -0.79572846960E+02  0.71190962158E+02  0.10740399248E+03  0.00000000000E+00 0. -1.
        -12    1    6    6    0    0 -0.13195737525E+02  0.19198491512E+02  0.33691159721E+02  0.40961003510E+02  0.00000000000E+00 0.  1.
</event>
<event>
12    1  0.8449700E-002  0.2566253E+03  0.7818608E-02  0.1109346E+00
         21   -1    0    0  501  502  0.00000000000E+00  0.00000000000E+00  0.60904225452E+03  0.60904225452E+03  0.00000000000E+00 0.  1.
         21   -1    0    0  502  503 -0.00000000000E+00 -0.00000000000E+00 -0.12854975439E+03  0.12854975439E+03  0.00000000000E+00 0. -1.
         -6    2    1    2    0  503 -0.12171343558E+03  0.14612348337E+03  0.92111522797E+02  0.27265562260E+03  0.17230880160E+03 0.  0.
        -24    2    3    3    0    0 -0.33171475449E+02  0.12971382074E+01  0.36787533574E+02  0.94057798589E+02  0.79946966784E+02 0.  0.
          6    2    1    2  501    0  0.12171343558E+03 -0.14612348337E+03  0.38838097734E+03  0.46493638631E+03  0.17076248701E+03 0.  0.
         24    2    5    5    0    0  0.88821096541E+02 -0.17446430865E+03  0.32815009333E+03  0.39053908977E+03  0.80692717762E+02 0.  0.
          5    1    5    5  501    0  0.32892339036E+02  0.28340825282E+02  0.60230884006E+02  0.74397296544E+02  0.47000000000E+01 0. -1.
        -11    1    6    6    0    0  0.10324118332E+03 -0.16443367028E+03  0.30261960740E+03  0.35954944116E+03  0.00000000000E+00 0.  1.
         12    1    6    6    0    0 -0.14420086783E+02 -0.10030638371E+02  0.25530485935E+02  0.30989648611E+02  0.00000000000E+00 0. -1.
         -5    1    3    3    0  503 -0.88541960128E+02  0.14482634516E+03  0.55323989222E+02  0.17859782401E+03  0.47000000000E+01 0.  1.
         11    1    4    4    0    0 -0.35835573284E+02  0.31355720768E+02  0.15186712052E+01  0.47641115643E+02  0.00000000000E+00 0. -1.
        -12    1    4    4    0    0  0.26640978354E+01 -0.30058582561E+02  0.35268862369E+02  0.46416682945E+02  0.00000000000E+00 0.  1.
</event>
<event>
12    1  0.8449700E-002  0.2225737E+03  0.7818608E-02  0.1132298E+00
         21   -1    0    0  501  502  0.00000000000E+00  0.00000000000E+00  0.51229846690E+03  0.51229846690E+03  0.00000000000E+00 0.  1.
         21   -1    0    0  502  503 -0.00000000000E+00 -0.00000000000E+00 -0.11375010336E+03  0.11375010336E+03  0.00000000000E+00 0.  1.
         -6    2    1    2    0  503  0.58714052358E+02  0.12665434659E+03  0.32244694932E+03  0.39082428881E+03  0.17112254714E+03 0.  0.
        -24    2    3    3    0    0  0.88922185651E+02  0.35791954764E+02  0.17218388681E+03  0.21258404778E+03  0.79727456798E+02 0.  0.
          6    2    1    2  501    0 -0.58714052358E+02 -0.12665434659E+03  0.76101414211E+02  0.23522428145E+03  0.17335043665E+03 0.  0.
         24    2    5    5    0    0 -0.94953750393E+02 -0.11800230601E+03  0.90451991352E+02  0.19502225931E+03  0.83134589380E+02 0.  0.
          5    1    5    5  501    0  0.36239698035E+02 -0.86520405833E+01 -0.14350577140E+02  0.40202022140E+02  0.47000000000E+01 0. -1.
        -13    1    6    6    0    0 -0.19674446814E+02 -0.65965722835E+02  0.75714940729E+02  0.10232943221E+03  0.00000000000E+00 0.  1.
         14    1    6    6    0    0 -0.75279303579E+02 -0.52036583172E+02  0.14737050623E+02  0.92692827104E+02  0.00000000000E+00 0. -1.
         -5    1    3    3    0  503 -0.30208133293E+02  0.90862391826E+02  0.15026306251E+03  0.17824024103E+03  0.47000000000E+01 0.  1.
         13    1    4    4    0    0 -0.12511360639E+02 -0.42996387640E+01  0.79573613145E+01  0.15438284802E+02  0.00000000000E+00 0. -1.
        -14    1    4    4    0    0  0.10143354629E+03  0.40091593528E+02  0.16422652550E+03  0.19714576298E+03  0.00000000000E+00 0.  1.
</event>
<event>
12    1  0.8449700E-002  0.1796502E+03  0.7818608E-02  0.1168340E+00
         21   -1    0    0  503  502  0.00000000000E+00  0.00000000000E+00  0.86592158264E+02  0.86592158264E+02  0.00000000000E+00 0. -1.
         21   -1    0    0  501  503 -0.00000000000E+00 -0.00000000000E+00 -0.74501751772E+03  0.74501751772E+03  0.00000000000E+00 0. -1.
          6    2    1    2  501    0  0.48761973089E+02  0.17150411127E+02 -0.62418913142E+03  0.64952773340E+03  0.17205330004E+03 0.  0.
         24    2    3    3    0    0  0.38946931461E+02  0.63078601680E+02 -0.25646770414E+03  0.27878945401E+03  0.80324983276E+02 0.  0.
         -6    2    1    2    0  502 -0.48761973089E+02 -0.17150411127E+02 -0.34236228031E+02  0.18208194258E+03  0.17120119124E+03 0.  0.
        -24    2    5    5    0    0 -0.93471943605E+02 -0.13706433570E+02 -0.51612994794E+02  0.13376130032E+03  0.79393410740E+02 0.  0.
          5    1    3    3  501    0  0.98150416282E+01 -0.45928190552E+02 -0.36772142728E+03  0.37073827939E+03  0.47000000000E+01 0. -1.
        -11    1    4    4    0    0  0.19119306176E+02  0.24116192746E+02 -0.16593486935E+02  0.34964016215E+02  0.00000000000E+00 0.  1.
         12    1    4    4    0    0  0.19827625285E+02  0.38962408933E+02 -0.23987421721E+03  0.24382543779E+03  0.00000000000E+00 0. -1.
         -5    1    5    5    0  502  0.44709970516E+02 -0.34439775568E+01  0.17376766762E+02  0.48320642256E+02  0.47000000000E+01 0.  1.
         13    1    6    6    0    0 -0.75975768226E+02 -0.26268236753E+02 -0.69109539164E+02  0.10601163155E+03  0.00000000000E+00 0. -1.
        -14    1    6    6    0    0 -0.17496175379E+02  0.12561803183E+02  0.17496544370E+02  0.27749668773E+02  0.00000000000E+00 0.  1.
</event>
<event>
12    1  0.8449700E-002  0.1812820E+03  0.7818608E-02  0.1166590E+00
         21   -1    0    0  501  502  0.00000000000E+00  0.00000000000E+00  0.95173915421E+03  0.95173915421E+03  0.00000000000E+00 0.  1.
         21   -1    0    0  502  503 -0.00000000000E+00 -0.00000000000E+00 -0.52004146561E+02  0.52004146561E+02  0.00000000000E+00 0.  1.
         -6    2    1    2    0  503  0.56453759358E+02  0.13251620660E+02  0.15872857681E+03  0.24088441481E+03  0.17166219096E+03 0.  0.
        -24    2    3    3    0    0 -0.17920431973E+02  0.37718821987E+00  0.13535814990E+03  0.16172926210E+03  0.86678955469E+02 0.  0.
          6    2    1    2  501    0 -0.56453759358E+02 -0.13251620660E+02  0.74100643084E+03  0.76285888596E+03  0.17175714526E+03 0.  0.
         24    2    5    5    0    0  0.10127986059E+02  0.44542354448E+02  0.34901992087E+03  0.36105198410E+03  0.80355663271E+02 0.  0.
          5    1    5    5  501    0 -0.66581745417E+02 -0.57793975108E+02  0.39198650997E+03  0.40180690186E+03  0.47000000000E+01 0. -1.
        -11    1    6    6    0    0 -0.28105516377E+02  0.26371879197E+02  0.25559003629E+03  0.25847952088E+03  0.00000000000E+00 0.  1.
         12    1    6    6    0    0  0.38233502435E+02  0.18170475251E+02  0.93429884580E+02  0.10257246322E+03  0.00000000000E+00 0. -1.
         -5    1    3    3    0  503  0.74374191331E+02  0.12874432440E+02  0.23370426908E+02  0.79155152711E+02  0.47000000000E+01 0.  1.
         13    1    4    4    0    0 -0.38816525511E+02  0.71082176629E+00  0.18479238491E+02  0.42996629816E+02  0.00000000000E+00 0. -1.
        -14    1    4    4    0    0  0.20896093538E+02 -0.33363354642E+00  0.11687891141E+03  0.11873263228E+03  0.00000000000E+00 0.  1.
</event>
<event>
12    1  0.8449700E-002  0.4929978E+03  0.7818608E-02  0.1015675E+00
         21   -1    0    0  503  502  0.00000000000E+00  0.00000000000E+00  0.27350235157E+03  0.27350235157E+03  0.00000000000E+00 0.  1.
         21   -1    0    0  501  503 -0.00000000000E+00 -0.00000000000E+00 -0.92049924453E+03  0.92049924453E+03  0.00000000000E+00 0.  1.
          6    2    1    2  501    0 -0.49812656240E+02  0.45913115559E+03 -0.43673663347E+03  0.65803874750E+03  0.17027444741E+03 0.  0.
         24    2    3    3    0    0 -0.73252238245E+02  0.24490623850E+03 -0.30388731060E+03  0.40483376791E+03  0.78726907887E+02 0.  0.
         -6    2    1    2    0  502  0.49812656240E+02 -0.45913115559E+03 -0.21026025948E+03  0.53596284860E+03  0.17252269301E+03 0.  0.
        -24    2    5    5    0    0 -0.12214006596E+02 -0.86811217013E+02 -0.49564079695E+02  0.12570098617E+03  0.75224800240E+02 0.  0.
          5    1    3    3  501    0  0.23439582005E+02  0.21422491709E+03 -0.13284932287E+03  0.25320497960E+03  0.47000000000E+01 0. -1.
        -11    1    4    4    0    0 -0.20310251729E+02  0.16060871737E+03 -0.22816657156E+03  0.27976356232E+03  0.00000000000E+00 0.  1.
         12    1    4    4    0    0 -0.52941986517E+02  0.84297521134E+02 -0.75720739038E+02  0.12507020559E+03  0.00000000000E+00 0. -1.
         -5    1    5    5    0  502  0.62026662836E+02 -0.37231993858E+03 -0.16069617979E+03  0.41026186243E+03  0.47000000000E+01 0.  1.
         11    1    6    6    0    0 -0.29535183641E+01 -0.31404287517E+02 -0.60723963618E+02  0.68427715896E+02  0.00000000000E+00 0. -1.
        -12    1    6    6    0    0 -0.92604882323E+01 -0.55406929496E+02  0.11159883924E+02  0.57273270272E+02  0.00000000000E+00 0.  1.
</event>
<event>
12    1  0.8449700E-002  0.2045726E+03  0.7818608E-02  0.1146353E+00
         21   -1    0    0  501  502  0.00000000000E+00  0.00000000000E+00  0.73747625482E+03  0.73747625482E+03  0.00000000000E+00 0.  1.
         21   -1    0    0  502  503 -0.00000000000E+00 -0.00000000000E+00 -0.56427696329E+02  0.56427696329E+02  0.00000000000E+00 0.  1.
         -6    2    1    2    0  503  0.18743613236E+01  0.11248558726E+03  0.36468078116E+03  0.41715668405E+03  0.16843724746E+03 0.  0.
        -24    2    3    3    0    0  0.26705407286E+02  0.10544701976E+03  0.36675014703E+03  0.39084139285E+03  0.80119106694E+02 0.  0.
          6    2    1    2  501    0 -0.18743613236E+01 -0.11248558726E+03  0.31636777734E+03  0.37674726710E+03  0.17086079760E+03 0.  0.
         24    2    5    5    0    0  0.91700709617E+01 -0.14291011654E+03  0.22761790770E+03  0.28216259167E+03  0.85430817744E+02 0.  0.
          5    1    5    5  501    0 -0.11044432285E+02  0.30424529272E+02  0.88749869636E+02  0.94584675431E+02  0.47000000000E+01 0. -1.
        -11    1    6    6    0    0 -0.89657003060E+01 -0.27280170712E+02  0.29905805789E+01  0.28871007400E+02  0.00000000000E+00 0.  1.
         12    1    6    6    0    0  0.18135771268E+02 -0.11562994582E+03  0.22462732713E+03  0.25329158427E+03  0.00000000000E+00 0. -1.
         -5    1    3    3    0  503 -0.24831045963E+02  0.70385675057E+01 -0.20693658789E+01  0.26315291206E+02  0.47000000000E+01 0.  1.
         11    1    4    4    0    0  0.42328557063E+02  0.18202325792E+02  0.11171998562E+03  0.12084861023E+03  0.00000000000E+00 0. -1.
        -12    1    4    4    0    0 -0.15623149776E+02  0.87244693967E+02  0.25503016142E+03  0.26999278262E+03  0.00000000000E+00 0.  1.
</event>
<event>
12    1  0.8449700E-002  0.1974316E+03  0.7818608E-02  0.1152608E+00
         21   -1    0    0  501  502  0.00000000000E+00  0.00000000000E+00  0.63414369670E+02  0.63414369670E+02  0.00000000000E+00 0.  1.
         21   -1    0    0  502  503 -0.00000000000E+00 -0.00000000000E+00 -0.62473973900E+03  0.62473973900E+03  0.00000000000E+00 0.  1.
         -6    2    1    2    0  503  0.89361837208E+02  0.13366026698E+02 -0.21712331568E+03  0.29134900087E+03  0.17198115441E+03 0.  0.
        -24    2    3    3    0    0  0.10075224477E+03 -0.43943763947E+02 -0.13629866887E+03  0.19150478711E+03  0.77554414024E+02 0.  0.
          6    2    1    2  501    0 -0.89361837208E+02 -0.13366026698E+02 -0.34420205364E+03  0.39680510780E+03  0.17554216367E+03 0.  0.
         24    2    5    5    0    0 -0.11306788976E+03  0.15077920702E+02 -0.17625759581E+03  0.22476306065E+03  0.80249622828E+02 0.  0.
          5    1    5    5  501    0  0.23706052551E+02 -0.28443947400E+02 -0.16794445783E+03  0.17204204715E+03  0.47000000000E+01 0. -1.
        -11    1    6    6    0    0  0.30176289642E+01 -0.16561122354E+02 -0.37494965031E+02  0.41100477623E+02  0.00000000000E+00 0.  1.
         12    1    6    6    0    0 -0.11608551872E+03  0.31639043056E+02 -0.13876263078E+03  0.18366258302E+03  0.00000000000E+00 0. -1.
         -5    1    3    3    0  503 -0.11390407559E+02  0.57309790646E+02 -0.80824646812E+02  0.99844213756E+02  0.47000000000E+01 0.  1.
         13    1    4    4    0    0  0.11173013602E+03 -0.33689248654E+02 -0.13131717995E+03  0.17567808777E+03  0.00000000000E+00 0. -1.
        -14    1    4    4    0    0 -0.10977891254E+02 -0.10254515293E+02 -0.49814889179E+01  0.15826699344E+02  0.00000000000E+00 0.  1.
</event>
<event>
12    1  0.8449700E-002  0.1813476E+03  0.7818608E-02  0.1166735E+00
         21   -1    0    0  503  502  0.00000000000E+00  0.00000000000E+00  0.11152233644E+04  0.11152233644E+04  0.00000000000E+00 0. -1.
         21   -1    0    0  501  503 -0.00000000000E+00 -0.00000000000E+00 -0.43544694147E+02  0.43544694147E+02  0.00000000000E+00 0. -1.
          6    2    1    2  501    0 -0.20220596213E+02 -0.52511808785E+02  0.20390287790E+03  0.27224577247E+03  0.17139140713E+03 0.  0.
         24    2    3    3    0    0 -0.28471685080E+02 -0.40561909064E+02  0.22649876387E+03  0.24497775763E+03  0.79098080770E+02 0.  0.
         -6    2    1    2    0  502  0.20220596213E+02  0.52511808785E+02  0.86777579232E+03  0.88652228604E+03  0.17239656418E+03 0.  0.
        -24    2    5    5    0    0  0.52694626841E+02 -0.21559571228E+02  0.40681797901E+03  0.41849950065E+03  0.79996407314E+02 0.  0.
          5    1    3    3  501    0  0.82510888669E+01 -0.11949899721E+02 -0.22595885966E+02  0.27268014842E+02  0.47000000000E+01 0. -1.
        -11    1    4    4    0    0 -0.27115035507E+02  0.13409961473E+02  0.13827771878E+03  0.14154780015E+03  0.00000000000E+00 0.  1.
         12    1    4    4    0    0 -0.13566495735E+01 -0.53971870537E+02  0.88221045090E+02  0.10342995748E+03  0.00000000000E+00 0. -1.
         -5    1    5    5    0  502 -0.32474030627E+02  0.74071380012E+02  0.46095781330E+03  0.46802278539E+03  0.47000000000E+01 0.  1.
         11    1    6    6    0    0  0.35180342197E+02  0.70842784362E+01  0.58942966368E+02  0.69008092006E+02  0.00000000000E+00 0. -1.
        -12    1    6    6    0    0  0.17514284644E+02 -0.28643849664E+02  0.34787501264E+03  0.34949140864E+03  0.00000000000E+00 0.  1.
</event>
<event>
12    1  0.8449700E-002  0.1744168E+03  0.7818608E-02  0.1173608E+00
         21   -1    0    0  501  502  0.00000000000E+00  0.00000000000E+00  0.11608527900E+03  0.11608527900E+03  0.00000000000E+00 0. -1.
         21   -1    0    0  502  503 -0.00000000000E+00 -0.00000000000E+00 -0.34535918000E+03  0.34535918000E+03  0.00000000000E+00 0. -1.
         -6    2    1    2    0  503 -0.28503162112E+02 -0.46471246264E+01 -0.44919104292E+00  0.17441740741E+03  0.17200931433E+03 0.  0.
        -24    2    3    3    0    0 -0.43096344880E+02 -0.59026783524E+02  0.27170834752E+02  0.11152810696E+03  0.79742136081E+02 0.  0.
          6    2    1    2  501    0  0.28503162112E+02  0.46471246264E+01 -0.22882470996E+03  0.28702705159E+03  0.17085009347E+03 0.  0.
         24    2    5    5    0    0  0.78346888537E+02  0.24533445905E+02 -0.18351189697E+03  0.21663384269E+03  0.80706137054E+02 0.  0.
          5    1    5    5  501    0 -0.49843726425E+02 -0.19886321279E+02 -0.45312812990E+02  0.70393208898E+02  0.47000000000E+01 0. -1.
        -13    1    6    6    0    0  0.15023357371E+02  0.39216818920E+02 -0.35549198061E+02  0.55021865070E+02  0.00000000000E+00 0.  1.
         14    1    6    6    0    0  0.63323531165E+02 -0.14683373015E+02 -0.14796269891E+03  0.16161197762E+03  0.00000000000E+00 0. -1.
         -5    1    3    3    0  503  0.14593182768E+02  0.54379658897E+02 -0.27620025795E+02  0.62889300441E+02  0.47000000000E+01 0.  1.
         13    1    4    4    0    0  0.12973748365E+02 -0.49646146634E+02  0.12351946678E+02  0.52779054642E+02  0.00000000000E+00 0. -1.
        -14    1    4    4    0    0 -0.56070093245E+02 -0.93806368901E+01  0.14818888074E+02  0.58749052322E+02  0.00000000000E+00 0.  1.
</event>
<event>
12    1  0.8449700E-002  0.3668283E+03  0.7818608E-02  0.1055994E+00
         21   -1    0    0  503  502  0.00000000000E+00  0.00000000000E+00  0.59413443066E+03  0.59413443066E+03  0.00000000000E+00 0.  1.
         21   -1    0    0  501  503 -0.00000000000E+00 -0.00000000000E+00 -0.22596613289E+03  0.22596613289E+03  0.00000000000E+00 0.  1.
          6    2    1    2  501    0  0.32345044959E+03  0.66432433181E+01  0.18567902643E+03  0.41114441639E+03  0.17291241786E+03 0.  0.
         24    2    3    3    0    0  0.97626079323E+02  0.26467738862E+02  0.11749002710E+03  0.17437134685E+03  0.79812703049E+02 0.  0.
         -6    2    1    2    0  502 -0.32345044959E+03 -0.66432433181E+01  0.18248927134E+03  0.40895614716E+03  0.17110952670E+03 0.  0.
        -24    2    5    5    0    0 -0.11685127353E+03  0.22819344866E+01  0.13608127132E+03  0.19696871637E+03  0.81358069513E+02 0.  0.
          5    1    3    3  501    0  0.22582437027E+03 -0.19824495544E+02  0.68188999323E+02  0.23677306954E+03  0.47000000000E+01 0. -1.
        -13    1    4    4    0    0  0.53768551630E+02 -0.25950309724E+02  0.64493955221E+02  0.87885982838E+02  0.00000000000E+00 0.  1.
         14    1    4    4    0    0  0.43857527693E+02  0.52418048587E+02  0.52996071881E+02  0.86485364009E+02  0.00000000000E+00 0. -1.
         -5    1    5    5    0  502 -0.20659917606E+03 -0.89251778048E+01  0.46408000020E+02  0.21198743079E+03  0.47000000000E+01 0.  1.
         13    1    6    6    0    0 -0.71483477203E+02  0.37991272053E+02  0.56793668915E+02  0.98887537607E+02  0.00000000000E+00 0. -1.
        -14    1    6    6    0    0 -0.45367796329E+02 -0.35709337566E+02  0.79287602402E+02  0.98081178765E+02  0.00000000000E+00 0.  1.
</event>
<event>
12    1  0.8449700E-002  0.2211042E+03  0.7818608E-02  0.1133063E+00
         21   -1    0    0  503  502  0.00000000000E+00  0.00000000000E+00  0.24123521668E+03  0.24123521668E+03  0.00000000000E+00 0. -1.
         21   -1    0    0  501  503 -0.00000000000E+00 -0.00000000000E+00 -0.27192015632E+03  0.27192015632E+03  0.00000000000E+00 0. -1.
          6    2    1    2  501    0  0.10055388801E+03  0.96148968264E+02 -0.14484173729E+03  0.26432213011E+03  0.17184688276E+03 0.  0.
         24    2    3    3    0    0 -0.10967294723E+02  0.60811066225E+02 -0.89328381824E+02  0.13474757955E+03  0.79743859114E+02 0.  0.
         -6    2    1    2    0  502 -0.10055388801E+03 -0.96148968264E+02  0.11415679765E+03  0.24883324289E+03  0.17184440586E+03 0.  0.
        -24    2    5    5    0    0 -0.76189862857E+02 -0.10806920427E+03  0.14315611209E+03  0.20884889614E+03  0.75102202869E+02 0.  0.
          5    1    3    3  501    0  0.11152118273E+03  0.35337902039E+02 -0.55513355463E+02  0.12957455056E+03  0.47000000000E+01 0. -1.
        -11    1    4    4    0    0 -0.29019432284E+02 -0.71085971892E+01 -0.34308391486E+02  0.45494234035E+02  0.00000000000E+00 0.  1.
         12    1    4    4    0    0  0.18052137561E+02  0.67919663414E+02 -0.55019990338E+02  0.89253345515E+02  0.00000000000E+00 0. -1.
         -5    1    5    5    0  502 -0.24364025148E+02  0.11920236005E+02 -0.28999314433E+02  0.39984346755E+02  0.47000000000E+01 0.  1.
         11    1    6    6    0    0 -0.57209190989E+02 -0.95040990807E+02  0.14835956415E+03  0.18524643516E+03  0.00000000000E+00 0. -1.
        -12    1    6    6    0    0 -0.18980671868E+02 -0.13028213462E+02 -0.52034520601E+01  0.23602460972E+02  0.00000000000E+00 0.  1.
</event>
<event>
12    1  0.8449700E-002  0.3522690E+03  0.7818608E-02  0.1061713E+00
         21   -1    0    0  501  502  0.00000000000E+00  0.00000000000E+00  0.10372596320E+04  0.10372596320E+04  0.00000000000E+00 0. -1.
         21   -1    0    0  502  503 -0.00000000000E+00 -0.00000000000E+00 -0.12077056997E+03  0.12077056997E+03  0.00000000000E+00 0.  1.
         -6    2    1    2    0  503  0.13071021751E+03 -0.27834887838E+03  0.40023580888E+03  0.53318114283E+03  0.17184344418E+03 0.  0.
        -24    2    3    3    0    0  0.10496430009E+03 -0.13528428263E+03  0.30649472500E+03  0.36014989818E+03  0.80309347428E+02 0.  0.
          6    2    1    2  501    0 -0.13071021751E+03  0.27834887838E+03  0.51625325315E+03  0.62484905915E+03  0.17133495346E+03 0.  0.
         24    2    5    5    0    0 -0.82138817767E+02  0.64755541030E+02  0.22474750418E+03  0.26018621992E+03  0.79027608612E+02 0.  0.
          5    1    5    5  501    0 -0.48571399741E+02  0.21359333735E+03  0.29150574898E+03  0.36466283923E+03  0.47000000000E+01 0. -1.
        -13    1    6    6    0    0 -0.61326942071E+01  0.38600531734E+02  0.29276616059E+02  0.48833710040E+02  0.00000000000E+00 0.  1.
         14    1    6    6    0    0 -0.76006123560E+02  0.26155009296E+02  0.19547088812E+03  0.21135250988E+03  0.00000000000E+00 0. -1.
         -5    1    3    3    0  503  0.25745917415E+02 -0.14306459574E+03  0.93741083880E+02  0.17303124465E+03  0.47000000000E+01 0.  1.
         11    1    4    4    0    0 -0.34607191081E+01 -0.44488866414E+02  0.10391062788E+03  0.11308693293E+03  0.00000000000E+00 0. -1.
        -12    1    4    4    0    0  0.10842501920E+03 -0.90795416219E+02  0.20258409712E+03  0.24706296526E+03  0.00000000000E+00 0.  1.
</event>
<event>
12    1  0.8449700E-002  0.1800444E+03  0.7818608E-02  0.1167870E+00
         21   -1    0    0  501  502  0.00000000000E+00  0.00000000000E+00  0.85523835770E+02  0.85523835770E+02  0.00000000000E+00 0. -1.
         21   -1    0    0  502  503 -0.00000000000E+00 -0.00000000000E+00 -0.41458677041E+03  0.41458677041E+03  0.00000000000E+00 0. -1.
         -6    2    1    2    0  503  0.21552502601E+02 -0.46920294253E+02 -0.23854950259E+03  0.29859469670E+03  0.17200843969E+03 0.  0.
        -24    2    3    3    0    0  0.32790600608E+02 -0.91856880595E+02 -0.13542638852E+03  0.18544851561E+03  0.80857499545E+02 0.  0.
          6    2    1    2  501    0 -0.21552502601E+02  0.46920294253E+02 -0.90513432048E+02  0.20151590949E+03  0.17248175560E+03 0.  0.
         24    2    5    5    0    0  0.23098996405E+02 -0.14031540498E+02 -0.97971834767E+02  0.12544620268E+03  0.73537892237E+02 0.  0.
          5    1    5    5  501    0 -0.44651499005E+02  0.60951834751E+02  0.74584027188E+01  0.76069706810E+02  0.47000000000E+01 0. -1.
        -11    1    6    6    0    0 -0.72769732763E+01 -0.30467442765E+02 -0.13355465841E+02  0.34052722014E+02  0.00000000000E+00 0.  1.
         12    1    6    6    0    0  0.30375969681E+02  0.16435902267E+02 -0.84616368926E+02  0.91393480663E+02  0.00000000000E+00 0. -1.
         -5    1    3    3    0  503 -0.11238098007E+02  0.44936586341E+02 -0.10312311407E+03  0.11314618109E+03  0.47000000000E+01 0.  1.
         11    1    4    4    0    0 -0.12707357720E+02 -0.74549417668E+02 -0.99353902928E+02  0.12486108538E+03  0.00000000000E+00 0. -1.
        -12    1    4    4    0    0  0.45497958328E+02 -0.17307462927E+02 -0.36072485595E+02  0.60587430231E+02  0.00000000000E+00 0.  1.
</event>
<event>
12    1  0.8449700E-002  0.2101312E+03  0.7818608E-02  0.1141941E+00
         21   -1    0    0  503  502  0.00000000000E+00  0.00000000000E+00  0.20899732798E+03  0.20899732798E+03  0.00000000000E+00 0.  1.
         21   -1    0    0  501  503 -0.00000000000E+00 -0.00000000000E+00 -0.25013095194E+03  0.25013095194E+03  0.00000000000E+00 0. -1.
          6    2    1    2  501    0 -0.26715242768E+02  0.11638670839E+03  0.72779810978E+02  0.22010654391E+03  0.16997182031E+03 0.  0.
         24    2    3    3    0    0 -0.11937623919E+02  0.13959863179E+03  0.92550483256E+02  0.18589922176E+03  0.79766182283E+02 0.  0.
         -6    2    1    2    0  502  0.26715242768E+02 -0.11638670839E+03 -0.11391343494E+03  0.23902173601E+03  0.17290329533E+03 0.  0.
        -24    2    5    5    0    0 -0.20542309766E+02 -0.60648806157E+02 -0.12859465103E+03  0.16433828320E+03  0.79813675982E+02 0.  0.
          5    1    3    3  501    0 -0.14777618850E+02 -0.23211923397E+02 -0.19770672278E+02  0.34207322155E+02  0.47000000000E+01 0. -1.
        -11    1    4    4    0    0 -0.88552527700E+01  0.68206293928E+02 -0.24359554401E+00  0.68779163791E+02  0.00000000000E+00 0.  1.
         12    1    4    4    0    0 -0.30823711485E+01  0.71392337862E+02  0.92794078800E+02  0.11712005796E+03  0.00000000000E+00 0. -1.
         -5    1    5    5    0  502  0.47257552534E+02 -0.55737902235E+02  0.14681216090E+02  0.74683452805E+02  0.47000000000E+01 0.  1.
         11    1    6    6    0    0  0.23597455106E+02 -0.26627281155E+02 -0.89361624092E+02  0.96183947983E+02  0.00000000000E+00 0. -1.
        -12    1    6    6    0    0 -0.44139764872E+02 -0.34021525002E+02 -0.39233026934E+02  0.68154335217E+02  0.00000000000E+00 0.  1.
</event>
<event>
12    1  0.8449700E-002  0.2335904E+03  0.7818608E-02  0.1124958E+00
         21   -1    0    0  503  502  0.00000000000E+00  0.00000000000E+00  0.10198189776E+03  0.10198189776E+03  0.00000000000E+00 0. -1.
         21   -1    0    0  501  503 -0.00000000000E+00 -0.00000000000E+00 -0.52886879308E+03  0.52886879308E+03  0.00000000000E+00 0.  1.
          6    2    1    2  501    0 -0.53080644507E+02  0.14046788190E+03 -0.18202705418E+03  0.29244141739E+03  0.17274071172E+03 0.  0.
         24    2    3    3    0    0  0.46639088630E+01  0.15470748243E+03 -0.12934815176E+03  0.21285274717E+03  0.67964626471E+02 0.  0.
         -6    2    1    2    0  502  0.53080644507E+02 -0.14046788190E+03 -0.24485984115E+03  0.33840927344E+03  0.17892935444E+03 0.  0.
        -24    2    5    5    0    0 -0.12706487394E+02 -0.18050901119E+02 -0.43541310419E+02  0.93735807941E+02  0.80020410673E+02 0.  0.
          5    1    3    3  501    0 -0.57744553370E+02 -0.14239600522E+02 -0.52678902422E+02  0.79588670219E+02  0.47000000000E+01 0. -1.
        -11    1    4    4    0    0  0.11195643804E+02  0.58049395353E+02 -0.91302522586E+02  0.10877143638E+03  0.00000000000E+00 0.  1.
         12    1    4    4    0    0 -0.65317349407E+01  0.96658087073E+02 -0.38045629175E+02  0.10408131080E+03  0.00000000000E+00 0. -1.
         -5    1    5    5    0  502  0.65787131900E+02 -0.12241698078E+03 -0.20131853073E+03  0.24467346550E+03  0.47000000000E+01 0.  1.
         13    1    6    6    0    0  0.33678434547E+02 -0.13569362922E+02 -0.21347310268E+02  0.42119736696E+02  0.00000000000E+00 0. -1.
        -14    1    6    6    0    0 -0.46384921941E+02 -0.44815381975E+01 -0.22194000152E+02  0.51616071245E+02  0.00000000000E+00 0.  1.
</event>
<event>
12    1  0.8449700E-002  0.2492095E+03  0.7818608E-02  0.1114028E+00
         21   -1    0    0  503  502  0.00000000000E+00  0.00000000000E+00  0.17976731339E+03  0.17976731339E+03  0.00000000000E+00 0. -1.
         21   -1    0    0  501  503 -0.00000000000E+00 -0.00000000000E+00 -0.82503956594E+03  0.82503956594E+03  0.00000000000E+00 0. -1.
          6    2    1    2  501    0 -0.73564390001E+02  0.16459695169E+03 -0.70606392121E+03  0.74828983073E+03  0.17002215723E+03 0.  0.
         24    2    3    3    0    0 -0.77514831039E+02  0.18425324261E+03 -0.68995773363E+03  0.72214647525E+03  0.74135356476E+02 0.  0.
         -6    2    1    2    0  502  0.73564390001E+02 -0.16459695169E+03  0.60791668665E+02  0.25651704861E+03  0.17205084500E+03 0.  0.
        -24    2    5    5    0    0  0.32305653826E+02 -0.11835280975E+03  0.10472290939E+03  0.18040628796E+03  0.80799122152E+02 0.  0.
          5    1    3    3  501    0  0.39504410387E+01 -0.19656290919E+02 -0.16106187587E+02  0.26143355478E+02  0.47000000000E+01 0. -1.
        -13    1    4    4    0    0 -0.78652809247E+01 -0.58678038358E+01 -0.20295481574E+02  0.22543299186E+02  0.00000000000E+00 0.  1.
         14    1    4    4    0    0 -0.69649550115E+02  0.19012104644E+03 -0.66966225205E+03  0.69960317606E+03  0.00000000000E+00 0. -1.
         -5    1    5    5    0  502  0.41258736174E+02 -0.46244141941E+02 -0.43931240723E+02  0.76110760645E+02  0.47000000000E+01 0.  1.
         11    1    6    6    0    0  0.11935155665E+02 -0.81441707708E+02  0.18406858985E+02  0.84344603579E+02  0.00000000000E+00 0. -1.
        -12    1    6    6    0    0  0.20370498161E+02 -0.36911102041E+02  0.86316050402E+02  0.96061684382E+02  0.00000000000E+00 0.  1.
</event>
<event>
12    1  0.8449700E-002  0.2220926E+03  0.7818608E-02  0.1132614E+00
         21   -1    0    0  503  502  0.00000000000E+00  0.00000000000E+00  0.51985516658E+02  0.51985516658E+02  0.00000000000E+00 0.  1.
         21   -1    0    0  501  503 -0.00000000000E+00 -0.00000000000E+00 -0.11223985688E+04  0.11223985688E+04  0.00000000000E+00 0.  1.
          6    2    1    2  501    0  0.99623039918E+02 -0.94442086285E+02 -0.29846009447E+03  0.37111793380E+03  0.17264424419E+03 0.  0.
         24    2    3    3    0    0  0.10389608912E+03 -0.95514785801E+01 -0.21365297785E+03  0.25095549685E+03  0.80283487555E+02 0.  0.
         -6    2    1    2    0  502 -0.99623039918E+02  0.94442086285E+02 -0.77195295765E+03  0.80326615163E+03  0.17458832662E+03 0.  0.
        -24    2    5    5    0    0 -0.25883530553E+02  0.75952366991E+01 -0.17246092013E+03  0.19302629422E+03  0.82393789299E+02 0.  0.
          5    1    3    3  501    0 -0.42730492028E+01 -0.84890607705E+02 -0.84807116618E+02  0.12016243695E+03  0.47000000000E+01 0. -1.
        -13    1    4    4    0    0  0.85137170478E+02 -0.20265028502E+02 -0.21192458513E+03  0.22928375206E+03  0.00000000000E+00 0.  1.
         14    1    4    4    0    0  0.18758918643E+02  0.10713549921E+02 -0.17283927233E+01  0.21671744784E+02  0.00000000000E+00 0. -1.
         -5    1    5    5    0  502 -0.73739509366E+02  0.86846849586E+02 -0.59949203752E+03  0.61023985741E+03  0.47000000000E+01 0.  1.
         13    1    6    6    0    0  0.11055546103E+02 -0.29096804339E+02 -0.92608315642E+02  0.97699279672E+02  0.00000000000E+00 0. -1.
        -14    1    6    6    0    0 -0.36939076655E+02  0.36692041038E+02 -0.79852604489E+02  0.95327014552E+02  0.00000000000E+00 0.  1.
</event>
<event>
12    1  0.8449700E-002  0.1794676E+03  0.7818608E-02  0.1168496E+00
         21   -1    0    0  501  502  0.00000000000E+00  0.00000000000E+00  0.70548639315E+02  0.70548639315E+02  0.00000000000E+00 0. -1.
         21   -1    0    0  502  503 -0.00000000000E+00 -0.00000000000E+00 -0.19609133395E+04  0.19609133395E+04  0.00000000000E+00 0. -1.
         -6    2    1    2    0  503 -0.53872582276E+02  0.82923726279E+01 -0.18349480888E+04  0.18436332836E+04  0.17022977825E+03 0.  0.
        -24    2    3    3    0    0 -0.89837536139E+02  0.25140876644E+02 -0.95630509854E+03  0.96408058805E+03  0.78924598080E+02 0.  0.
          6    2    1    2  501    0  0.53872582276E+02 -0.82923726279E+01 -0.55416611395E+02  0.18782869518E+03  0.17099005629E+03 0.  0.
         24    2    5    5    0    0  0.48798359034E+02  0.39910152635E+02 -0.83403147297E+02  0.13166315971E+03  0.80031259623E+02 0.  0.
          5    1    5    5  501    0  0.50742232421E+01 -0.48202525263E+02  0.27986535903E+02  0.56165535474E+02  0.47000000000E+01 0. -1.
        -11    1    6    6    0    0 -0.16316876367E+02 -0.27797426119E+01  0.13096602209E+01  0.16603693362E+02  0.00000000000E+00 0.  1.
         12    1    6    6    0    0  0.65115235401E+02  0.42689895247E+02 -0.84712807518E+02  0.11505946634E+03  0.00000000000E+00 0. -1.
         -5    1    3    3    0  503  0.35964953863E+02 -0.16848504017E+02 -0.87864299022E+03  0.87955269556E+03  0.47000000000E+01 0.  1.
         11    1    4    4    0    0 -0.22162932523E+02  0.20682135598E+02 -0.63364423706E+03  0.63436895059E+03  0.00000000000E+00 0. -1.
        -12    1    4    4    0    0 -0.67674603616E+02  0.44587410462E+01 -0.32266086148E+03  0.32971163746E+03  0.00000000000E+00 0.  1.
</event>
<event>
12    1  0.8449700E-002  0.2601676E+03  0.7818608E-02  0.1107191E+00
         21   -1    0    0  503  502  0.00000000000E+00  0.00000000000E+00  0.68404075754E+02  0.68404075754E+02  0.00000000000E+00 0. -1.
         21   -1    0    0  501  503 -0.00000000000E+00 -0.00000000000E+00 -0.10264908517E+04  0.10264908517E+04  0.00000000000E+00 0. -1.
          6    2    1    2  501    0  0.19223642605E+03 -0.20570549561E+02 -0.58720783602E+03  0.64186250417E+03  0.17261645509E+03 0.  0.
         24    2    3    3    0    0  0.12092774799E+03 -0.79874368024E+02 -0.34449575290E+03  0.38199115957E+03  0.78971433603E+02 0.  0.
         -6    2    1    2    0  502 -0.19223642605E+03  0.20570549561E+02 -0.37087893988E+03  0.45303242323E+03  0.17409536882E+03 0.  0.
        -24    2    5    5    0    0 -0.57217401752E+02 -0.41858957784E+02 -0.12280816666E+03  0.16374229406E+03  0.81876062781E+02 0.  0.
          5    1    3    3  501    0  0.71308678063E+02  0.59303818463E+02 -0.24271208313E+03  0.25987134460E+03  0.47000000000E+01 0. -1.
        -11    1    4    4    0    0  0.21018360243E+02 -0.55088190850E+02 -0.16299636209E+03  0.17333290021E+03  0.00000000000E+00 0.  1.
         12    1    4    4    0    0  0.99909387746E+02 -0.24786177173E+02 -0.18149939080E+03  0.20865825936E+03  0.00000000000E+00 0. -1.
         -5    1    5    5    0  502 -0.13501902430E+03  0.62429507344E+02 -0.24807077322E+03  0.28929012917E+03  0.47000000000E+01 0.  1.
         11    1    6    6    0    0 -0.57052670354E+02  0.26178765564E-01 -0.36284124813E+02  0.67613205761E+02  0.00000000000E+00 0. -1.
        -12    1    6    6    0    0 -0.16473139785E+00 -0.41885136549E+02 -0.86524041848E+02  0.96129088302E+02  0.00000000000E+00 0.  1.
</event>
<event>
12    1  0.8449700E-002  0.3749515E+03  0.7818608E-02  0.1052955E+00
         21   -1    0    0  501  502  0.00000000000E+00  0.00000000000E+00  0.28599567534E+03  0.28599567534E+03  0.00000000000E+00 0.  1.
         21   -1    0    0  502  503 -0.00000000000E+00 -0.00000000000E+00 -0.50977299871E+03  0.50977299871E+03  0.00000000000E+00 0.  1.
         -6    2    1    2    0  503  0.33289206118E+03 -0.13228523251E+02 -0.19118423195E+03  0.42088007766E+03  0.17203636533E+03 0.  0.
        -24    2    3    3    0    0  0.60394709664E+02 -0.18730814780E+02 -0.62523720383E+02  0.11944899261E+03  0.79752629093E+02 0.  0.
          6    2    1    2  501    0 -0.33289206118E+03  0.13228523251E+02 -0.32593091420E+02  0.37488859640E+03  0.16878101752E+03 0.  0.
         24    2    5    5    0    0 -0.33397633286E+03  0.36273455491E+02 -0.15277993301E+02  0.34566280009E+03  0.79958738128E+02 0.  0.
          5    1    5    5  501    0  0.10842716758E+01 -0.23044932240E+02 -0.17315098119E+02  0.29225796309E+02  0.47000000000E+01 0. -1.
        -13    1    6    6    0    0 -0.36871905243E+02 -0.21448316626E+02 -0.10668430207E+01  0.42669729743E+02  0.00000000000E+00 0.  1.
         14    1    6    6    0    0 -0.29710442761E+03  0.57721772117E+02 -0.14211150280E+02  0.30299307034E+03  0.00000000000E+00 0. -1.
         -5    1    3    3    0  503  0.27249735152E+03  0.55022915294E+01 -0.12866051157E+03  0.30143108505E+03  0.47000000000E+01 0.  1.
         13    1    4    4    0    0  0.48300368253E+02 -0.32916721809E+02 -0.76410878220E+02  0.96203214387E+02  0.00000000000E+00 0. -1.
        -14    1    4    4    0    0  0.12094341410E+02  0.14185907029E+02  0.13887157837E+02  0.23245778222E+02  0.00000000000E+00 0.  1.
</event>
<event>
12    1  0.8449700E-002  0.2167639E+03  0.7818608E-02  0.1138275E+00
         21   -1    0    0  503  502  0.00000000000E+00  0.00000000000E+00  0.78734765963E+02  0.78734765963E+02  0.00000000000E+00 0.  1.
         21   -1    0    0  501  503 -0.00000000000E+00 -0.00000000000E+00 -0.11770890620E+04  0.11770890620E+04  0.00000000000E+00 0.  1.
          6    2    1    2  501    0  0.82161417351E+01 -0.13240143547E+03 -0.10065544083E+04  0.10296302081E+04  0.17143203736E+03 0.  0.
         24    2    3    3    0    0 -0.48863771364E+02 -0.33517537744E+02 -0.38149937312E+03  0.39421536036E+03  0.79704988312E+02 0.  0.
         -6    2    1    2    0  502 -0.82161417351E+01  0.13240143547E+03 -0.91799887674E+02  0.22619361982E+03  0.15855185009E+03 0.  0.
        -24    2    5    5    0    0 -0.19659017321E+02  0.37656835711E+02 -0.93955949125E+02  0.13062052116E+03  0.80184075315E+02 0.  0.
          5    1    3    3  501    0  0.57079913099E+02 -0.98883897729E+02 -0.62505503522E+03  0.63541484776E+03  0.47000000000E+01 0. -1.
        -13    1    4    4    0    0 -0.40514114852E+02 -0.53555889292E+02 -0.34711830737E+03  0.35355444572E+03  0.00000000000E+00 0.  1.
         14    1    4    4    0    0 -0.83496565118E+01  0.20038351549E+02 -0.34381065753E+02  0.40660914635E+02  0.00000000000E+00 0. -1.
         -5    1    5    5    0  502  0.11442875586E+02  0.94744599763E+02  0.21560614507E+01  0.95573098657E+02  0.47000000000E+01 0.  1.
         13    1    6    6    0    0  0.26072073695E+02  0.28656054167E+02 -0.21054482234E+02  0.44093238590E+02  0.00000000000E+00 0. -1.
        -14    1    6    6    0    0 -0.45731091017E+02  0.90007815437E+01 -0.72901466891E+02  0.86527282569E+02  0.00000000000E+00 0.  1.
</event>
<event>
12    1  0.8449700E-002  0.2166572E+03  0.7818608E-02  0.1136485E+00
         21   -1    0    0  501  502  0.00000000000E+00  0.00000000000E+00  0.26710203678E+02  0.26710203678E+02  0.00000000000E+00 0. -1.
         21   -1    0    0  502  503 -0.00000000000E+00 -0.00000000000E+00 -0.22467739599E+04  0.22467739599E+04  0.00000000000E+00 0. -1.
         -6    2    1    2    0  503  0.72405522172E+02  0.10951352519E+03 -0.16416252085E+04  0.16558017905E+04  0.17178612486E+03 0.  0.
        -24    2    3    3    0    0  0.32538037987E+02  0.12797745660E+03 -0.14891760129E+04  0.14970781935E+04  0.78491824421E+02 0.  0.
          6    2    1    2  501    0 -0.72405522172E+02 -0.10951352519E+03 -0.57843854778E+03  0.61768237305E+03  0.17235019169E+03 0.  0.
         24    2    5    5    0    0  0.54785802565E+01 -0.51352100308E+01 -0.29136041396E+03  0.30240993371E+03  0.80650430639E+02 0.  0.
          5    1    5    5  501    0 -0.77884102429E+02 -0.10437831516E+03 -0.28707813382E+03  0.31527243934E+03  0.47000000000E+01 0. -1.
        -13    1    6    6    0    0  0.16732260515E+02  0.85922911271E+01 -0.11625038599E+02  0.22111931874E+02  0.00000000000E+00 0.  1.
         14    1    6    6    0    0 -0.11253680258E+02 -0.13727501158E+02 -0.27973537536E+03  0.28029800184E+03  0.00000000000E+00 0. -1.
         -5    1    3    3    0  503  0.39867484185E+02 -0.18463931414E+02 -0.15244919552E+03  0.15872359709E+03  0.47000000000E+01 0.  1.
         13    1    4    4    0    0 -0.11602438663E+02  0.67580098569E+02 -0.44787183467E+03  0.45309035147E+03  0.00000000000E+00 0. -1.
        -14    1    4    4    0    0  0.44140476650E+02  0.60397358031E+02 -0.10413041783E+04  0.10439878420E+04  0.00000000000E+00 0.  1.
</event>
<event>
12    1  0.8449700E-002  0.1913589E+03  0.7818608E-02  0.1157356E+00
         21   -1    0    0  501  502  0.00000000000E+00  0.00000000000E+00  0.46000389057E+03  0.46000389057E+03  0.00000000000E+00 0. -1.
         21   -1    0    0  502  503 -0.00000000000E+00 -0.00000000000E+00 -0.10124729388E+04  0.10124729388E+04  0.00000000000E+00 0. -1.
         -6    2    1    2    0  503  0.83260347207E+02 -0.72326424512E+01 -0.98304710653E+03  0.10014987910E+04  0.17214417832E+03 0.  0.
        -24    2    3    3    0    0 -0.22231503681E+02 -0.37942095813E+01 -0.35582698684E+03  0.36544256549E+03  0.80167252234E+02 0.  0.
          6    2    1    2  501    0 -0.83260347207E+02  0.72326424512E+01  0.43057805833E+03  0.47097803836E+03  0.17157579017E+03 0.  0.
         24    2    5    5    0    0  0.88775464021E+01 -0.22334348790E+02  0.12041565442E+03  0.14603742039E+03  0.79052921256E+02 0.  0.
          5    1    5    5  501    0 -0.92137893609E+02  0.29566991241E+02  0.31016240391E+03  0.32494061798E+03  0.47000000000E+01 0. -1.
        -11    1    6    6    0    0 -0.28141023456E+02 -0.31081301757E+02  0.44594433129E+02  0.61209705000E+02  0.00000000000E+00 0.  1.
         12    1    6    6    0    0  0.37018569858E+02  0.87469529673E+01  0.75821221287E+02  0.84827715388E+02  0.00000000000E+00 0. -1.
         -5    1    3    3    0  503  0.10549185089E+03 -0.34384328699E+01 -0.62722011969E+03  0.63605622548E+03  0.47000000000E+01 0.  1.
         13    1    4    4    0    0  0.19069689806E+00 -0.35402218305E+02 -0.88454393485E+02  0.95276089094E+02  0.00000000000E+00 0. -1.
        -14    1    4    4    0    0 -0.22422200579E+02  0.31608008724E+02 -0.26737259335E+03  0.27016647640E+03  0.00000000000E+00 0.  1.
</event>
<event>
12    1  0.8449700E-002  0.2661270E+03  0.7818608E-02  0.1103584E+00
         21   -1    0    0  501  502  0.00000000000E+00  0.00000000000E+00  0.15369902638E+03  0.15369902638E+03  0.00000000000E+00 0.  1.
         21   -1    0    0  502  503 -0.00000000000E+00 -0.00000000000E+00 -0.46702097891E+03  0.46702097891E+03  0.00000000000E+00 0.  1.
         -6    2    1    2    0  503 -0.11330116428E+03 -0.16880359276E+03 -0.19484277304E+03  0.32982915192E+03  0.17173164092E+03 0.  0.
        -24    2    3    3    0    0 -0.15511399783E+02 -0.13070724944E+03 -0.15339180224E+03  0.21689358447E+03  0.78668884643E+02 0.  0.
          6    2    1    2  501    0  0.11330116428E+03  0.16880359276E+03 -0.11847917950E+03  0.29089085338E+03  0.17102153621E+03 0.  0.
         24    2    5    5    0    0  0.12846920658E+03  0.14479719022E+03 -0.47621037675E+02  0.21440985487E+03  0.78950993027E+02 0.  0.
          5    1    5    5  501    0 -0.15168042304E+02  0.24006402541E+02 -0.70858141824E+02  0.76480998510E+02  0.47000000000E+01 0. -1.
        -11    1    6    6    0    0  0.79022833717E+02  0.48157758565E+02 -0.51269506941E+02  0.10579385757E+03  0.00000000000E+00 0.  1.
         12    1    6    6    0    0  0.49446372866E+02  0.96639431652E+02  0.36484692666E+01  0.10861599729E+03  0.00000000000E+00 0. -1.
         -5    1    3    3    0  503 -0.97789764496E+02 -0.38096343313E+02 -0.41450970801E+02  0.11293556745E+03  0.47000000000E+01 0.  1.
         11    1    4    4    0    0 -0.25823418632E+02 -0.11329242797E+02 -0.97521329185E+01  0.29837975613E+02  0.00000000000E+00 0. -1.
        -12    1    4    4    0    0  0.10312018849E+02 -0.11937800665E+03 -0.14363966932E+03  0.18705560886E+03  0.00000000000E+00 0.  1.
</event>
<event>
12    1  0.8449700E-002  0.2413848E+03  0.7818608E-02  0.1119071E+00
         21   -1    0    0  501  502  0.00000000000E+00  0.00000000000E+00  0.52006546691E+03  0.52006546691E+03  0.00000000000E+00 0. -1.
         21   -1    0    0  502  503 -0.00000000000E+00 -0.00000000000E+00 -0.12538730022E+03  0.12538730022E+03  0.00000000000E+00 0. -1.
         -6    2    1    2    0  503  0.15507368337E+03 -0.67344067660E+02  0.30436566826E+03  0.38772625060E+03  0.17061686511E+03 0.  0.
        -24    2    3    3    0    0  0.10993022626E+03 -0.28839313808E+01  0.26851042180E+03  0.30111949804E+03  0.80511699659E+02 0.  0.
          6    2    1    2  501    0 -0.15507368337E+03  0.67344067660E+02  0.90312498423E+02  0.25772651654E+03  0.17228911525E+03 0.  0.
         24    2    5    5    0    0 -0.16531453134E+02  0.63462350814E+02  0.38753460497E+02  0.10977570824E+03  0.79045028348E+02 0.  0.
          5    1    5    5  501    0 -0.13854223023E+03  0.38817168462E+01  0.51559037925E+02  0.14795080830E+03  0.47000000000E+01 0. -1.
        -11    1    6    6    0    0  0.69276552894E+01  0.74154007926E+02  0.17851759578E+02  0.76586517216E+02  0.00000000000E+00 0.  1.
         12    1    6    6    0    0 -0.23459108423E+02 -0.10691657112E+02  0.20901700919E+02  0.33189191028E+02  0.00000000000E+00 0. -1.
         -5    1    3    3    0  503  0.45143457107E+02 -0.64460136279E+02  0.35855246468E+02  0.86606752554E+02  0.47000000000E+01 0.  1.
         11    1    4    4    0    0 -0.31726942444E+01  0.16765808077E+02  0.67647207510E+02  0.69766059034E+02  0.00000000000E+00 0. -1.
        -12    1    4    4    0    0  0.11310292050E+03 -0.19649739457E+02  0.20086321429E+03  0.23135343901E+03  0.00000000000E+00 0.  1.
</event>
<event>
12    1  0.8449700E-002  0.1741844E+03  0.7818608E-02  0.1174519E+00
         21   -1    0    0  503  502  0.00000000000E+00  0.00000000000E+00  0.18252607664E+03  0.18252607664E+03  0.00000000000E+00 0.  1.
         21   -1    0    0  501  503 -0.00000000000E+00 -0.00000000000E+00 -0.37464642922E+03  0.37464642922E+03  0.00000000000E+00 0.  1.
          6    2    1    2  501    0  0.30465081733E+02  0.79302060420E+01 -0.30516587207E+03  0.34952012891E+03  0.16747268931E+03 0.  0.
         24    2    3    3    0    0  0.31717973972E+02  0.17728375915E+02 -0.32164694975E+03  0.32973908259E+03  0.62855207569E+02 0.  0.
         -6    2    1    2    0  502 -0.30465081733E+02 -0.79302060420E+01  0.11304551948E+03  0.20765237695E+03  0.17131611367E+03 0.  0.
        -24    2    5    5    0    0 -0.35920656136E+02 -0.70803850597E+02  0.69497985418E+02  0.13083222208E+03  0.77353872299E+02 0.  0.
          5    1    3    3  501    0 -0.12528922390E+01 -0.97981698728E+01  0.16481077684E+02  0.19781046318E+02  0.47000000000E+01 0. -1.
        -13    1    4    4    0    0 -0.24553784062E+01 -0.20642898650E+02 -0.77182255737E+02  0.79932838987E+02  0.00000000000E+00 0.  1.
         14    1    4    4    0    0  0.34173352378E+02  0.38371274565E+02 -0.24446469401E+03  0.24980624360E+03  0.00000000000E+00 0. -1.
         -5    1    5    5    0  502  0.54555744027E+01  0.62873644555E+02  0.43547534063E+02  0.76820154872E+02  0.47000000000E+01 0.  1.
         11    1    6    6    0    0 -0.10829926874E+02  0.13158957482E+00 -0.14476635763E+02  0.18079757049E+02  0.00000000000E+00 0. -1.
        -12    1    6    6    0    0 -0.25090729261E+02 -0.70935440171E+02  0.83974621181E+02  0.11275246503E+03  0.00000000000E+00 0.  1.
</event>
<event>
12    1  0.8449700E-002  0.2617418E+03  0.7818608E-02  0.1106321E+00
         21   -1    0    0  503  502  0.00000000000E+00  0.00000000000E+00  0.13154290354E+03  0.13154290354E+03  0.00000000000E+00 0.  1.
         21   -1    0    0  501  503 -0.00000000000E+00 -0.00000000000E+00 -0.73215801582E+03  0.73215801582E+03  0.00000000000E+00 0.  1.
          6    2    1    2  501    0  0.18671844993E+03 -0.62845598287E+02 -0.53333199295E+03  0.59344953890E+03  0.17007642912E+03 0.  0.
         24    2    3    3    0    0  0.44966152472E+02 -0.72582867859E+01 -0.30732858702E+03  0.32089992409E+03  0.80319756541E+02 0.  0.
         -6    2    1    2    0  502 -0.18671844993E+03  0.62845598287E+02 -0.67283119330E+02  0.27025138046E+03  0.17232365399E+03 0.  0.
        -24    2    5    5    0    0 -0.18841583442E+03  0.93416084581E+02 -0.40659839279E+02  0.22940624872E+03  0.82139594018E+02 0.  0.
          5    1    3    3  501    0  0.14175229746E+03 -0.55587311501E+02 -0.22600340594E+03  0.27254961480E+03  0.47000000000E+01 0. -1.
        -11    1    4    4    0    0  0.59807170262E+02  0.21369100014E+01 -0.13489635541E+03  0.14757537295E+03  0.00000000000E+00 0.  1.
         12    1    4    4    0    0 -0.14841017791E+02 -0.93951967873E+01 -0.17243223160E+03  0.17332455114E+03  0.00000000000E+00 0. -1.
         -5    1    5    5    0  502  0.16973844806E+01 -0.30570486294E+02 -0.26623280051E+02  0.40845131742E+02  0.47000000000E+01 0.  1.
         13    1    6    6    0    0 -0.17135375749E+02  0.32011051687E+01  0.20007512659E+02  0.26536177931E+02  0.00000000000E+00 0. -1.
        -14    1    6    6    0    0 -0.17128045867E+03  0.90214979412E+02 -0.60667351939E+02  0.20287007079E+03  0.00000000000E+00 0.  1.
</event>
<event>
12    1  0.8449700E-002  0.2026295E+03  0.7818608E-02  0.1147954E+00
         21   -1    0    0  501  502  0.00000000000E+00  0.00000000000E+00  0.12669825116E+03  0.12669825116E+03  0.00000000000E+00 0. -1.
         21   -1    0    0  502  503 -0.00000000000E+00 -0.00000000000E+00 -0.33206224619E+03  0.33206224619E+03  0.00000000000E+00 0. -1.
         -6    2    1    2    0  503 -0.97912545171E+02  0.31239398332E+02 -0.14524299353E+03  0.24930751121E+03  0.17463087203E+03 0.  0.
        -24    2    3    3    0    0 -0.12838785018E+03  0.37337669895E+02 -0.77592753537E+02  0.17471141142E+03  0.81399632750E+02 0.  0.
          6    2    1    2  501    0  0.97912545171E+02 -0.31239398332E+02 -0.60121001501E+02  0.20945298614E+03  0.17231730056E+03 0.  0.
         24    2    5    5    0    0  0.51309436187E+02 -0.85578134295E+02 -0.39781770702E+02  0.13488541744E+03  0.81579478094E+02 0.  0.
          5    1    5    5  501    0  0.46603108983E+02  0.54338735963E+02 -0.20339230800E+02  0.74567568704E+02  0.47000000000E+01 0. -1.
        -11    1    6    6    0    0  0.40473136814E+01 -0.32788903119E+02 -0.53342220029E+02  0.62744604178E+02  0.00000000000E+00 0.  1.
         12    1    6    6    0    0  0.47262122506E+02 -0.52789231176E+02  0.13560449327E+02  0.72140813260E+02  0.00000000000E+00 0. -1.
         -5    1    3    3    0  503  0.30475305013E+02 -0.60982715637E+01 -0.67650239994E+02  0.74596099784E+02  0.47000000000E+01 0.  1.
         13    1    4    4    0    0 -0.78470412897E+02 -0.60869622419E+01 -0.74660273509E+02  0.10848416129E+03  0.00000000000E+00 0. -1.
        -14    1    4    4    0    0 -0.49917437286E+02  0.43424632137E+02 -0.29324800281E+01  0.66227250136E+02  0.00000000000E+00 0.  1.
</event>
<event>
12    1  0.8449700E-002  0.2099865E+03  0.7818608E-02  0.1141870E+00
         21   -1    0    0  501  502  0.00000000000E+00  0.00000000000E+00  0.44965446095E+02  0.44965446095E+02  0.00000000000E+00 0. -1.
         21   -1    0    0  502  503 -0.00000000000E+00 -0.00000000000E+00 -0.12324882037E+04  0.12324882037E+04  0.00000000000E+00 0.  1.
         -6    2    1    2    0  503 -0.64504474802E+02 -0.10177990236E+03 -0.88806359437E+03  0.91255206367E+03  0.17197193219E+03 0.  0.
        -24    2    3    3    0    0 -0.50873065297E+00 -0.20070417737E+00 -0.47546084316E+03  0.48281155001E+03  0.83926636736E+02 0.  0.
          6    2    1    2  501    0  0.64504474802E+02  0.10177990236E+03 -0.29945916328E+03  0.36490158618E+03  0.17016874368E+03 0.  0.
         24    2    5    5    0    0  0.95365692924E+02  0.11915044063E+03 -0.26545655100E+03  0.31558203604E+03  0.76376685674E+02 0.  0.
          5    1    5    5  501    0 -0.30861218121E+02 -0.17370538265E+02 -0.34002612284E+02  0.49319550137E+02  0.47000000000E+01 0. -1.
        -11    1    6    6    0    0  0.38916149514E+02  0.29554437860E+01 -0.86242066223E+02  0.94662005723E+02  0.00000000000E+00 0.  1.
         12    1    6    6    0    0  0.56449543409E+02  0.11619499684E+03 -0.17921448478E+03  0.22092003032E+03  0.00000000000E+00 0. -1.
         -5    1    3    3    0  503 -0.63995744149E+02 -0.10157919818E+03 -0.41260275121E+03  0.42974051366E+03  0.47000000000E+01 0.  1.
         13    1    4    4    0    0 -0.21581239774E+02  0.10653680976E+02 -0.43680013918E+03  0.43746269831E+03  0.00000000000E+00 0. -1.
        -14    1    4    4    0    0  0.21072509121E+02 -0.10854385154E+02 -0.38660703978E+02  0.45348851692E+02  0.00000000000E+00 0.  1.
</event>
<event>
12    1  0.8449700E-002  0.2064679E+03  0.7818608E-02  0.1144527E+00
         21   -1    0    0  503  502  0.00000000000E+00  0.00000000000E+00  0.22632399068E+04  0.22632399068E+04  0.00000000000E+00 0.  1.
         21   -1    0    0  501  503 -0.00000000000E+00 -0.00000000000E+00 -0.20366706451E+02  0.20366706451E+02  0.00000000000E+00 0.  1.
          6    2    1    2  501    0  0.62956841506E+02  0.92605305962E+02  0.80392489045E+03  0.83001460030E+03  0.17346383094E+03 0.  0.
         24    2    3    3    0    0  0.48708453609E+02  0.45113322819E+02  0.21714560808E+03  0.24112537368E+03  0.81126477624E+02 0.  0.
         -6    2    1    2    0  502 -0.62956841506E+02 -0.92605305962E+02  0.14389483099E+04  0.14535920129E+04  0.17267945728E+03 0.  0.
        -24    2    5    5    0    0 -0.24625468105E+02 -0.12499185187E+03  0.91745111813E+03  0.92966492492E+03  0.79567215397E+02 0.  0.
          5    1    3    3  501    0  0.14248387897E+02  0.47491983143E+02  0.58677928237E+03  0.58888922663E+03  0.47000000000E+01 0. -1.
        -11    1    4    4    0    0  0.35375823229E+02  0.73050570162E+01  0.22863078060E+02  0.42749655736E+02  0.00000000000E+00 0.  1.
         12    1    4    4    0    0  0.13332630379E+02  0.37808265803E+02  0.19428253002E+03  0.19837571794E+03  0.00000000000E+00 0. -1.
         -5    1    5    5    0  502 -0.38331373401E+02  0.32386545911E+02  0.52149719174E+03  0.52392708800E+03  0.47000000000E+01 0.  1.
         13    1    6    6    0    0 -0.12250950538E+02 -0.18096481338E+02  0.39487827641E+02  0.45131551687E+02  0.00000000000E+00 0. -1.
        -14    1    6    6    0    0 -0.12374517566E+02 -0.10689537053E+03  0.87796329049E+03  0.88453337324E+03  0.00000000000E+00 0.  1.
</event>
<event>
12    1  0.8449700E-002  0.1861907E+03  0.7818608E-02  0.1161978E+00
         21   -1    0    0  501  502  0.00000000000E+00  0.00000000000E+00  0.77407198579E+03  0.77407198579E+03  0.00000000000E+00 0. -1.
         21   -1    0    0  502  503 -0.00000000000E+00 -0.00000000000E+00 -0.53673759061E+02  0.53673759061E+02  0.00000000000E+00 0. -1.
         -6    2    1    2    0  503  0.67493192639E+02  0.21484022708E+02  0.19155206551E+03  0.26713134495E+03  0.17219194920E+03 0.  0.
        -24    2    3    3    0    0  0.65236047897E+02 -0.30746896185E+02  0.18540741515E+03  0.21428240628E+03  0.79623655247E+02 0.  0.
          6    2    1    2  501    0 -0.67493192639E+02 -0.21484022708E+02  0.52884616122E+03  0.56061439990E+03  0.17202717477E+03 0.  0.
         24    2    5    5    0    0 -0.10379976331E+03  0.53006687238E+01  0.46085815094E+03  0.47888284962E+03  0.78333009793E+02 0.  0.
          5    1    5    5  501    0  0.36306570675E+02 -0.26784691432E+02  0.67988010277E+02  0.81731550278E+02  0.47000000000E+01 0. -1.
        -11    1    6    6    0    0 -0.26844516386E+02 -0.97190052415E+00  0.29172980672E+03  0.29296391037E+03  0.00000000000E+00 0.  1.
         12    1    6    6    0    0 -0.76955246927E+02  0.62725692479E+01  0.16912834422E+03  0.18591893926E+03  0.00000000000E+00 0. -1.
         -5    1    3    3    0  503  0.22571447420E+01  0.52230918893E+02  0.61446503555E+01  0.52848938673E+02  0.47000000000E+01 0.  1.
         11    1    4    4    0    0 -0.55181417485E+01  0.13336897196E+02  0.45445686451E+01  0.15131946978E+02  0.00000000000E+00 0. -1.
        -12    1    4    4    0    0  0.70754189645E+02 -0.44083793381E+02  0.18086284651E+03  0.19915045930E+03  0.00000000000E+00 0.  1.
</event>
<event>
12    1  0.8449700E-002  0.1763983E+03  0.7818608E-02  0.1171618E+00
         21   -1    0    0  501  502  0.00000000000E+00  0.00000000000E+00  0.12169523370E+03  0.12169523370E+03  0.00000000000E+00 0. -1.
         21   -1    0    0  502  503 -0.00000000000E+00 -0.00000000000E+00 -0.27733286532E+03  0.27733286532E+03  0.00000000000E+00 0. -1.
         -6    2    1    2    0  503  0.13454961752E+02 -0.29829095909E+02 -0.13539754026E+03  0.22147237978E+03  0.17218220041E+03 0.  0.
        -24    2    3    3    0    0 -0.52654825738E+02  0.12015795525E+01 -0.51563434270E+02  0.11019051176E+03  0.81909624962E+02 0.  0.
          6    2    1    2  501    0 -0.13454961752E+02  0.29829095909E+02 -0.20240091352E+02  0.17755571924E+03  0.17333655465E+03 0.  0.
         24    2    5    5    0    0  0.78729791255E+01  0.27638589732E+02 -0.78729379616E+02  0.11508359569E+03  0.78867251371E+02 0.  0.
          5    1    5    5  501    0 -0.21327940877E+02  0.21905061770E+01  0.58489288263E+02  0.62472123551E+02  0.47000000000E+01 0. -1.
        -13    1    6    6    0    0  0.20464007517E+02  0.11051142326E+02  0.89838174797E+01  0.24932154477E+02  0.00000000000E+00 0.  1.
         14    1    6    6    0    0 -0.12591028392E+02  0.16587447406E+02 -0.87713197095E+02  0.90151441209E+02  0.00000000000E+00 0. -1.
         -5    1    3    3    0  503  0.66109787490E+02 -0.31030675461E+02 -0.83834105994E+02  0.11128186802E+03  0.47000000000E+01 0.  1.
         11    1    4    4    0    0 -0.51513044797E+02 -0.12811873687E+02 -0.69466717520E+02  0.87426327468E+02  0.00000000000E+00 0. -1.
        -12    1    4    4    0    0 -0.11417809413E+01  0.14013453239E+02  0.17903283250E+02  0.22764184293E+02  0.00000000000E+00 0.  1.
</event>
<event>
12    1  0.8449700E-002  0.2227613E+03  0.7818608E-02  0.1131923E+00
         21   -1    0    0  501  502  0.00000000000E+00  0.00000000000E+00  0.38945101735E+03  0.38945101735E+03  0.00000000000E+00 0.  1.
         21   -1    0    0  502  503 -0.00000000000E+00 -0.00000000000E+00 -0.27394312418E+03  0.27394312418E+03  0.00000000000E+00 0. -1.
         -6    2    1    2    0  503 -0.70137480232E+02 -0.12281714274E+03 -0.18501896456E+03  0.28957660026E+03  0.17210250867E+03 0.  0.
        -24    2    3    3    0    0 -0.44459067018E+02  0.55301880961E+01 -0.61056371138E+02  0.10924015690E+03  0.78729535773E+02 0.  0.
          6    2    1    2  501    0  0.70137480232E+02  0.12281714274E+03  0.30052685773E+03  0.37381754127E+03  0.17152214218E+03 0.  0.
         24    2    5    5    0    0 -0.51522395456E+01  0.11417631959E+03  0.23660832085E+03  0.27456596654E+03  0.79625341186E+02 0.  0.
          5    1    5    5  501    0  0.75289719777E+02  0.86408231473E+01  0.63918536885E+02  0.99251574729E+02  0.47000000000E+01 0. -1.
        -13    1    6    6    0    0 -0.69979031725E+01  0.80954322651E+02  0.78454369518E+02  0.11294981674E+03  0.00000000000E+00 0.  1.
         14    1    6    6    0    0  0.18456636269E+01  0.33221996937E+02  0.15815395133E+03  0.16161614980E+03  0.00000000000E+00 0. -1.
         -5    1    3    3    0  503 -0.25678413214E+02 -0.12834733083E+03 -0.12396259342E+03  0.18033644336E+03  0.47000000000E+01 0.  1.
         11    1    4    4    0    0  0.13053008416E+02 -0.22452061382E+02 -0.23773226944E+02  0.35208555897E+02  0.00000000000E+00 0. -1.
        -12    1    4    4    0    0 -0.57512075433E+02  0.27982249478E+02 -0.37283144194E+02  0.74031601006E+02  0.00000000000E+00 0.  1.
</event>
<event>
12    1  0.8449700E-002  0.2256859E+03  0.7818608E-02  0.1129716E+00
         21   -1    0    0  501  502  0.00000000000E+00  0.00000000000E+00  0.11596798181E+04  0.11596798181E+04  0.00000000000E+00 0.  1.
         21   -1    0    0  502  503 -0.00000000000E+00 -0.00000000000E+00 -0.80286322065E+02  0.80286322065E+02  0.00000000000E+00 0.  1.
         -6    2    1    2    0  503  0.39503961843E+02 -0.14110762828E+03  0.12241150104E+03  0.25673237119E+03  0.17162461674E+03 0.  0.
        -24    2    3    3    0    0  0.84340979557E+02 -0.12672648838E+03  0.73084423304E+02  0.18837722552E+03  0.83496362042E+02 0.  0.
          6    2    1    2  501    0 -0.39503961843E+02  0.14110762828E+03  0.95698199501E+03  0.98323376898E+03  0.17164550662E+03 0.  0.
         24    2    5    5    0    0 -0.89424962463E+01  0.10888578447E+03  0.90763350120E+03  0.91667842180E+03  0.67562372594E+02 0.  0.
          5    1    5    5  501    0 -0.30561465596E+02  0.32221843808E+02  0.49348493802E+02  0.66555347181E+02  0.47000000000E+01 0. -1.
        -11    1    6    6    0    0 -0.14458313957E+02 -0.26907585903E+01  0.63257128875E+02  0.64944186636E+02  0.00000000000E+00 0.  1.
         12    1    6    6    0    0  0.55158177109E+01  0.11157654306E+03  0.84437637233E+03  0.85173423517E+03  0.00000000000E+00 0. -1.
         -5    1    3    3    0  503 -0.44837017715E+02 -0.14381139901E+02  0.49327077734E+02  0.68355145674E+02  0.47000000000E+01 0.  1.
         11    1    4    4    0    0  0.59930389911E+02 -0.25848910815E+02  0.77242319084E+01  0.65722763057E+02  0.00000000000E+00 0. -1.
        -12    1    4    4    0    0  0.24410589646E+02 -0.10087757757E+03  0.65360191395E+02  0.12265446246E+03  0.00000000000E+00 0.  1.
</event>
<event>
12    1  0.8449700E-002  0.2026510E+03  0.7818608E-02  0.1148364E+00
         21   -1    0    0  503  502  0.00000000000E+00  0.00000000000E+00  0.95981323369E+02  0.95981323369E+02  0.00000000000E+00 0.  1.
         21   -1    0    0  501  503 -0.00000000000E+00 -0.00000000000E+00 -0.57119418903E+03  0.57119418903E+03  0.00000000000E+00 0. -1.
          6    2    1    2  501    0 -0.33414575235E+01 -0.99861909107E+02 -0.41130302606E+03  0.45851674202E+03  0.17630614633E+03 0.  0.
         24    2    3    3    0    0 -0.16482936296E+02  0.18468592765E+02 -0.17483671460E+03  0.19372774566E+03  0.79685547978E+02 0.  0.
         -6    2    1    2    0  502  0.33414575235E+01  0.99861909107E+02 -0.63909839593E+02  0.20865877038E+03  0.17166959145E+03 0.  0.
        -24    2    5    5    0    0 -0.64680930386E+01  0.36533263554E+02  0.30219756572E+02  0.94688530822E+02  0.81707824647E+02 0.  0.
          5    1    3    3  501    0  0.13141478772E+02 -0.11833050187E+03 -0.23646631146E+03  0.26478899636E+03  0.47000000000E+01 0. -1.
        -13    1    4    4    0    0  0.25812437952E+02  0.95643167516E+01 -0.23039064523E+02  0.35896470607E+02  0.00000000000E+00 0.  1.
         14    1    4    4    0    0 -0.42295374248E+02  0.89042760135E+01 -0.15179765008E+03  0.15783127505E+03  0.00000000000E+00 0. -1.
         -5    1    5    5    0  502  0.98095505621E+01  0.63328645553E+02 -0.94129596165E+02  0.11397023955E+03  0.47000000000E+01 0.  1.
         11    1    6    6    0    0 -0.17743768673E+02 -0.37924801369E+01 -0.21506720045E+02  0.28138287784E+02  0.00000000000E+00 0. -1.
        -12    1    6    6    0    0  0.11275675635E+02  0.40325743691E+02  0.51726476617E+02  0.66550243039E+02  0.00000000000E+00 0.  1.
</event>
<event>
12    1  0.8449700E-002  0.2015711E+03  0.7818608E-02  0.1148711E+00
         21   -1    0    0  503  502  0.00000000000E+00  0.00000000000E+00  0.94529673581E+02  0.94529673581E+02  0.00000000000E+00 0.  1.
         21   -1    0    0  501  503 -0.00000000000E+00 -0.00000000000E+00 -0.57184257397E+03  0.57184257397E+03  0.00000000000E+00 0.  1.
          6    2    1    2  501    0  0.48678401116E+01  0.10256311410E+03 -0.40703062516E+03  0.45420791205E+03  0.17345895571E+03 0.  0.
         24    2    3    3    0    0  0.47759163569E+02  0.58571129669E+02 -0.36044222008E+03  0.37695812365E+03  0.80419637080E+02 0.  0.
         -6    2    1    2    0  502 -0.48678401116E+01 -0.10256311410E+03 -0.70282275234E+02  0.21216433550E+03  0.17184649780E+03 0.  0.
        -24    2    5    5    0    0 -0.23624814284E+02 -0.63922242707E+02 -0.11141095919E+03  0.15251033592E+03  0.78757956885E+02 0.  0.
          5    1    3    3  501    0 -0.42891323457E+02  0.43991984429E+02 -0.46588405074E+02  0.77249788409E+02  0.47000000000E+01 0. -1.
        -11    1    4    4    0    0  0.57964539000E+02  0.25177908781E+02 -0.13787513450E+03  0.15166861107E+03  0.00000000000E+00 0.  1.
         12    1    4    4    0    0 -0.10205375431E+02  0.33393220887E+02 -0.22256708559E+03  0.22528951257E+03  0.00000000000E+00 0. -1.
         -5    1    5    5    0  502  0.18756974173E+02 -0.38640871391E+02  0.41128683955E+02  0.59653999579E+02  0.47000000000E+01 0.  1.
         13    1    6    6    0    0  0.26859293115E+02 -0.97877541476E+01 -0.43520968494E+02  0.52070110971E+02  0.00000000000E+00 0. -1.
        -14    1    6    6    0    0 -0.50484107399E+02 -0.54134488559E+02 -0.67889990694E+02  0.10044022495E+03  0.00000000000E+00 0.  1.
</event>
<event>
12    1  0.8449700E-002  0.1939083E+03  0.7818608E-02  0.1155318E+00
         21   -1    0    0  503  502  0.00000000000E+00  0.00000000000E+00  0.53867046244E+02  0.53867046244E+02  0.00000000000E+00 0. -1.
         21   -1    0    0  501  503 -0.00000000000E+00 -0.00000000000E+00 -0.10429463515E+04  0.10429463515E+04  0.00000000000E+00 0. -1.
          6    2    1    2  501    0 -0.30815242170E+02  0.83764000662E+02 -0.81369467929E+03  0.83648040639E+03  0.17214660094E+03 0.  0.
         24    2    3    3    0    0 -0.23235422635E+02  0.46168916159E+02 -0.20864908291E+03  0.23020232849E+03  0.82384577198E+02 0.  0.
         -6    2    1    2    0  502  0.30815242170E+02 -0.83764000662E+02 -0.17538462598E+03  0.26033299136E+03  0.17043330779E+03 0.  0.
        -24    2    5    5    0    0 -0.17631848310E+01  0.17309472129E+02 -0.51536273641E+02  0.97122375334E+02  0.80461429539E+02 0.  0.
          5    1    3    3  501    0 -0.75798195356E+01  0.37595084504E+02 -0.60504559637E+03  0.60627807789E+03  0.47000000000E+01 0. -1.
        -13    1    4    4    0    0  0.24472958614E+02  0.21087300373E+01 -0.23500402870E+02  0.33994725778E+02  0.00000000000E+00 0.  1.
         14    1    4    4    0    0 -0.47708381249E+02  0.44060186121E+02 -0.18514868004E+03  0.19620760272E+03  0.00000000000E+00 0. -1.
         -5    1    5    5    0  502  0.32578427001E+02 -0.10107347279E+03 -0.12384835233E+03  0.16321061603E+03  0.47000000000E+01 0.  1.
         11    1    6    6    0    0  0.13243025646E+02 -0.29486587007E+02 -0.13728621709E+02  0.35118536354E+02  0.00000000000E+00 0. -1.
        -12    1    6    6    0    0 -0.15006210477E+02  0.46796059137E+02 -0.37807651932E+02  0.62003838980E+02  0.00000000000E+00 0.  1.
</event>
<event>
12    1  0.8449700E-002  0.2057175E+03  0.7818608E-02  0.1145094E+00
         21   -1    0    0  501  502  0.00000000000E+00  0.00000000000E+00  0.69553604472E+02  0.69553604472E+02  0.00000000000E+00 0.  1.
         21   -1    0    0  502  503 -0.00000000000E+00 -0.00000000000E+00 -0.61868955993E+03  0.61868955993E+03  0.00000000000E+00 0.  1.
         -6    2    1    2    0  503 -0.10722030696E+03 -0.28944387077E+02 -0.22782172741E+03  0.30695672518E+03  0.17316385271E+03 0.  0.
        -24    2    3    3    0    0 -0.11361188742E+03 -0.26478142397E+02 -0.87687725014E+02  0.16657665790E+03  0.80311224923E+02 0.  0.
          6    2    1    2  501    0  0.10722030696E+03  0.28944387077E+02 -0.32131422805E+03  0.38128643922E+03  0.17263413283E+03 0.  0.
         24    2    5    5    0    0  0.43559106645E+02  0.77752161060E+02 -0.14746874853E+03  0.18976806419E+03  0.79511584508E+02 0.  0.
          5    1    5    5  501    0  0.63661200318E+02 -0.48807773983E+02 -0.17384547952E+03  0.19151837504E+03  0.47000000000E+01 0. -1.
        -13    1    6    6    0    0  0.29458467837E+01  0.54116008415E+02 -0.27186384282E+02  0.60632663395E+02  0.00000000000E+00 0.  1.
         14    1    6    6    0    0  0.40613259861E+02  0.23636152645E+02 -0.12028236425E+03  0.12913540079E+03  0.00000000000E+00 0. -1.
         -5    1    3    3    0  503  0.63915804618E+01 -0.24662446809E+01 -0.14013400239E+03  0.14038006728E+03  0.47000000000E+01 0.  1.
         13    1    4    4    0    0 -0.61199530199E+02  0.22698718332E+02 -0.62636087475E+02  0.90464875862E+02  0.00000000000E+00 0. -1.
        -14    1    4    4    0    0 -0.52412357225E+02 -0.49176860728E+02 -0.25051637539E+02  0.76111782034E+02  0.00000000000E+00 0.  1.
</event>
<event>
12    1  0.8449700E-002  0.1907430E+03  0.7818608E-02  0.1157812E+00
         21   -1    0    0  501  502  0.00000000000E+00  0.00000000000E+00  0.96036699310E+03  0.96036699310E+03  0.00000000000E+00 0. -1.
         21   -1    0    0  502  503 -0.00000000000E+00 -0.00000000000E+00 -0.90562311098E+02  0.90562311098E+02  0.00000000000E+00 0. -1.
         -6    2    1    2    0  503  0.82554694423E+02  0.72072323741E+01  0.34119386422E+02  0.19377051195E+03  0.17180121362E+03 0.  0.
        -24    2    3    3    0    0  0.78424843948E+02 -0.23112111673E+00 -0.41460752239E+02  0.11756793897E+03  0.77153851060E+02 0.  0.
          6    2    1    2  501    0 -0.82554694423E+02 -0.72072323741E+01  0.83568529558E+03  0.85715879225E+03  0.17170923130E+03 0.  0.
         24    2    5    5    0    0 -0.14848678177E+02  0.44005924646E+02  0.59398700231E+03  0.60094199526E+03  0.78445637947E+02 0.  0.
          5    1    5    5  501    0 -0.67706016245E+02 -0.51213157020E+02  0.24169829327E+03  0.25621679699E+03  0.47000000000E+01 0. -1.
        -13    1    6    6    0    0  0.17178879518E+02 -0.15382598504E+02  0.12251276522E+03  0.12466401197E+03  0.00000000000E+00 0.  1.
         14    1    6    6    0    0 -0.32027557696E+02  0.59388523150E+02  0.47147423708E+03  0.47627798329E+03  0.00000000000E+00 0. -1.
         -5    1    3    3    0  503  0.41298504749E+01  0.74383534908E+01  0.75580138660E+02  0.76202572972E+02  0.47000000000E+01 0.  1.
         11    1    4    4    0    0  0.78613066512E+02 -0.25158211045E+02 -0.42047205750E+02  0.92633240906E+02  0.00000000000E+00 0. -1.
        -12    1    4    4    0    0 -0.18822256461E+00  0.24927089929E+02  0.58645351103E+00  0.24934698068E+02  0.00000000000E+00 0.  1.
</event>
<event>
12    1  0.8449700E-002  0.2220307E+03  0.7818608E-02  0.1132473E+00
         21   -1    0    0  501  502  0.00000000000E+00  0.00000000000E+00  0.88255625122E+02  0.88255625122E+02  0.00000000000E+00 0.  1.
         21   -1    0    0  502  503 -0.00000000000E+00 -0.00000000000E+00 -0.12052529276E+04  0.12052529276E+04  0.00000000000E+00 0.  1.
         -6    2    1    2    0  503 -0.97177216004E+02  0.99737685176E+02 -0.10330155290E+04  0.10566071810E+04  0.17293534833E+03 0.  0.
        -24    2    3    3    0    0 -0.22037040936E+02 -0.10112772357E+02 -0.51271230015E+03  0.51953110739E+03  0.80316682468E+02 0.  0.
          6    2    1    2  501    0  0.97177216004E+02 -0.99737685176E+02 -0.83981773509E+02  0.23690137172E+03  0.17227392283E+03 0.  0.
         24    2    5    5    0    0  0.13206478332E+03 -0.10152628109E+03 -0.79422814685E+02  0.20135962818E+03  0.80554476114E+02 0.  0.
          5    1    5    5  501    0 -0.34887567314E+02  0.17885959155E+01 -0.45589588241E+01  0.35541743542E+02  0.47000000000E+01 0. -1.
        -11    1    6    6    0    0  0.72037195864E+02 -0.80135735070E+02 -0.85206691000E+02  0.13737275499E+03  0.00000000000E+00 0.  1.
         12    1    6    6    0    0  0.60027587454E+02 -0.21390546021E+02  0.57838763153E+01  0.63986873184E+02  0.00000000000E+00 0. -1.
         -5    1    3    3    0  503 -0.75140175068E+02  0.10985045753E+03 -0.52030322884E+03  0.53707607364E+03  0.47000000000E+01 0.  1.
         13    1    4    4    0    0 -0.14184409604E+02 -0.33979887982E+02 -0.10927171994E+03  0.11530888536E+03  0.00000000000E+00 0. -1.
        -14    1    4    4    0    0 -0.78526313318E+01  0.23867115624E+02 -0.40344058020E+03  0.40422222203E+03  0.00000000000E+00 0.  1.
</event>
<event>
12    1  0.8449700E-002  0.1815101E+03  0.7818608E-02  0.1167730E+00
         21   -1    0    0  501  502  0.00000000000E+00  0.00000000000E+00  0.10553223170E+04  0.10553223170E+04  0.00000000000E+00 0.  1.
         21   -1    0    0  502  503 -0.00000000000E+00 -0.00000000000E+00 -0.34303460147E+02  0.34303460147E+02  0.00000000000E+00 0.  1.
         -6    2    1    2    0  503  0.57844504150E+02 -0.46254676724E+01  0.31613701202E+03  0.36174919600E+03  0.16598942384E+03 0.  0.
        -24    2    3    3    0    0  0.82132655443E+02 -0.49010912321E+02  0.21559088053E+03  0.24909220976E+03  0.80122771932E+02 0.  0.
          6    2    1    2  501    0 -0.57844504150E+02  0.46254676724E+01  0.70488184481E+03  0.72787658112E+03  0.17198407075E+03 0.  0.
         24    2    5    5    0    0 -0.17790110879E+01  0.54955199251E+02  0.50559645303E+03  0.51477290033E+03  0.79624913099E+02 0.  0.
          5    1    5    5  501    0 -0.56065493062E+02 -0.50329731578E+02  0.19928539178E+03  0.21310368080E+03  0.47000000000E+01 0. -1.
        -13    1    6    6    0    0  0.19701925991E+02  0.58089228458E+02  0.22114521816E+03  0.22949451380E+03  0.00000000000E+00 0.  1.
         14    1    6    6    0    0 -0.21480937079E+02 -0.31340292071E+01  0.28445123487E+03  0.28527838652E+03  0.00000000000E+00 0. -1.
         -5    1    3    3    0  503 -0.24288151293E+02  0.44385444648E+02  0.10054613150E+03  0.11265698624E+03  0.47000000000E+01 0.  1.
         11    1    4    4    0    0  0.64162921864E+02  0.23630963493E+01  0.77367520854E+02  0.10053953476E+03  0.00000000000E+00 0. -1.
        -12    1    4    4    0    0  0.17969733578E+02 -0.51374008670E+02  0.13822335967E+03  0.14855267500E+03  0.00000000000E+00 0.  1.
</event>
<event>
12    1  0.8449700E-002  0.2125150E+03  0.7818608E-02  0.1139808E+00
         21   -1    0    0  503  502  0.00000000000E+00  0.00000000000E+00  0.39266770252E+03  0.39266770252E+03  0.00000000000E+00 0.  1.
         21   -1    0    0  501  503 -0.00000000000E+00 -0.00000000000E+00 -0.99420853552E+03  0.99420853552E+03  0.00000000000E+00 0.  1.
          6    2    1    2  501    0  0.86365507817E+02 -0.87194015534E+02 -0.95299846928E+03  0.97616333059E+03  0.17212486239E+03 0.  0.
         24    2    3    3    0    0  0.14923976362E+02  0.19072311994E+02 -0.37307518330E+03  0.38225295654E+03  0.79660229932E+02 0.  0.
         -6    2    1    2    0  502 -0.86365507817E+02  0.87194015534E+02  0.35145763627E+03  0.41071290746E+03  0.17349589325E+03 0.  0.
        -24    2    5    5    0    0 -0.11486149900E+03  0.52038461950E+02  0.18382020557E+03  0.23701105763E+03  0.80518370512E+02 0.  0.
          5    1    3    3  501    0  0.71441531455E+02 -0.10626632753E+03 -0.57992328598E+03  0.59391037405E+03  0.47000000000E+01 0. -1.
        -13    1    4    4    0    0 -0.47993864094E+01 -0.13209274905E+02 -0.29659805976E+03  0.29693084735E+03  0.00000000000E+00 0.  1.
         14    1    4    4    0    0  0.19723362771E+02  0.32281586899E+02 -0.76477123538E+02  0.85322109189E+02  0.00000000000E+00 0. -1.
         -5    1    5    5    0  502  0.28495991181E+02  0.35155553584E+02  0.16763743070E+03  0.17370184983E+03  0.47000000000E+01 0.  1.
         13    1    6    6    0    0 -0.27128104119E+02 -0.13479314782E+02  0.10617626587E+02  0.32099220465E+02  0.00000000000E+00 0. -1.
        -14    1    6    6    0    0 -0.87733394878E+02  0.65517776732E+02  0.17320257899E+03  0.20491183717E+03  0.00000000000E+00 0.  1.
</event>
<event>
12    1  0.8449700E-002  0.1959787E+03  0.7818608E-02  0.1153250E+00
         21   -1    0    0  503  502  0.00000000000E+00  0.00000000000E+00  0.64290234781E+03  0.64290234781E+03  0.00000000000E+00 0.  1.
         21   -1    0    0  501  503 -0.00000000000E+00 -0.00000000000E+00 -0.61149707846E+02  0.61149707846E+02  0.00000000000E+00 0.  1.
          6    2    1    2  501    0 -0.38882752102E+02 -0.83640044728E+02  0.23577488991E+03  0.30659003044E+03  0.17291651904E+03 0.  0.
         24    2    3    3    0    0 -0.21478988478E+02  0.25259520718E+02  0.11365672255E+03  0.14197853891E+03  0.78362392752E+02 0.  0.
         -6    2    1    2    0  502  0.38882752102E+02  0.83640044728E+02  0.34597775005E+03  0.39746202522E+03  0.17253385890E+03 0.  0.
        -24    2    5    5    0    0 -0.45130806417E+01 -0.10906433224E+02  0.85100136552E+02  0.11656799891E+03  0.78782910235E+02 0.  0.
          5    1    3    3  501    0 -0.17403763624E+02 -0.10889956545E+03  0.12211816736E+03  0.16461149153E+03  0.47000000000E+01 0. -1.
        -11    1    4    4    0    0 -0.26408267802E+02 -0.23260870026E+02  0.59245735187E+02  0.68909519085E+02  0.00000000000E+00 0.  1.
         12    1    4    4    0    0  0.49292793242E+01  0.48520390744E+02  0.54410987363E+02  0.73069019827E+02  0.00000000000E+00 0. -1.
         -5    1    5    5    0  502  0.43395832744E+02  0.94546477952E+02  0.26087761350E+03  0.28089402631E+03  0.47000000000E+01 0.  1.
         13    1    6    6    0    0  0.36546275067E+02 -0.69366056704E+01  0.50536336842E+02  0.62750841117E+02  0.00000000000E+00 0. -1.
        -14    1    6    6    0    0 -0.41059355709E+02 -0.39698275536E+01  0.34563799710E+02  0.53817157788E+02  0.00000000000E+00 0.  1.
</event>
<event>
12    1  0.8449700E-002  0.1816029E+03  0.7818608E-02  0.1168316E+00
         21   -1    0    0  503  502  0.00000000000E+00  0.00000000000E+00  0.18510363246E+02  0.18510363246E+02  0.00000000000E+00 0. -1.
         21   -1    0    0  501  503 -0.00000000000E+00 -0.00000000000E+00 -0.19040757000E+04  0.19040757000E+04  0.00000000000E+00 0. -1.
          6    2    1    2  501    0  0.75423651975E+01 -0.17161568515E+02 -0.12769611801E+04  0.12898098591E+04  0.18063280577E+03 0.  0.
         24    2    3    3    0    0 -0.33980915238E+02 -0.65132439444E+02 -0.59995050965E+03  0.60981653183E+03  0.80861926702E+02 0.  0.
         -6    2    1    2    0  502 -0.75423651975E+01  0.17161568515E+02 -0.60860415668E+03  0.63277620415E+03  0.17220713775E+03 0.  0.
        -24    2    5    5    0    0 -0.46244783336E+02  0.48186725580E+02 -0.52401656523E+03  0.53460498550E+03  0.82149798467E+02 0.  0.
          5    1    3    3  501    0  0.41523280436E+02  0.47970870930E+02 -0.67701067041E+03  0.67999332727E+03  0.47000000000E+01 0. -1.
        -11    1    4    4    0    0  0.23592935607E+02 -0.17975005550E+02 -0.98348184276E+02  0.10272337994E+03  0.00000000000E+00 0.  1.
         12    1    4    4    0    0 -0.57573850845E+02 -0.47157433894E+02 -0.50160232538E+03  0.50709315189E+03  0.00000000000E+00 0. -1.
         -5    1    5    5    0  502  0.38702418138E+02 -0.31025157066E+02 -0.84587591459E+02  0.98171218641E+02  0.47000000000E+01 0.  1.
         11    1    6    6    0    0  0.19664899858E+02 -0.53442106423E+01 -0.12544611167E+03  0.12709050243E+03  0.00000000000E+00 0. -1.
        -12    1    6    6    0    0 -0.65909683194E+02  0.53530936223E+02 -0.39857045355E+03  0.40751448308E+03  0.00000000000E+00 0.  1.
</event>
<event>
12    1  0.8449700E-002  0.1869087E+03  0.7818608E-02  0.1161469E+00
         21   -1    0    0  501  502  0.00000000000E+00  0.00000000000E+00  0.71319987955E+03  0.71319987955E+03  0.00000000000E+00 0. -1.
         21   -1    0    0  502  503 -0.00000000000E+00 -0.00000000000E+00 -0.16590146202E+03  0.16590146202E+03  0.00000000000E+00 0.  1.
         -6    2    1    2    0  503 -0.30815989532E+02 -0.66474266208E+02 -0.95511616216E+02  0.20989835633E+03  0.17194882343E+03 0.  0.
        -24    2    3    3    0    0 -0.22534424238E+02 -0.53529522120E+02  0.13591815270E+02  0.99617807344E+02  0.79785713530E+02 0.  0.
          6    2    1    2  501    0  0.30815989532E+02  0.66474266208E+02  0.64281003375E+03  0.66920298523E+03  0.17105391746E+03 0.  0.
         24    2    5    5    0    0 -0.33684180002E+02 -0.73964539134E+01  0.34387879568E+03  0.35456171290E+03  0.79196279104E+02 0.  0.
          5    1    5    5  501    0  0.64500169534E+02  0.73870720122E+02  0.29893123807E+03  0.31464127233E+03  0.47000000000E+01 0. -1.
        -13    1    6    6    0    0 -0.42857605592E+02  0.90888353787E+01  0.32476084001E+03  0.32770258542E+03  0.00000000000E+00 0.  1.
         14    1    6    6    0    0  0.91734255899E+01 -0.16485289292E+02  0.19117955667E+02  0.26859127480E+02  0.00000000000E+00 0. -1.
         -5    1    3    3    0  503 -0.82815652942E+01 -0.12944744088E+02 -0.10910343149E+03  0.11028054899E+03  0.47000000000E+01 0.  1.
         13    1    4    4    0    0 -0.13143524914E+02  0.17979425041E+02  0.16051532559E+02  0.27452935534E+02  0.00000000000E+00 0. -1.
        -14    1    4    4    0    0 -0.93908993235E+01 -0.71508947161E+02 -0.24597172889E+01  0.72164871809E+02  0.00000000000E+00 0.  1.
</event>
<event>
12    1  0.8449700E-002  0.1956028E+03  0.7818608E-02  0.1154995E+00
         21   -1    0    0  503  502  0.00000000000E+00  0.00000000000E+00  0.38638491019E+03  0.38638491019E+03  0.00000000000E+00 0. -1.
         21   -1    0    0  501  503 -0.00000000000E+00 -0.00000000000E+00 -0.15663908184E+03  0.15663908184E+03  0.00000000000E+00 0. -1.
          6    2    1    2  501    0 -0.32329789200E+02 -0.82818228788E+02 -0.55781866496E+02  0.19692208994E+03  0.16662118289E+03 0.  0.
         24    2    3    3    0    0 -0.21127332511E+02 -0.97517242874E+02 -0.92198713414E+02  0.15581451412E+03  0.76299300241E+02 0.  0.
         -6    2    1    2    0  502  0.32329789200E+02  0.82818228788E+02  0.28552769486E+03  0.34610190209E+03  0.17423084632E+03 0.  0.
        -24    2    5    5    0    0  0.33984444253E+02  0.97887117592E+02  0.29838196185E+03  0.32567810535E+03  0.79357437621E+02 0.  0.
          5    1    3    3  501    0 -0.11202456689E+02  0.14699014086E+02  0.36416846918E+02  0.41107575827E+02  0.47000000000E+01 0. -1.
        -11    1    4    4    0    0  0.11216657153E+01 -0.33909268632E+02  0.81933775851E+01  0.34903124063E+02  0.00000000000E+00 0.  1.
         12    1    4    4    0    0 -0.22248998226E+02 -0.63607974242E+02 -0.10039209100E+03  0.12091139005E+03  0.00000000000E+00 0. -1.
         -5    1    5    5    0  502 -0.16546550530E+01 -0.15068888804E+02 -0.12854266995E+02  0.20423796736E+02  0.47000000000E+01 0.  1.
         13    1    6    6    0    0 -0.16831011953E+02  0.69445223655E+02  0.14600451840E+03  0.16255227296E+03  0.00000000000E+00 0. -1.
        -14    1    6    6    0    0  0.50815456206E+02  0.28441893937E+02  0.15237744345E+03  0.16312583239E+03  0.00000000000E+00 0.  1.
</event>
<event>
12    1  0.8449700E-002  0.2829627E+03  0.7818608E-02  0.1094189E+00
         21   -1    0    0  501  502  0.00000000000E+00  0.00000000000E+00  0.25258179906E+03  0.25258179906E+03  0.00000000000E+00 0.  1.
         21   -1    0    0  502  503 -0.00000000000E+00 -0.00000000000E+00 -0.34142322940E+03  0.34142322940E+03  0.00000000000E+00 0. -1.
         -6    2    1    2    0  503  0.12785481844E+03 -0.18439023637E+03 -0.12523384793E+03  0.30871165610E+03  0.17109282883E+03 0.  0.
        -24    2    3    3    0    0  0.20027493888E+02 -0.29595357512E+02 -0.62361964921E+02  0.10980677905E+03  0.83015229678E+02 0.  0.
          6    2    1    2  501    0 -0.12785481844E+03  0.18439023637E+03  0.36392417595E+02  0.28529337236E+03  0.17239862639E+03 0.  0.
         24    2    5    5    0    0 -0.94258508505E+02  0.14165030258E+03  0.90511296040E+02  0.20844054556E+03  0.79408385427E+02 0.  0.
          5    1    5    5  501    0 -0.33596309938E+02  0.42739933797E+02 -0.54118878445E+02  0.76852826796E+02  0.47000000000E+01 0. -1.
        -11    1    6    6    0    0 -0.15105031017E+02  0.75263216416E+02  0.68347733995E+02  0.10278193640E+03  0.00000000000E+00 0.  1.
         12    1    6    6    0    0 -0.79153477488E+02  0.66387086162E+02  0.22163562045E+02  0.10565860916E+03  0.00000000000E+00 0. -1.
         -5    1    3    3    0  503  0.10782732455E+03 -0.15479487886E+03 -0.62871883010E+02  0.19890487705E+03  0.47000000000E+01 0.  1.
         13    1    4    4    0    0 -0.16563801065E+02 -0.32939639123E+01  0.13465768494E+02  0.21599458907E+02  0.00000000000E+00 0. -1.
        -14    1    4    4    0    0  0.36591294953E+02 -0.26301393599E+02 -0.75827733414E+02  0.88207320140E+02  0.00000000000E+00 0.  1.
</event>
<event>
12    1  0.8449700E-002  0.2024357E+03  0.7818608E-02  0.1147849E+00
         21   -1    0    0  501  502  0.00000000000E+00  0.00000000000E+00  0.20358009410E+03  0.20358009410E+03  0.00000000000E+00 0.  1.
         21   -1    0    0  502  503 -0.00000000000E+00 -0.00000000000E+00 -0.20064567790E+03  0.20064567790E+03  0.00000000000E+00 0. -1.
         -6    2    1    2    0  503  0.64943249334E+02  0.83824057910E+02  0.49108498170E+01  0.20178045581E+03  0.17160168292E+03 0.  0.
        -24    2    3    3    0    0  0.23083200623E+02  0.30229374536E+01 -0.49019683057E+02  0.95895248527E+02  0.79063247221E+02 0.  0.
          6    2    1    2  501    0 -0.64943249334E+02 -0.83824057910E+02 -0.19764336149E+01  0.20244531620E+03  0.17244158849E+03 0.  0.
         24    2    5    5    0    0 -0.57427134986E+02  0.21576293242E+02  0.11186128079E+02  0.95857000568E+02  0.72801255716E+02 0.  0.
          5    1    5    5  501    0 -0.75161143476E+01 -0.10540035115E+03 -0.13162561694E+02  0.10658831563E+03  0.47000000000E+01 0. -1.
        -13    1    6    6    0    0 -0.79352416956E+01  0.25066058831E+02 -0.23545273346E+02  0.35293841715E+02  0.00000000000E+00 0.  1.
         14    1    6    6    0    0 -0.49491893290E+02 -0.34897655885E+01  0.34731401425E+02  0.60563158853E+02  0.00000000000E+00 0. -1.
         -5    1    3    3    0  503  0.41860048711E+02  0.80801120456E+02  0.53930532874E+02  0.10588520728E+03  0.47000000000E+01 0.  1.
         13    1    4    4    0    0 -0.23097238805E+02 -0.29285905355E+01 -0.43062399987E+02  0.48953338758E+02  0.00000000000E+00 0. -1.
        -14    1    4    4    0    0  0.46180439428E+02  0.59515279891E+01 -0.59572830705E+01  0.46941909769E+02  0.00000000000E+00 0.  1.
</event>
<event>
12    1  0.8449700E-002  0.2454065E+03  0.7818608E-02  0.1116849E+00
         21   -1    0    0  501  502  0.00000000000E+00  0.00000000000E+00  0.32454731421E+03  0.32454731421E+03  0.00000000000E+00 0.  1.
         21   -1    0    0  502  503 -0.00000000000E+00 -0.00000000000E+00 -0.18985164576E+03  0.18985164576E+03  0.00000000000E+00 0.  1.
         -6    2    1    2    0  503 -0.13401114892E+03 -0.10310617600E+03  0.18147126838E+02  0.24607650045E+03  0.17786077222E+03 0.  0.
        -24    2    3    3    0    0 -0.11877127107E+03 -0.96934328771E+02 -0.46693396300E+02  0.17901884603E+03  0.79778412183E+02 0.  0.
          6    2    1    2  501    0  0.13401114892E+03  0.10310617600E+03  0.11654854161E+03  0.26832245951E+03  0.17269484115E+03 0.  0.
         24    2    5    5    0    0  0.11471488898E+02  0.57008459598E+01  0.79393213319E+02  0.10736788511E+03  0.71137091100E+02 0.  0.
          5    1    5    5  501    0  0.12253966003E+03  0.97405330040E+02  0.37155328293E+02  0.16095457440E+03  0.47000000000E+01 0. -1.
        -13    1    6    6    0    0 -0.47017515967E+01  0.36865909490E+02  0.41454309361E+02  0.55674603862E+02  0.00000000000E+00 0.  1.
         14    1    6    6    0    0  0.16173240495E+02 -0.31165063530E+02  0.37938903958E+02  0.51693281251E+02  0.00000000000E+00 0. -1.
         -5    1    3    3    0  503 -0.15239877853E+02 -0.61718472293E+01  0.64840523138E+02  0.67057654418E+02  0.47000000000E+01 0.  1.
         11    1    4    4    0    0  0.16030411532E+01 -0.23815162651E+02 -0.28235759983E+02  0.36972825898E+02  0.00000000000E+00 0. -1.
        -12    1    4    4    0    0 -0.12037431222E+03 -0.73119166119E+02 -0.18457636318E+02  0.14204602013E+03  0.00000000000E+00 0.  1.
</event>
<event>
12    1  0.8449700E-002  0.2401374E+03  0.7818608E-02  0.1119930E+00
         21   -1    0    0  501  502  0.00000000000E+00  0.00000000000E+00  0.11855885697E+03  0.11855885697E+03  0.00000000000E+00 0. -1.
         21   -1    0    0  502  503 -0.00000000000E+00 -0.00000000000E+00 -0.56199203112E+03  0.56199203112E+03  0.00000000000E+00 0. -1.
         -6    2    1    2    0  503  0.93452945784E+01  0.16512383671E+03 -0.34824358975E+03  0.42223513469E+03  0.17220829012E+03 0.  0.
        -24    2    3    3    0    0  0.51156287316E+02  0.90115985183E+02 -0.29045924798E+03  0.31862308396E+03  0.80101425538E+02 0.  0.
          6    2    1    2  501    0 -0.93452945784E+01 -0.16512383671E+03 -0.95189584397E+02  0.25831575340E+03  0.17410558721E+03 0.  0.
         24    2    5    5    0    0  0.85363060195E+01 -0.16924865221E+03 -0.28859361329E+02  0.18933347861E+03  0.79349408255E+02 0.  0.
          5    1    5    5  501    0 -0.17881600598E+02  0.41248155045E+01 -0.66330223068E+02  0.68982274790E+02  0.47000000000E+01 0. -1.
        -11    1    6    6    0    0  0.36445985024E+02 -0.37298253382E+02 -0.52402081774E+01  0.52411156365E+02  0.00000000000E+00 0.  1.
         12    1    6    6    0    0 -0.27909679005E+02 -0.13195039883E+03 -0.23619153152E+02  0.13692232225E+03  0.00000000000E+00 0. -1.
         -5    1    3    3    0  503 -0.41810992737E+02  0.75007851527E+02 -0.57784341763E+02  0.10361205073E+03  0.47000000000E+01 0.  1.
         11    1    4    4    0    0  0.40513302304E+02  0.83305037468E+02 -0.14147653765E+03  0.16910549263E+03  0.00000000000E+00 0. -1.
        -12    1    4    4    0    0  0.10642985012E+02  0.68109477154E+01 -0.14898271033E+03  0.14951759133E+03  0.00000000000E+00 0.  1.
</event>
<event>
12    1  0.8449700E-002  0.2016905E+03  0.7818608E-02  0.1148801E+00
         21   -1    0    0  501  502  0.00000000000E+00  0.00000000000E+00  0.59581280802E+03  0.59581280802E+03  0.00000000000E+00 0. -1.
         21   -1    0    0  502  503 -0.00000000000E+00 -0.00000000000E+00 -0.20902929103E+03  0.20902929103E+03  0.00000000000E+00 0. -1.
         -6    2    1    2    0  503 -0.90330832391E+02 -0.52629626347E+02 -0.13737895999E+03  0.24403286581E+03  0.17248050353E+03 0.  0.
        -24    2    3    3    0    0 -0.42498640543E+02 -0.11319477965E+02 -0.15356220953E+03  0.17862312264E+03  0.79941245396E+02 0.  0.
          6    2    1    2  501    0  0.90330832391E+02  0.52629626347E+02  0.52416247699E+03  0.56080923323E+03  0.16979739971E+03 0.  0.
         24    2    5    5    0    0  0.70429076258E+02 -0.14173783258E+02  0.18061350114E+03  0.21022862305E+03  0.80085493317E+02 0.  0.
          5    1    5    5  501    0  0.19901756133E+02  0.66803409605E+02  0.34354897585E+03  0.35058061018E+03  0.47000000000E+01 0. -1.
        -13    1    6    6    0    0  0.81309723750E+02 -0.18007071736E+02  0.18039499338E+03  0.19869041105E+03  0.00000000000E+00 0.  1.
         14    1    6    6    0    0 -0.10880647492E+02  0.38332884780E+01  0.21850776314E+00  0.11538211995E+02  0.00000000000E+00 0. -1.
         -5    1    3    3    0  503 -0.47832191848E+02 -0.41310148383E+02  0.16183249540E+02  0.65409743174E+02  0.47000000000E+01 0.  1.
         13    1    4    4    0    0 -0.36235937656E+02  0.31398560244E+02 -0.85346787196E+02  0.97892731333E+02  0.00000000000E+00 0. -1.
        -14    1    4    4    0    0 -0.62627028869E+01 -0.42718038209E+02 -0.68215422338E+02  0.80730391307E+02  0.00000000000E+00 0.  1.
</event>
<event>
12    1  0.8449700E-002  0.2032022E+03  0.7818608E-02  0.1147181E+00
         21   -1    0    0  503  502  0.00000000000E+00  0.00000000000E+00  0.34137671635E+02  0.34137671635E+02  0.00000000000E+00 0. -1.
         21   -1    0    0  501  503 -0.00000000000E+00 -0.00000000000E+00 -0.12062495094E+04  0.12062495094E+04  0.00000000000E+00 0.  1.
          6    2    1    2  501    0 -0.31452092845E+02 -0.10249728820E+03 -0.58161953785E+03  0.61590957340E+03  0.17195460900E+03 0.  0.
         24    2    3    3    0    0 -0.36169007947E+02 -0.98366586628E+02 -0.24687688324E+03  0.28107521614E+03  0.84088638641E+02 0.  0.
         -6    2    1    2    0  502  0.31452092845E+02  0.10249728820E+03 -0.59049229996E+03  0.62447760768E+03  0.17261575234E+03 0.  0.
        -24    2    5    5    0    0  0.32308729859E+02  0.12909176679E+03 -0.57036341562E+03  0.59078395690E+03  0.77477219716E+02 0.  0.
          5    1    3    3  501    0  0.47169151015E+01 -0.41307015709E+01 -0.33474265461E+03  0.33483435726E+03  0.47000000000E+01 0. -1.
        -11    1    4    4    0    0  0.96385734964E+01  0.42030191233E+01 -0.76981927763E+00  0.10543248575E+02  0.00000000000E+00 0.  1.
         12    1    4    4    0    0 -0.45807581443E+02 -0.10256960575E+03 -0.24610706396E+03  0.27053196757E+03  0.00000000000E+00 0. -1.
         -5    1    5    5    0  502 -0.85663701350E+00 -0.26594478589E+02 -0.20128884332E+02  0.33693650779E+02  0.47000000000E+01 0.  1.
         13    1    6    6    0    0 -0.46728487912E+01  0.49864732795E+02 -0.94463774483E+02  0.10691927694E+03  0.00000000000E+00 0. -1.
        -14    1    6    6    0    0  0.36981578650E+02  0.79227033992E+02 -0.47589964114E+03  0.48386467996E+03  0.00000000000E+00 0.  1.
</event>
<event>
12    1  0.8449700E-002  0.1781590E+03  0.7818608E-02  0.1169676E+00
         21   -1    0    0  501  502  0.00000000000E+00  0.00000000000E+00  0.10712205141E+04  0.10712205141E+04  0.00000000000E+00 0.  1.
         21   -1    0    0  502  503 -0.00000000000E+00 -0.00000000000E+00 -0.29768509375E+02  0.29768509375E+02  0.00000000000E+00 0.  1.
         -6    2    1    2    0  503 -0.36239746695E+02 -0.23748905908E+02  0.56540975349E+03  0.59281432885E+03  0.17281003841E+03 0.  0.
        -24    2    3    3    0    0 -0.35385511865E+01 -0.51716948219E+02  0.51956706887E+03  0.52976497269E+03  0.89519959581E+02 0.  0.
          6    2    1    2  501    0  0.36239746695E+02  0.23748905908E+02  0.47604225125E+03  0.50817469464E+03  0.17247598536E+03 0.  0.
         24    2    5    5    0    0  0.20073042304E+02  0.24797494765E+02  0.10040806875E+03  0.13216194096E+03  0.79794458416E+02 0.  0.
          5    1    5    5  501    0  0.16166704391E+02 -0.10485888564E+01  0.37563418249E+03  0.37601275368E+03  0.47000000000E+01 0. -1.
        -13    1    6    6    0    0  0.40994251600E+02 -0.75130026434E+01  0.75721972334E+02  0.86433737436E+02  0.00000000000E+00 0.  1.
         14    1    6    6    0    0 -0.20921209296E+02  0.32310497408E+02  0.24686096419E+02  0.45728203525E+02  0.00000000000E+00 0. -1.
         -5    1    3    3    0  503 -0.32701195509E+02  0.27968042311E+02  0.45842684620E+02  0.63049356155E+02  0.47000000000E+01 0.  1.
         11    1    4    4    0    0  0.35166383294E+02 -0.48700922697E+02  0.23473429928E+03  0.24229867033E+03  0.00000000000E+00 0. -1.
        -12    1    4    4    0    0 -0.38704934480E+02 -0.30160255220E+01  0.28483276959E+03  0.28746630236E+03  0.00000000000E+00 0.  1.
</event>
<event>
12    1  0.8449700E-002  0.1824761E+03  0.7818608E-02  0.1166605E+00
         21   -1    0    0  503  502  0.00000000000E+00  0.00000000000E+00  0.13121274469E+04  0.13121274469E+04  0.00000000000E+00 0. -1.
         21   -1    0    0  501  503 -0.00000000000E+00 -0.00000000000E+00 -0.33178719510E+02  0.33178719510E+02  0.00000000000E+00 0. -1.
          6    2    1    2  501    0  0.44748313888E+02 -0.16680945413E+02  0.29305814535E+03  0.34267075298E+03  0.17105409336E+03 0.  0.
         24    2    3    3    0    0  0.44957119657E+02 -0.10801660257E+02  0.31075482897E+03  0.32343869108E+03  0.76851835930E+02 0.  0.
         -6    2    1    2    0  502 -0.44748313888E+02  0.16680945413E+02  0.98589058208E+03  0.10026354135E+04  0.17611606110E+03 0.  0.
        -24    2    5    5    0    0 -0.87708955373E+02 -0.14188878360E+02  0.82046930882E+03  0.82889753510E+03  0.77505173022E+02 0.  0.
          5    1    3    3  501    0 -0.20880576893E+00 -0.58792851564E+01 -0.17696683620E+02  0.19232061901E+02  0.47000000000E+01 0. -1.
        -13    1    4    4    0    0 -0.74978585167E+01 -0.42501852737E+01  0.20525520719E+03  0.20543607774E+03  0.00000000000E+00 0.  1.
         14    1    4    4    0    0  0.52454978173E+02 -0.65514749828E+01  0.10549962178E+03  0.11800261334E+03  0.00000000000E+00 0. -1.
         -5    1    5    5    0  502  0.42960641485E+02  0.30869823773E+02  0.16542127326E+03  0.17373787838E+03  0.47000000000E+01 0.  1.
         13    1    6    6    0    0 -0.53451900398E+02  0.17042378099E+02  0.64406749472E+03  0.64650636970E+03  0.00000000000E+00 0. -1.
        -14    1    6    6    0    0 -0.34257054975E+02 -0.31231256459E+02  0.17640181410E+03  0.18239116539E+03  0.00000000000E+00 0.  1.
</event>
<event>
12    1  0.8449700E-002  0.2331155E+03  0.7818608E-02  0.1124575E+00
         21   -1    0    0  501  502  0.00000000000E+00  0.00000000000E+00  0.52692707208E+03  0.52692707208E+03  0.00000000000E+00 0.  1.
         21   -1    0    0  502  503 -0.00000000000E+00 -0.00000000000E+00 -0.11234776880E+03  0.11234776880E+03  0.00000000000E+00 0.  1.
         -6    2    1    2    0  503 -0.94844015575E+02  0.12468591854E+03  0.11462146575E+03  0.25977086743E+03  0.17262924891E+03 0.  0.
        -24    2    3    3    0    0  0.23168928831E+01  0.24478051376E+02  0.83586512332E+02  0.11670753492E+03  0.77649215526E+02 0.  0.
          6    2    1    2  501    0  0.94844015575E+02 -0.12468591854E+03  0.29995783752E+03  0.37950397345E+03  0.17177484101E+03 0.  0.
         24    2    5    5    0    0  0.53828675378E+02 -0.10735184992E+03  0.30203192675E+03  0.33468076616E+03  0.79787119783E+02 0.  0.
          5    1    5    5  501    0  0.41015340197E+02 -0.17334068613E+02 -0.20740892305E+01  0.44823207296E+02  0.47000000000E+01 0. -1.
        -13    1    6    6    0    0  0.71138929461E+01 -0.94474519166E+02  0.21762203507E+03  0.23735077921E+03  0.00000000000E+00 0.  1.
         14    1    6    6    0    0  0.46714782432E+02 -0.12877330757E+02  0.84409891685E+02  0.97329986948E+02  0.00000000000E+00 0. -1.
         -5    1    3    3    0  503 -0.97160908458E+02  0.10020786716E+03  0.31034953423E+02  0.14306333250E+03  0.47000000000E+01 0.  1.
         11    1    4    4    0    0  0.33983128121E+02 -0.12574600798E+01  0.15596281349E+02  0.37412273315E+02  0.00000000000E+00 0. -1.
        -12    1    4    4    0    0 -0.31666235238E+02  0.25735511455E+02  0.67990230983E+02  0.79295261606E+02  0.00000000000E+00 0.  1.
</event>
<event>
12    1  0.8449700E-002  0.2818922E+03  0.7818608E-02  0.1094810E+00
         21   -1    0    0  503  502  0.00000000000E+00  0.00000000000E+00  0.73351445683E+02  0.73351445683E+02  0.00000000000E+00 0.  1.
         21   -1    0    0  501  503 -0.00000000000E+00 -0.00000000000E+00 -0.17697887557E+04  0.17697887557E+04  0.00000000000E+00 0. -1.
          6    2    1    2  501    0  0.96694439630E+02 -0.20015762607E+03 -0.14249706500E+04  0.14525854817E+04  0.17335033417E+03 0.  0.
         24    2    3    3    0    0 -0.72726009655E+01 -0.11743481867E+03 -0.86496347754E+03  0.87701417282E+03  0.84547114065E+02 0.  0.
         -6    2    1    2    0  502 -0.96694439630E+02  0.20015762607E+03 -0.27146666008E+03  0.39055471974E+03  0.17153994186E+03 0.  0.
        -24    2    5    5    0    0 -0.79876071478E+02  0.44282106326E+02 -0.12058157142E+03  0.17291181234E+03  0.83770446738E+02 0.  0.
          5    1    3    3  501    0  0.10396704060E+03 -0.82722807399E+02 -0.56000717243E+03  0.57557130885E+03  0.47000000000E+01 0. -1.
        -13    1    4    4    0    0 -0.42885288577E+02 -0.89930992116E+02 -0.57112960845E+03  0.57975491457E+03  0.00000000000E+00 0.  1.
         14    1    4    4    0    0  0.35612687612E+02 -0.27503826552E+02 -0.29383386909E+03  0.29725925825E+03  0.00000000000E+00 0. -1.
         -5    1    5    5    0  502 -0.16818368151E+02  0.15587551974E+03 -0.15088508866E+03  0.21764290740E+03  0.47000000000E+01 0.  1.
         13    1    6    6    0    0 -0.71347343585E+02  0.42432018743E+00 -0.42772344291E+02  0.83187119919E+02  0.00000000000E+00 0. -1.
        -14    1    6    6    0    0 -0.85287278929E+01  0.43857786138E+02 -0.77809227126E+02  0.89724692423E+02  0.00000000000E+00 0.  1.
</event>
<event>
12    1  0.8449700E-002  0.1760586E+03  0.7818608E-02  0.1171885E+00
         21   -1    0    0  501  502  0.00000000000E+00  0.00000000000E+00  0.40763257657E+02  0.40763257657E+02  0.00000000000E+00 0. -1.
         21   -1    0    0  502  503 -0.00000000000E+00 -0.00000000000E+00 -0.75675262833E+03  0.75675262833E+03  0.00000000000E+00 0. -1.
         -6    2    1    2    0  503 -0.34729721328E+02 -0.18346326607E+02 -0.35983606904E+03  0.40059782483E+03  0.17162132568E+03 0.  0.
        -24    2    3    3    0    0 -0.64303737800E+02  0.37696242485E+02 -0.18751701999E+03  0.21693689630E+03  0.79642995911E+02 0.  0.
          6    2    1    2  501    0  0.34729721328E+02  0.18346326607E+02 -0.35615330163E+03  0.39691806116E+03  0.17075137414E+03 0.  0.
         24    2    5    5    0    0  0.51929695579E+02  0.20354488067E+01 -0.35920441571E+03  0.37256065682E+03  0.84099907303E+02 0.  0.
          5    1    5    5  501    0 -0.17199974251E+02  0.16310877800E+02  0.30511140869E+01  0.24357404336E+02  0.47000000000E+01 0. -1.
        -13    1    6    6    0    0  0.21719686236E+01  0.36365678315E+02 -0.10085716802E+03  0.10723501456E+03  0.00000000000E+00 0.  1.
         14    1    6    6    0    0  0.49757726955E+02 -0.34330229508E+02 -0.25834724770E+03  0.26532564226E+03  0.00000000000E+00 0. -1.
         -5    1    3    3    0  503  0.29574016472E+02 -0.56042569091E+02 -0.17231904905E+03  0.18366092852E+03  0.47000000000E+01 0.  1.
         13    1    4    4    0    0 -0.62606895522E+02 -0.80995372191E+01 -0.10345366310E+03  0.12119359009E+03  0.00000000000E+00 0. -1.
        -14    1    4    4    0    0 -0.16968422783E+01  0.45795779704E+02 -0.84063356889E+02  0.95743306209E+02  0.00000000000E+00 0.  1.
</event>
<event>
12    1  0.8449700E-002  0.2418807E+03  0.7818608E-02  0.1119003E+00
         21   -1    0    0  501  502  0.00000000000E+00  0.00000000000E+00  0.62067511263E+02  0.62067511263E+02  0.00000000000E+00 0.  1.
         21   -1    0    0  502  503 -0.00000000000E+00 -0.00000000000E+00 -0.10044406672E+04  0.10044406672E+04  0.00000000000E+00 0. -1.
         -6    2    1    2    0  503 -0.14804378491E+03  0.74981679001E+02 -0.61195971121E+03  0.65702155473E+03  0.17217264821E+03 0.  0.
        -24    2    3    3    0    0 -0.11139536529E+03  0.20828197540E+02 -0.22332160330E+03  0.26289292707E+03  0.79983819513E+02 0.  0.
          6    2    1    2  501    0  0.14804378491E+03 -0.74981679001E+02 -0.33041344471E+03  0.40948662373E+03  0.17597453261E+03 0.  0.
         24    2    5    5    0    0  0.27402333534E+02 -0.80829692208E+02 -0.20777253410E+03  0.23729068300E+03  0.76505655242E+02 0.  0.
          5    1    5    5  501    0  0.12064145137E+03  0.58480132067E+01 -0.12264091061E+03  0.17219594073E+03  0.47000000000E+01 0. -1.
        -11    1    6    6    0    0  0.52852800609E+02 -0.67668308287E+02 -0.15132073668E+03  0.17398386083E+03  0.00000000000E+00 0.  1.
         12    1    6    6    0    0 -0.25450467075E+02 -0.13161383921E+02 -0.56451797424E+02  0.63306822171E+02  0.00000000000E+00 0. -1.
         -5    1    3    3    0  503 -0.36648419622E+02  0.54153481462E+02 -0.38863810791E+03  0.39412862766E+03  0.47000000000E+01 0.  1.
         11    1    4    4    0    0 -0.23566235621E+02 -0.22521699630E+02 -0.10135022411E+03  0.10646343195E+03  0.00000000000E+00 0. -1.
        -12    1    4    4    0    0 -0.87829129665E+02  0.43349897170E+02 -0.12197137919E+03  0.15642949512E+03  0.00000000000E+00 0.  1.
</event>
<event>
12    1  0.8449700E-002  0.1882223E+03  0.7818608E-02  0.1160291E+00
         21   -1    0    0  501  502  0.00000000000E+00  0.00000000000E+00  0.17217824159E+04  0.17217824159E+04  0.00000000000E+00 0.  1.
         21   -1    0    0  502  503 -0.00000000000E+00 -0.00000000000E+00 -0.21868038750E+02  0.21868038750E+02  0.00000000000E+00 0.  1.
         -6    2    1    2    0  503  0.72397101383E+02 -0.46333556149E+01  0.62776703387E+03  0.65510667991E+03  0.17265718919E+03 0.  0.
        -24    2    3    3    0    0 -0.25894019731E+02 -0.17939208925E+02  0.23357101025E+03  0.24859618157E+03  0.79071671218E+02 0.  0.
          6    2    1    2  501    0 -0.72397101383E+02  0.46333556149E+01  0.10721473433E+04  0.10885437747E+04  0.17368021057E+03 0.  0.
         24    2    5    5    0    0 -0.14152658654E+02 -0.50058549442E+00  0.94564724217E+03  0.94910512141E+03  0.79694896549E+02 0.  0.
          5    1    5    5  501    0 -0.58244442729E+02  0.51339411093E+01  0.12650010111E+03  0.13943865332E+03  0.47000000000E+01 0. -1.
        -11    1    6    6    0    0 -0.38504054615E+02 -0.21940203817E+02  0.38964489373E+03  0.39215695579E+03  0.00000000000E+00 0.  1.
         12    1    6    6    0    0  0.24351395961E+02  0.21439618322E+02  0.55600234845E+03  0.55694816563E+03  0.00000000000E+00 0. -1.
         -5    1    3    3    0  503  0.98291121114E+02  0.13305853310E+02  0.39419602362E+03  0.40651049834E+03  0.47000000000E+01 0.  1.
         13    1    4    4    0    0 -0.40390935480E+02 -0.73094116115E+01  0.22494114014E+03  0.22865557438E+03  0.00000000000E+00 0. -1.
        -14    1    4    4    0    0  0.14496915749E+02 -0.10629797314E+02  0.86298701081E+01  0.19940607193E+02  0.00000000000E+00 0.  1.
</event>
<event>
12    1  0.8449700E-002  0.2691052E+03  0.7818608E-02  0.1102394E+00
         21   -1    0    0  503  502  0.00000000000E+00  0.00000000000E+00  0.32478884219E+03  0.32478884219E+03  0.00000000000E+00 0. -1.
         21   -1    0    0  501  503 -0.00000000000E+00 -0.00000000000E+00 -0.28717523085E+03  0.28717523085E+03  0.00000000000E+00 0.  1.
          6    2    1    2  501    0  0.17077257938E+03 -0.11494585689E+03 -0.12979409122E+03  0.29503671000E+03  0.16680626562E+03 0.  0.
         24    2    3    3    0    0  0.13043799649E+03 -0.83646111269E+02 -0.15695279203E+03  0.23701742285E+03  0.86789037042E+02 0.  0.
         -6    2    1    2    0  502 -0.17077257938E+03  0.11494585689E+03  0.16740770256E+03  0.31692736304E+03  0.17332567808E+03 0.  0.
        -24    2    5    5    0    0 -0.15999877687E+03  0.14798598863E+03  0.15945236409E+03  0.28096762811E+03  0.77577639806E+02 0.  0.
          5    1    3    3  501    0  0.40334582888E+02 -0.31299745617E+02  0.27158700804E+02  0.58019287153E+02  0.47000000000E+01 0. -1.
        -11    1    4    4    0    0  0.30448434051E+02 -0.56376743850E+02 -0.23954317205E+02  0.68405070689E+02  0.00000000000E+00 0.  1.
         12    1    4    4    0    0  0.99989562439E+02 -0.27269367419E+02 -0.13299847482E+03  0.16861235216E+03  0.00000000000E+00 0. -1.
         -5    1    5    5    0  502 -0.10773802505E+02 -0.33040131745E+02  0.79553384735E+01  0.35959734932E+02  0.47000000000E+01 0.  1.
         11    1    6    6    0    0 -0.16404878834E+03  0.12995977012E+03  0.15837992805E+03  0.26246094645E+03  0.00000000000E+00 0. -1.
        -12    1    6    6    0    0  0.40500114647E+01  0.18026218516E+02  0.10724360424E+01  0.18506681656E+02  0.00000000000E+00 0.  1.
</event>
<event>
12    1  0.8449700E-002  0.2075592E+03  0.7818608E-02  0.1143725E+00
         21   -1    0    0  501  502  0.00000000000E+00  0.00000000000E+00  0.28277243286E+03  0.28277243286E+03  0.00000000000E+00 0.  1.
         21   -1    0    0  502  503 -0.00000000000E+00 -0.00000000000E+00 -0.18575248855E+03  0.18575248855E+03  0.00000000000E+00 0.  1.
         -6    2    1    2    0  503 -0.62037117711E+02 -0.98717086668E+02 -0.51862749894E+02  0.21394053344E+03  0.17171819894E+03 0.  0.
        -24    2    3    3    0    0 -0.98708143097E+02 -0.72207037684E+02 -0.57236169666E+01  0.14914503678E+03  0.85172345274E+02 0.  0.
          6    2    1    2  501    0  0.62037117711E+02  0.98717086668E+02  0.14888269420E+03  0.25458438798E+03  0.17045083396E+03 0.  0.
         24    2    5    5    0    0  0.94065832022E+02  0.87282917883E+02  0.15813281441E+03  0.21902832689E+03  0.80627120015E+02 0.  0.
          5    1    5    5  501    0 -0.32028714311E+02  0.11434168785E+02 -0.92501202038E+01  0.35556061086E+02  0.47000000000E+01 0. -1.
        -13    1    6    6    0    0  0.45283529932E+02  0.27866970518E+02  0.12915042784E+02  0.54717131313E+02  0.00000000000E+00 0.  1.
         14    1    6    6    0    0  0.48782302090E+02  0.59415947365E+02  0.14521777162E+03  0.16431119558E+03  0.00000000000E+00 0. -1.
         -5    1    3    3    0  503  0.36671025385E+02 -0.26510048983E+02 -0.46139132928E+02  0.64795496659E+02  0.47000000000E+01 0.  1.
         13    1    4    4    0    0 -0.22901325361E+01  0.12574362070E+02  0.14324808775E+02  0.19197901837E+02  0.00000000000E+00 0. -1.
        -14    1    4    4    0    0 -0.96418010561E+02 -0.84781399754E+02 -0.20048425742E+02  0.12994713494E+03  0.00000000000E+00 0.  1.
</event>
<event>
12    1  0.8449700E-002  0.2168861E+03  0.7818608E-02  0.1136369E+00
         21   -1    0    0  503  502  0.00000000000E+00  0.00000000000E+00  0.14630992502E+03  0.14630992502E+03  0.00000000000E+00 0.  1.
         21   -1    0    0  501  503 -0.00000000000E+00 -0.00000000000E+00 -0.41970991278E+03  0.41970991278E+03  0.00000000000E+00 0.  1.
          6    2    1    2  501    0  0.62404161378E+02 -0.11482052773E+03 -0.27418707541E+03  0.34913229225E+03  0.17215333929E+03 0.  0.
         24    2    3    3    0    0  0.37684455148E+02 -0.13332289494E+02 -0.48530825041E+02  0.10042813124E+03  0.78311560205E+02 0.  0.
         -6    2    1    2    0  502 -0.62404161378E+02  0.11482052773E+03  0.78708765547E+00  0.21688754554E+03  0.17309406390E+03 0.  0.
        -24    2    5    5    0    0 -0.40457974407E+02  0.20583215159E+02 -0.52928578816E+02  0.10611855607E+03  0.79994981396E+02 0.  0.
          5    1    3    3  501    0  0.24719706230E+02 -0.10148823823E+03 -0.22565625037E+03  0.24870416102E+03  0.47000000000E+01 0. -1.
        -13    1    4    4    0    0  0.36385184099E+02 -0.41431489324E+02 -0.15984288893E+02  0.57410342457E+02  0.00000000000E+00 0.  1.
         14    1    4    4    0    0  0.12992710481E+01  0.28099199830E+02 -0.32546536148E+02  0.43017788781E+02  0.00000000000E+00 0. -1.
         -5    1    5    5    0  502 -0.21946186971E+02  0.94237312567E+02  0.53715666472E+02  0.11076898946E+03  0.47000000000E+01 0.  1.
         11    1    6    6    0    0 -0.35966569943E+02 -0.14625922222E+02  0.39989148720E+01  0.39032077506E+02  0.00000000000E+00 0. -1.
        -12    1    6    6    0    0 -0.44914044641E+01  0.35209137380E+02 -0.56927493688E+02  0.67086478569E+02  0.00000000000E+00 0.  1.
</event>
<event>
12    1  0.8449700E-002  0.1833480E+03  0.7818608E-02  0.1164886E+00
         21   -1    0    0  503  502  0.00000000000E+00  0.00000000000E+00  0.13546177382E+03  0.13546177382E+03  0.00000000000E+00 0. -1.
         21   -1    0    0  501  503 -0.00000000000E+00 -0.00000000000E+00 -0.25918503245E+03  0.25918503245E+03  0.00000000000E+00 0.  1.
          6    2    1    2  501    0 -0.69335719629E+01 -0.56173039611E+02 -0.10564267267E+03  0.21160547632E+03  0.17439328691E+03 0.  0.
         24    2    3    3    0    0 -0.61903214561E+02  0.52447825043E+01 -0.67250306158E+02  0.12055672956E+03  0.78433447241E+02 0.  0.
         -6    2    1    2    0  502  0.69335719629E+01  0.56173039611E+02 -0.18080585971E+02  0.18304132995E+03  0.17312924676E+03 0.  0.
        -24    2    5    5    0    0  0.60710331929E+02 -0.38775022267E+01 -0.65301004076E+01  0.10147227207E+03  0.80951839763E+02 0.  0.
          5    1    3    3  501    0  0.54969642598E+02 -0.61417822115E+02 -0.38392366507E+02  0.91048746761E+02  0.47000000000E+01 0. -1.
        -13    1    4    4    0    0 -0.18275219723E+02 -0.20017218289E+02 -0.64619768639E+02  0.70074154885E+02  0.00000000000E+00 0.  1.
         14    1    4    4    0    0 -0.43627994838E+02  0.25262000793E+02 -0.26305375191E+01  0.50482574670E+02  0.00000000000E+00 0. -1.
         -5    1    5    5    0  502 -0.53776759966E+02  0.60050541837E+02 -0.11550485563E+02  0.81569057885E+02  0.47000000000E+01 0.  1.
         11    1    6    6    0    0  0.89702167752E+01  0.19032423305E+02  0.28120321720E+02  0.35120512803E+02  0.00000000000E+00 0. -1.
        -12    1    6    6    0    0  0.51740115154E+02 -0.22909925532E+02 -0.34650422128E+02  0.66351759266E+02  0.00000000000E+00 0.  1.
</event>
<event>
12    1  0.8449700E-002  0.1875515E+03  0.7818608E-02  0.1161059E+00
         21   -1    0    0  501  502  0.00000000000E+00  0.00000000000E+00  0.11723414910E+04  0.11723414910E+04  0.00000000000E+00 0.  1.
         21   -1    0    0  502  503 -0.00000000000E+00 -0.00000000000E+00 -0.31427899329E+02  0.31427899329E+02  0.00000000000E+00 0.  1.
         -6    2    1    2    0  503  0.21706150940E-01  0.70774924013E+02  0.42895407768E+03  0.46752086061E+03  0.17194494470E+03 0.  0.
        -24    2    3    3    0    0  0.33396608838E+02  0.90840668006E+02  0.39863508948E+03  0.41794415987E+03  0.80000160969E+02 0.  0.
          6    2    1    2  501    0 -0.21706150940E-01 -0.70774924013E+02  0.71195951398E+03  0.73624852971E+03  0.17368493778E+03 0.  0.
         24    2    5    5    0    0  0.22965979452E+02 -0.39322605996E+02  0.67879379885E+03  0.68487016210E+03  0.78818868451E+02 0.  0.
          5    1    5    5  501    0 -0.22987685603E+02 -0.31452318017E+02  0.33165715133E+02  0.51378367610E+02  0.47000000000E+01 0. -1.
        -13    1    6    6    0    0  0.38642359494E+02 -0.41958207044E+02  0.27956060639E+03  0.28532061918E+03  0.00000000000E+00 0.  1.
         14    1    6    6    0    0 -0.15676380042E+02  0.26356010476E+01  0.39923319246E+03  0.39954954292E+03  0.00000000000E+00 0. -1.
         -5    1    3    3    0  503 -0.33374902687E+02 -0.20065743993E+02  0.30318988201E+02  0.49576700747E+02  0.47000000000E+01 0.  1.
         13    1    4    4    0    0  0.43001769212E+01  0.44242875918E+02  0.31341633384E+03  0.31655287380E+03  0.00000000000E+00 0. -1.
        -14    1    4    4    0    0  0.29096431917E+02  0.46597792088E+02  0.85218755638E+02  0.10139128607E+03  0.00000000000E+00 0.  1.
</event>
<event>
12    1  0.8449700E-002  0.2134665E+03  0.7818608E-02  0.1139368E+00
         21   -1    0    0  503  502  0.00000000000E+00  0.00000000000E+00  0.36083916199E+03  0.36083916199E+03  0.00000000000E+00 0.  1.
         21   -1    0    0  501  503 -0.00000000000E+00 -0.00000000000E+00 -0.23206818825E+03  0.23206818825E+03  0.00000000000E+00 0.  1.
          6    2    1    2  501    0 -0.12679091342E+03  0.58727876032E+01  0.26579497757E+03  0.33924707173E+03  0.16831868649E+03 0.  0.
         24    2    3    3    0    0 -0.15403147205E+03 -0.14169295830E+02  0.20915114964E+03  0.27310823000E+03  0.83171140272E+02 0.  0.
         -6    2    1    2    0  502  0.12679091342E+03 -0.58727876032E+01 -0.13702400382E+03  0.25366027851E+03  0.17163197228E+03 0.  0.
        -24    2    5    5    0    0  0.30827550428E+02  0.27292541137E+02 -0.11702501534E+03  0.15006995267E+03  0.84444750051E+02 0.  0.
          5    1    3    3  501    0  0.27240558632E+02  0.20042083434E+02  0.56643827930E+02  0.66138841731E+02  0.47000000000E+01 0. -1.
        -11    1    4    4    0    0 -0.59777395959E+02  0.34934415400E+02  0.77821574365E+02  0.10416308311E+03  0.00000000000E+00 0.  1.
         12    1    4    4    0    0 -0.94254076093E+02 -0.49103711230E+02  0.13132957527E+03  0.16894514689E+03  0.00000000000E+00 0. -1.
         -5    1    5    5    0  502  0.95963362992E+02 -0.33165328740E+02 -0.19998988479E+02  0.10359032584E+03  0.47000000000E+01 0.  1.
         11    1    6    6    0    0 -0.44442140393E+00  0.20519572285E+02  0.72305228057E+01  0.21760763249E+02  0.00000000000E+00 0. -1.
        -12    1    6    6    0    0  0.31271971832E+02  0.67729688519E+01 -0.12425553815E+03  0.12830918942E+03  0.00000000000E+00 0.  1.
</event>
<event>
12    1  0.8449700E-002  0.1807277E+03  0.7818608E-02  0.1167705E+00
         21   -1    0    0  503  502  0.00000000000E+00  0.00000000000E+00  0.15084100479E+03  0.15084100479E+03  0.00000000000E+00 0. -1.
         21   -1    0    0  501  503 -0.00000000000E+00 -0.00000000000E+00 -0.26434385402E+03  0.26434385402E+03  0.00000000000E+00 0. -1.
          6    2    1    2  501    0 -0.49376802331E+02  0.23109448564E+02  0.33917704632E+02  0.18388288404E+03  0.17230899319E+03 0.  0.
         24    2    3    3    0    0 -0.23029144205E+02 -0.45601361022E+02  0.59481870262E+02  0.10583808276E+03  0.71089951907E+02 0.  0.
         -6    2    1    2    0  502  0.49376802331E+02 -0.23109448564E+02 -0.14742055386E+03  0.23130197477E+03  0.16969286554E+03 0.  0.
        -24    2    5    5    0    0 -0.11532946563E+02 -0.39275200249E+02 -0.23033932530E+02  0.91783335866E+02  0.78854730257E+02 0.  0.
          5    1    3    3  501    0 -0.26347658125E+02  0.68710809586E+02 -0.25564165630E+02  0.78044801281E+02  0.47000000000E+01 0. -1.
        -13    1    4    4    0    0  0.63957752547E+01 -0.91796253805E+01  0.57918570398E+02  0.58989255464E+02  0.00000000000E+00 0.  1.
         14    1    4    4    0    0 -0.29424919460E+02 -0.36421735642E+02  0.15632998637E+01  0.46848827294E+02  0.00000000000E+00 0. -1.
         -5    1    5    5    0  502  0.60909748893E+02  0.16165751685E+02 -0.12438662133E+03  0.13951863891E+03  0.47000000000E+01 0.  1.
         13    1    6    6    0    0 -0.31554356967E+02 -0.54709347533E+02 -0.20384568143E+02  0.66365056840E+02  0.00000000000E+00 0. -1.
        -14    1    6    6    0    0  0.20021410405E+02  0.15434147284E+02 -0.26493643870E+01  0.25418279026E+02  0.00000000000E+00 0.  1.
</event>
<event>
12    1  0.8449700E-002  0.2177371E+03  0.7818608E-02  0.1135879E+00
         21   -1    0    0  501  502  0.00000000000E+00  0.00000000000E+00  0.49175000672E+02  0.49175000672E+02  0.00000000000E+00 0. -1.
         21   -1    0    0  502  503 -0.00000000000E+00 -0.00000000000E+00 -0.13017479034E+04  0.13017479034E+04  0.00000000000E+00 0.  1.
         -6    2    1    2    0  503  0.50959237106E+01  0.12931130367E+03 -0.97214541154E+03  0.99588907496E+03  0.17315012781E+03 0.  0.
        -24    2    3    3    0    0  0.52680440358E+02  0.13354271780E+03 -0.82208004973E+03  0.83833307252E+03  0.79861417773E+02 0.  0.
          6    2    1    2  501    0 -0.50959237106E+01 -0.12931130367E+03 -0.28042749114E+03  0.35503382906E+03  0.17510585454E+03 0.  0.
         24    2    5    5    0    0 -0.22584062078E+02 -0.39509416325E+01 -0.63771024152E+02  0.10406934942E+03  0.78981239336E+02 0.  0.
          5    1    5    5  501    0  0.17488138367E+02 -0.12536036204E+03 -0.21665646699E+03  0.25096447964E+03  0.47000000000E+01 0. -1.
        -11    1    6    6    0    0 -0.79976568610E+01  0.20466642514E+02 -0.71331274407E+02  0.74639109585E+02  0.00000000000E+00 0.  1.
         12    1    6    6    0    0 -0.14586405217E+02 -0.24417584146E+02  0.75602502552E+01  0.29430239833E+02  0.00000000000E+00 0. -1.
         -5    1    3    3    0  503 -0.47584516648E+02 -0.42314141257E+01 -0.15006536181E+03  0.15755600244E+03  0.47000000000E+01 0.  1.
         13    1    4    4    0    0  0.21619778801E+02  0.25892796048E+02 -0.67278278372E+02  0.75261002274E+02  0.00000000000E+00 0. -1.
        -14    1    4    4    0    0  0.31060661557E+02  0.10764992175E+03 -0.75480177136E+03  0.76307207025E+03  0.00000000000E+00 0.  1.
</event>
<event>
12    1  0.8449700E-002  0.2311704E+03  0.7818608E-02  0.1126061E+00
         21   -1    0    0  501  502  0.00000000000E+00  0.00000000000E+00  0.99205210114E+02  0.99205210114E+02  0.00000000000E+00 0. -1.
         21   -1    0    0  502  503 -0.00000000000E+00 -0.00000000000E+00 -0.71206704364E+03  0.71206704364E+03  0.00000000000E+00 0. -1.
         -6    2    1    2    0  503 -0.14922760768E+03 -0.33219767763E+02 -0.50913423363E+03  0.55915776010E+03  0.17339925308E+03 0.  0.
        -24    2    3    3    0    0 -0.19087613351E+01  0.21458954141E+01 -0.19645783819E+03  0.21167798964E+03  0.78763194912E+02 0.  0.
          6    2    1    2  501    0  0.14922760768E+03  0.33219767763E+02 -0.10372759989E+03  0.25211449365E+03  0.17155136567E+03 0.  0.
         24    2    5    5    0    0  0.48570496786E+02 -0.70116561237E-01 -0.11187042946E+03  0.14567922673E+03  0.79676508697E+02 0.  0.
          5    1    5    5  501    0  0.10065711089E+03  0.33289884324E+02  0.81428295649E+01  0.10643526692E+03  0.47000000000E+01 0. -1.
        -13    1    6    6    0    0 -0.19860073473E+02  0.55917438144E+01 -0.10256991108E+02  0.23041180174E+02  0.00000000000E+00 0.  1.
         14    1    6    6    0    0  0.68430570259E+02 -0.56618603757E+01 -0.10161343835E+03  0.12263804655E+03  0.00000000000E+00 0. -1.
         -5    1    3    3    0  503 -0.14731884634E+03 -0.35365663177E+02 -0.31267639544E+03  0.34747977047E+03  0.47000000000E+01 0.  1.
         11    1    4    4    0    0 -0.30138092452E+02 -0.21282682200E+02 -0.60542991216E+02  0.70899301574E+02  0.00000000000E+00 0. -1.
        -12    1    4    4    0    0  0.28229331117E+02  0.23428577614E+02 -0.13591484698E+03  0.14077868806E+03  0.00000000000E+00 0.  1.
</event>
<event>
12    1  0.8449700E-002  0.2053368E+03  0.7818608E-02  0.1145842E+00
         21   -1    0    0  501  502  0.00000000000E+00  0.00000000000E+00  0.21558290506E+04  0.21558290506E+04  0.00000000000E+00 0. -1.
         21   -1    0    0  502  503 -0.00000000000E+00 -0.00000000000E+00 -0.38296213831E+02  0.38296213831E+02  0.00000000000E+00 0. -1.
         -6    2    1    2    0  503 -0.10814056895E+03 -0.29470486716E+02  0.28301151251E+03  0.34814809654E+03  0.16896357202E+03 0.  0.
        -24    2    3    3    0    0 -0.87056263043E+02 -0.69654481924E+02  0.13254360348E+03  0.19091583816E+03  0.80315071126E+02 0.  0.
          6    2    1    2  501    0  0.10814056895E+03  0.29470486716E+02  0.18345213243E+04  0.18459771679E+04  0.17204744399E+03 0.  0.
         24    2    5    5    0    0  0.35047064768E+02  0.15912316700E+02  0.40124805750E+03  0.41076957611E+03  0.79057842324E+02 0.  0.
          5    1    5    5  501    0  0.73093504184E+02  0.13558170016E+02  0.14332732668E+04  0.14352075918E+04  0.47000000000E+01 0. -1.
        -13    1    6    6    0    0 -0.23489127022E+02 -0.48887634372E+01  0.15283024235E+03  0.15470204289E+03  0.00000000000E+00 0.  1.
         14    1    6    6    0    0  0.58536191791E+02  0.20801080137E+02  0.24841781515E+03  0.25606753322E+03  0.00000000000E+00 0. -1.
         -5    1    3    3    0  503 -0.21084305909E+02  0.40183995208E+02  0.15046790903E+03  0.15723225838E+03  0.47000000000E+01 0.  1.
         13    1    4    4    0    0 -0.11881278478E+02  0.68791627403E+01 -0.65879212286E+01  0.15227881152E+02  0.00000000000E+00 0. -1.
        -14    1    4    4    0    0 -0.75174984565E+02 -0.76533644664E+02  0.13913152471E+03  0.17568795701E+03  0.00000000000E+00 0.  1.
</event>
<event>
12    1  0.8449700E-002  0.2136921E+03  0.7818608E-02  0.1138691E+00
         21   -1    0    0  503  502  0.00000000000E+00  0.00000000000E+00  0.48438735343E+03  0.48438735343E+03  0.00000000000E+00 0. -1.
         21   -1    0    0  501  503 -0.00000000000E+00 -0.00000000000E+00 -0.94932203127E+02  0.94932203127E+02  0.00000000000E+00 0.  1.
          6    2    1    2  501    0 -0.12433777205E+03 -0.22005361277E+02  0.16990326203E+03  0.27294175078E+03  0.17229615025E+03 0.  0.
         24    2    3    3    0    0 -0.20743573656E+02  0.65193154261E+01  0.17444373264E+02  0.86364105056E+02  0.81741391975E+02 0.  0.
         -6    2    1    2    0  502  0.12433777205E+03  0.22005361277E+02  0.21955188828E+03  0.30637780577E+03  0.17239550673E+03 0.  0.
        -24    2    5    5    0    0  0.85927561178E+02 -0.49040376237E+02  0.16672782700E+03  0.20975838450E+03  0.80074386033E+02 0.  0.
          5    1    3    3  501    0 -0.10359419840E+03 -0.28524676703E+02  0.15245888876E+03  0.18657764573E+03  0.47000000000E+01 0. -1.
        -11    1    4    4    0    0 -0.33952874206E+02 -0.25881880024E+02 -0.75611649427E+01  0.43357128546E+02  0.00000000000E+00 0.  1.
         12    1    4    4    0    0  0.13209300550E+02  0.32401195450E+02  0.25005538206E+02  0.43006976511E+02  0.00000000000E+00 0. -1.
         -5    1    5    5    0  502  0.38410210873E+02  0.71045737514E+02  0.52824061272E+02  0.96619421275E+02  0.47000000000E+01 0.  1.
         13    1    6    6    0    0  0.10977584454E+02 -0.51002069095E+02  0.63690199141E+02  0.82329580826E+02  0.00000000000E+00 0. -1.
        -14    1    6    6    0    0  0.74949976725E+02  0.19616928575E+01  0.10303762786E+03  0.12742880367E+03  0.00000000000E+00 0.  1.
</event>
<event>
12    1  0.8449700E-002  0.1970710E+03  0.7818608E-02  0.1153234E+00
         21   -1    0    0  501  502  0.00000000000E+00  0.00000000000E+00  0.24255505687E+03  0.24255505687E+03  0.00000000000E+00 0. -1.
         21   -1    0    0  502  503 -0.00000000000E+00 -0.00000000000E+00 -0.26150662195E+03  0.26150662195E+03  0.00000000000E+00 0. -1.
         -6    2    1    2    0  503  0.45968869199E+01 -0.88464016417E+02 -0.16917849653E+03  0.25626117262E+03  0.17088420446E+03 0.  0.
        -24    2    3    3    0    0 -0.41479042115E+02 -0.19273212698E+01 -0.10829744522E+03  0.14076146157E+03  0.79757300113E+02 0.  0.
          6    2    1    2  501    0 -0.45968869199E+01  0.88464016417E+02  0.15022693145E+03  0.24780050620E+03  0.17603961591E+03 0.  0.
         24    2    5    5    0    0 -0.14567126270E+00  0.55789137399E+02  0.17885703112E+03  0.20387746387E+03  0.80397348349E+02 0.  0.
          5    1    5    5  501    0 -0.44512156572E+01  0.32674879019E+02 -0.28630099672E+02  0.43923042323E+02  0.47000000000E+01 0. -1.
        -13    1    6    6    0    0 -0.89027637395E+01 -0.19198374454E+02  0.27152827118E+02  0.34425467381E+02  0.00000000000E+00 0.  1.
         14    1    6    6    0    0  0.87570924768E+01  0.74987511853E+02  0.15170420401E+03  0.16945199649E+03  0.00000000000E+00 0. -1.
         -5    1    3    3    0  503  0.46075929035E+02 -0.86536695147E+02 -0.60881051310E+02  0.11549971105E+03  0.47000000000E+01 0.  1.
         11    1    4    4    0    0 -0.27063004685E+02 -0.11640843884E+02 -0.11746917148E+03  0.12110706717E+03  0.00000000000E+00 0. -1.
        -12    1    4    4    0    0 -0.14416037430E+02  0.97135226143E+01  0.91717262650E+01  0.19654394405E+02  0.00000000000E+00 0.  1.
</event>
<event>
12    1  0.8449700E-002  0.1788528E+03  0.7818608E-02  0.1169202E+00
         21   -1    0    0  503  502  0.00000000000E+00  0.00000000000E+00  0.18807582676E+03  0.18807582676E+03  0.00000000000E+00 0.  1.
         21   -1    0    0  501  503 -0.00000000000E+00 -0.00000000000E+00 -0.24703051500E+03  0.24703051500E+03  0.00000000000E+00 0.  1.
          6    2    1    2  501    0  0.48370177579E+02 -0.53474145642E+01 -0.15182889394E+03  0.23460678514E+03  0.17210479853E+03 0.  0.
         24    2    3    3    0    0 -0.13245508470E+02 -0.51625248331E+02 -0.58144717385E+02  0.11321096312E+03  0.81211478573E+02 0.  0.
         -6    2    1    2    0  502 -0.48370177579E+02  0.53474145642E+01  0.92874205699E+02  0.20049955662E+03  0.17089817202E+03 0.  0.
        -24    2    5    5    0    0 -0.93884993583E+02 -0.12835699135E+02  0.83994143942E+02  0.15046787070E+03  0.81279866527E+02 0.  0.
          5    1    3    3  501    0  0.61615686049E+02  0.46277833767E+02 -0.93684176555E+02  0.12139582201E+03  0.47000000000E+01 0. -1.
        -11    1    4    4    0    0 -0.30496438442E+02 -0.10667724405E+02 -0.60628146233E+02  0.68699382947E+02  0.00000000000E+00 0.  1.
         12    1    4    4    0    0  0.17250929972E+02 -0.40957523927E+02  0.24834288483E+01  0.44511580178E+02  0.00000000000E+00 0. -1.
         -5    1    5    5    0  502  0.45514816004E+02  0.18183113699E+02  0.88800617571E+01  0.50031685925E+02  0.47000000000E+01 0.  1.
         11    1    6    6    0    0 -0.37781839234E+02 -0.37704350080E+02  0.99462555264E+01  0.54295611147E+02  0.00000000000E+00 0. -1.
        -12    1    6    6    0    0 -0.56103154349E+02  0.24868650946E+02  0.74047888416E+02  0.96172259548E+02  0.00000000000E+00 0.  1.
</event>
<event>
12    1  0.8449700E-002  0.2317314E+03  0.7818608E-02  0.1126012E+00
         21   -1    0    0  503  502  0.00000000000E+00  0.00000000000E+00  0.47285810676E+03  0.47285810676E+03  0.00000000000E+00 0.  1.
         21   -1    0    0  501  503 -0.00000000000E+00 -0.00000000000E+00 -0.25746005309E+03  0.25746005309E+03  0.00000000000E+00 0. -1.
          6    2    1    2  501    0 -0.40188288255E+01  0.14669105246E+03  0.38256763086E+03  0.44727781946E+03  0.17934614504E+03 0.  0.
         24    2    3    3    0    0  0.40465793431E+02  0.15793331420E+03  0.26768647914E+03  0.32348347756E+03  0.80031849690E+02 0.  0.
         -6    2    1    2    0  502  0.40188288255E+01 -0.14669105246E+03 -0.16716957720E+03  0.28304034039E+03  0.17501928720E+03 0.  0.
        -24    2    5    5    0    0  0.69709706712E+02 -0.73336889778E+02 -0.78602601728E+02  0.15051742251E+03  0.78989764322E+02 0.  0.
          5    1    3    3  501    0 -0.44484622257E+02 -0.11242261740E+02  0.11488115172E+03  0.12379434190E+03  0.47000000000E+01 0. -1.
        -11    1    4    4    0    0  0.15813439121E+02  0.11579902000E+03  0.11818652775E+03  0.16621532189E+03  0.00000000000E+00 0.  1.
         12    1    4    4    0    0  0.24652354310E+02  0.42134294203E+02  0.14949995139E+03  0.15726815567E+03  0.00000000000E+00 0. -1.
         -5    1    5    5    0  502 -0.65690877887E+02 -0.73354162681E+02 -0.88566975468E+02  0.13252291788E+03  0.47000000000E+01 0.  1.
         11    1    6    6    0    0  0.72756127765E+01 -0.39214160926E+02 -0.67646345244E+02  0.78528421500E+02  0.00000000000E+00 0. -1.
        -12    1    6    6    0    0  0.62434093936E+02 -0.34122728852E+02 -0.10956256484E+02  0.71989001007E+02  0.00000000000E+00 0.  1.
</event>
<event>
12    1  0.8449700E-002  0.2227492E+03  0.7818608E-02  0.1131878E+00
         21   -1    0    0  503  502  0.00000000000E+00  0.00000000000E+00  0.20362224606E+03  0.20362224606E+03  0.00000000000E+00 0.  1.
         21   -1    0    0  501  503 -0.00000000000E+00 -0.00000000000E+00 -0.29618864494E+03  0.29618864494E+03  0.00000000000E+00 0.  1.
          6    2    1    2  501    0  0.64316411958E+02  0.12645849461E+03 -0.15166913257E+03  0.26935403959E+03  0.17152178044E+03 0.  0.
         24    2    3    3    0    0 -0.22159208170E+02  0.15569315821E+02 -0.92892197462E+02  0.11687039801E+03  0.65546132457E+02 0.  0.
         -6    2    1    2    0  502 -0.64316411958E+02 -0.12645849461E+03  0.59102733693E+02  0.23045685140E+03  0.17172325271E+03 0.  0.
        -24    2    5    5    0    0 -0.49957695581E+02 -0.15960873401E+03  0.45066485356E+02  0.19141562479E+03  0.81475358180E+02 0.  0.
          5    1    3    3  501    0  0.86475620128E+02  0.11088917879E+03 -0.58776935105E+02  0.15248364158E+03  0.47000000000E+01 0. -1.
        -13    1    4    4    0    0  0.16264684334E+00  0.11051628269E+02 -0.93437977022E+02  0.94089428159E+02  0.00000000000E+00 0.  1.
         14    1    4    4    0    0 -0.22321855014E+02  0.45176875529E+01  0.54577955961E+00  0.22780969852E+02  0.00000000000E+00 0. -1.
         -5    1    5    5    0  502 -0.14358716376E+02  0.33150239400E+02  0.14036248337E+02  0.39041226615E+02  0.47000000000E+01 0.  1.
         11    1    6    6    0    0 -0.15203801934E+02 -0.70829044322E+00  0.22552926700E+02  0.27208303353E+02  0.00000000000E+00 0. -1.
        -12    1    6    6    0    0 -0.34753893647E+02 -0.15890044357E+03  0.22513558655E+02  0.16420732144E+03  0.00000000000E+00 0.  1.
</event>
<event>
12    1  0.8449700E-002  0.1816003E+03  0.7818608E-02  0.1166340E+00
         21   -1    0    0  501  502  0.00000000000E+00  0.00000000000E+00  0.23048310970E+02  0.23048310970E+02  0.00000000000E+00 0. -1.
         21   -1    0    0  502  503 -0.00000000000E+00 -0.00000000000E+00 -0.28423310489E+04  0.28423310489E+04  0.00000000000E+00 0. -1.
         -6    2    1    2    0  503 -0.42594211988E+02 -0.40866799497E+02 -0.24207712510E+04  0.24275733004E+04  0.17173909527E+03 0.  0.
        -24    2    3    3    0    0 -0.92615110436E+02 -0.43212437589E+02 -0.16682007665E+04  0.16733239938E+04  0.81697720324E+02 0.  0.
          6    2    1    2  501    0  0.42594211988E+02  0.40866799497E+02 -0.39851148697E+03  0.43780605953E+03  0.17140122030E+03 0.  0.
         24    2    5    5    0    0  0.41550520428E+02 -0.25552137937E+02 -0.30089858436E+03  0.31964120309E+03  0.96183070971E+02 0.  0.
          5    1    5    5  501    0  0.10436915609E+01  0.66418937434E+02 -0.97612902609E+02  0.11816485644E+03  0.47000000000E+01 0. -1.
        -11    1    6    6    0    0 -0.31266041083E+02 -0.13384478708E+02 -0.93057093682E+02  0.99077405496E+02  0.00000000000E+00 0.  1.
         12    1    6    6    0    0  0.72816561511E+02 -0.12167659229E+02 -0.20784149068E+03  0.22056379759E+03  0.00000000000E+00 0. -1.
         -5    1    3    3    0  503  0.50020898447E+02  0.23456380921E+01 -0.75257048455E+03  0.75424930660E+03  0.47000000000E+01 0.  1.
         13    1    4    4    0    0 -0.58916023084E+02  0.17345804853E+02 -0.81985457843E+03  0.82215175272E+03  0.00000000000E+00 0. -1.
        -14    1    4    4    0    0 -0.33699087352E+02 -0.60558242442E+02 -0.84834618803E+03  0.85117224106E+03  0.00000000000E+00 0.  1.
</event>
<event>
12    1  0.8449700E-002  0.1753920E+03  0.7818608E-02  0.1172584E+00
         21   -1    0    0  503  502  0.00000000000E+00  0.00000000000E+00  0.40734427382E+03  0.40734427382E+03  0.00000000000E+00 0.  1.
         21   -1    0    0  501  503 -0.00000000000E+00 -0.00000000000E+00 -0.18729576983E+03  0.18729576983E+03  0.00000000000E+00 0.  1.
          6    2    1    2  501    0  0.25491587747E+02  0.57669675771E+01 -0.12021540448E+03  0.21183215285E+03  0.17244720510E+03 0.  0.
         24    2    3    3    0    0  0.67636476287E+02  0.15111941676E+02 -0.24197302855E+02  0.10645148095E+03  0.77093090651E+02 0.  0.
         -6    2    1    2    0  502 -0.25491587747E+02 -0.57669675771E+01  0.34026390846E+03  0.38280789080E+03  0.17343377669E+03 0.  0.
        -24    2    5    5    0    0 -0.68587912456E+02 -0.46069140565E+02  0.20473448211E+03  0.23491646523E+03  0.80267490448E+02 0.  0.
          5    1    3    3  501    0 -0.42144888540E+02 -0.93449740992E+01 -0.96018101620E+02  0.10538067190E+03  0.47000000000E+01 0. -1.
        -13    1    4    4    0    0  0.20309739729E+02 -0.28982232217E+02 -0.22118221601E+02  0.41733332469E+02  0.00000000000E+00 0.  1.
         14    1    4    4    0    0  0.47326736558E+02  0.44094173893E+02 -0.20790812539E+01  0.64718148486E+02  0.00000000000E+00 0. -1.
         -5    1    5    5    0  502  0.43096324709E+02  0.40302172987E+02  0.13552942635E+03  0.14789142557E+03  0.47000000000E+01 0.  1.
         13    1    6    6    0    0  0.89120668624E+01 -0.24313467080E+02  0.17901509152E+02  0.31480686891E+02  0.00000000000E+00 0. -1.
        -14    1    6    6    0    0 -0.77499979319E+02 -0.21755673484E+02  0.18683297296E+03  0.20343577834E+03  0.00000000000E+00 0.  1.
</event>
<event>
12    1  0.8449700E-002  0.3224047E+03  0.7818608E-02  0.1074588E+00
         21   -1    0    0  501  502  0.00000000000E+00  0.00000000000E+00  0.26892447153E+03  0.26892447153E+03  0.00000000000E+00 0.  1.
         21   -1    0    0  502  503 -0.00000000000E+00 -0.00000000000E+00 -0.56223705097E+03  0.56223705097E+03  0.00000000000E+00 0. -1.
         -6    2    1    2    0  503  0.20279836940E+03  0.18168800973E+03 -0.37920868342E+03  0.49751058065E+03  0.17198790878E+03 0.  0.
        -24    2    3    3    0    0  0.14568051717E+03  0.20137647223E+03 -0.30257716637E+03  0.39981429616E+03  0.80766534858E+02 0.  0.
          6    2    1    2  501    0 -0.20279836940E+03 -0.18168800973E+03  0.85896103975E+02  0.33365094185E+03  0.17264732494E+03 0.  0.
         24    2    5    5    0    0 -0.12915366096E+03 -0.15227116593E+03 -0.29962550247E+01  0.21443334555E+03  0.78137737520E+02 0.  0.
          5    1    5    5  501    0 -0.73644708442E+02 -0.29416843801E+02  0.88892358999E+02  0.11921759631E+03  0.47000000000E+01 0. -1.
        -13    1    6    6    0    0 -0.98737390614E+01 -0.58921591250E+02  0.15823106223E+02  0.61803036568E+02  0.00000000000E+00 0.  1.
         14    1    6    6    0    0 -0.11927992190E+03 -0.93349574681E+02 -0.18819361248E+02  0.15263030898E+03  0.00000000000E+00 0. -1.
         -5    1    3    3    0  503  0.57117852230E+02 -0.19688462496E+02 -0.76631517045E+02  0.97696284491E+02  0.47000000000E+01 0.  1.
         11    1    4    4    0    0  0.59705571267E+02  0.52732878883E+02 -0.15119911479E+03  0.17089963156E+03  0.00000000000E+00 0. -1.
        -12    1    4    4    0    0  0.85974945903E+02  0.14864359334E+03 -0.15137805159E+03  0.22891466460E+03  0.00000000000E+00 0.  1.
</event>
<event>
12    1  0.8449700E-002  0.4545967E+03  0.7818608E-02  0.1026390E+00
         21   -1    0    0  503  502  0.00000000000E+00  0.00000000000E+00  0.12250520469E+04  0.12250520469E+04  0.00000000000E+00 0.  1.
         21   -1    0    0  501  503 -0.00000000000E+00 -0.00000000000E+00 -0.41800854091E+03  0.41800854091E+03  0.00000000000E+00 0. -1.
          6    2    1    2  501    0  0.41995231230E+03 -0.17704644464E+02 -0.23105969747E+03  0.50994778410E+03  0.17316108011E+03 0.  0.
         24    2    3    3    0    0  0.12329880973E+03  0.33581440490E+02 -0.50087107404E+02  0.15865484159E+03  0.79575943641E+02 0.  0.
         -6    2    1    2    0  502 -0.41995231230E+03  0.17704644464E+02  0.10381032034E+04  0.11331128037E+04  0.17208418248E+03 0.  0.
        -24    2    5    5    0    0 -0.18463366857E+03  0.42433621198E+02  0.35134805134E+03  0.40672371008E+03  0.78028965048E+02 0.  0.
          5    1    3    3  501    0  0.29665350257E+03 -0.51286084953E+02 -0.18097259007E+03  0.35129294250E+03  0.47000000000E+01 0. -1.
        -13    1    4    4    0    0  0.10060207022E+03  0.54561165334E+02 -0.21285706211E+02  0.11640781152E+03  0.00000000000E+00 0.  1.
         14    1    4    4    0    0  0.22696739515E+02 -0.20979724845E+02 -0.28801401192E+02  0.42247030071E+02  0.00000000000E+00 0. -1.
         -5    1    5    5    0  502 -0.23531864373E+03 -0.24728976734E+02  0.68675515209E+03  0.72638909360E+03  0.47000000000E+01 0.  1.
         13    1    6    6    0    0 -0.64836614721E+02  0.38371267031E+02  0.19959701230E+03  0.21334270098E+03  0.00000000000E+00 0. -1.
        -14    1    6    6    0    0 -0.11979705385E+03  0.40623541673E+01  0.15175103904E+03  0.19338100910E+03  0.00000000000E+00 0.  1.
</event>
<event>
12    1  0.8449700E-002  0.1977915E+03  0.7818608E-02  0.1152168E+00
         21   -1    0    0  503  502  0.00000000000E+00  0.00000000000E+00  0.61039889230E+02  0.61039889230E+02  0.00000000000E+00 0. -1.
         21   -1    0    0  501  503 -0.00000000000E+00 -0.00000000000E+00 -0.83148696745E+03  0.83148696745E+03  0.00000000000E+00 0.  1.
          6    2    1    2  501    0 -0.37316719479E+02  0.86810373055E+02 -0.60536507138E+03  0.63685817532E+03  0.17376100656E+03 0.  0.
         24    2    3    3    0    0 -0.70881558648E+02  0.11030298849E+03 -0.48677423325E+03  0.51130189990E+03  0.85378768211E+02 0.  0.
         -6    2    1    2    0  502  0.37316719479E+02 -0.86810373055E+02 -0.16508200685E+03  0.25566868137E+03  0.17083859992E+03 0.  0.
        -24    2    5    5    0    0  0.36080841329E+01 -0.12246673530E+03 -0.12463669737E+03  0.19190692696E+03  0.79264385189E+02 0.  0.
          5    1    3    3  501    0  0.33564839169E+02 -0.23492615434E+02 -0.11859083813E+03  0.12555627542E+03  0.47000000000E+01 0. -1.
        -13    1    4    4    0    0 -0.73976001752E+02  0.38271063071E+02 -0.29051093335E+03  0.30221470099E+03  0.00000000000E+00 0.  1.
         14    1    4    4    0    0  0.30944431039E+01  0.72031925419E+02 -0.19626329990E+03  0.20908719890E+03  0.00000000000E+00 0. -1.
         -5    1    5    5    0  502  0.33708635346E+02  0.35656362247E+02 -0.40445309478E+02  0.63761754401E+02  0.47000000000E+01 0.  1.
         13    1    6    6    0    0  0.73950617817E+01 -0.26206080700E+01  0.92812713868E+01  0.12153045872E+02  0.00000000000E+00 0. -1.
        -14    1    6    6    0    0 -0.37869776488E+01 -0.11984612723E+03 -0.13391796876E+03  0.17975388109E+03  0.00000000000E+00 0.  1.
</event>
<event>
12    1  0.8449700E-002  0.2805446E+03  0.7818608E-02  0.1096084E+00
         21   -1    0    0  501  502  0.00000000000E+00  0.00000000000E+00  0.42338298664E+03  0.42338298664E+03  0.00000000000E+00 0.  1.
         21   -1    0    0  502  503 -0.00000000000E+00 -0.00000000000E+00 -0.19834340701E+03  0.19834340701E+03  0.00000000000E+00 0.  1.
         -6    2    1    2    0  503  0.92998775601E+02  0.19353036689E+03  0.25810468356E+02  0.28172943214E+03  0.18056167225E+03 0.  0.
        -24    2    3    3    0    0  0.78954868665E+02  0.20564534908E+03  0.60601561646E+02  0.24202408882E+03  0.79870078327E+02 0.  0.
          6    2    1    2  501    0 -0.92998775601E+02 -0.19353036689E+03  0.19922911127E+03  0.33999696150E+03  0.17263522202E+03 0.  0.
         24    2    5    5    0    0  0.18949577901E+02 -0.76871513120E+02  0.10222441168E+03  0.15138698362E+03  0.78739268692E+02 0.  0.
          5    1    5    5  501    0 -0.11194835350E+03 -0.11665885377E+03  0.97004699594E+02  0.18860997788E+03  0.47000000000E+01 0. -1.
        -11    1    6    6    0    0 -0.71306528230E+01 -0.84125310834E+02  0.73811314408E+02  0.11214287435E+03  0.00000000000E+00 0.  1.
         12    1    6    6    0    0  0.26080230724E+02  0.72537977138E+01  0.28413097270E+02  0.39244109270E+02  0.00000000000E+00 0. -1.
         -5    1    3    3    0  503  0.14043906937E+02 -0.12114982196E+02 -0.34791093291E+02  0.39705343318E+02  0.47000000000E+01 0.  1.
         13    1    4    4    0    0  0.37100866389E+02  0.19564568872E+02  0.15017204562E+00  0.41943643066E+02  0.00000000000E+00 0. -1.
        -14    1    4    4    0    0  0.41854002275E+02  0.18608078021E+03  0.60451389601E+02  0.20008044576E+03  0.00000000000E+00 0.  1.
</event>
<event>
12    1  0.8449700E-002  0.2208621E+03  0.7818608E-02  0.1133888E+00
         21   -1    0    0  503  502  0.00000000000E+00  0.00000000000E+00  0.19778844340E+03  0.19778844340E+03  0.00000000000E+00 0.  1.
         21   -1    0    0  501  503 -0.00000000000E+00 -0.00000000000E+00 -0.24442095966E+03  0.24442095966E+03  0.00000000000E+00 0.  1.
          6    2    1    2  501    0  0.74116135411E+02  0.11897807193E+03 -0.41577043144E+02  0.22474149223E+03  0.17067836618E+03 0.  0.
         24    2    3    3    0    0  0.49125250412E+02  0.14412489373E+03 -0.31443614725E+01  0.17224322559E+03  0.80452262431E+02 0.  0.
         -6    2    1    2    0  502 -0.74116135411E+02 -0.11897807193E+03 -0.50554731078E+01  0.21746791084E+03  0.16618589382E+03 0.  0.
        -24    2    5    5    0    0 -0.89465887581E+00 -0.95236678916E+01  0.21606272460E+02  0.83026139551E+02  0.79592764586E+02 0.  0.
          5    1    3    3  501    0  0.24990885000E+02 -0.25146821801E+02 -0.38432681671E+02  0.52498266640E+02  0.47000000000E+01 0. -1.
        -11    1    4    4    0    0  0.50650303154E+02  0.10081163233E+03 -0.35370521679E+02  0.11823498732E+03  0.00000000000E+00 0.  1.
         12    1    4    4    0    0 -0.15250527423E+01  0.43313261405E+02  0.32226160206E+02  0.54008238270E+02  0.00000000000E+00 0. -1.
         -5    1    5    5    0  502 -0.73221476536E+02 -0.10945440404E+03 -0.26661745568E+02  0.13444177128E+03  0.47000000000E+01 0.  1.
         11    1    6    6    0    0 -0.32043154059E+02  0.18964030323E+02  0.45977734018E+01  0.37517165250E+02  0.00000000000E+00 0. -1.
        -12    1    6    6    0    0  0.31148495183E+02 -0.28487698215E+02  0.17008499058E+02  0.45508974301E+02  0.00000000000E+00 0.  1.
</event>
<event>
12    1  0.8449700E-002  0.2257150E+03  0.7818608E-02  0.1129808E+00
         21   -1    0    0  503  502  0.00000000000E+00  0.00000000000E+00  0.15747907546E+03  0.15747907546E+03  0.00000000000E+00 0.  1.
         21   -1    0    0  501  503 -0.00000000000E+00 -0.00000000000E+00 -0.48711753498E+03  0.48711753498E+03  0.00000000000E+00 0. -1.
          6    2    1    2  501    0 -0.14325975279E+03  0.21987486250E+02 -0.35227406494E+03  0.41838290715E+03  0.17303304265E+03 0.  0.
         24    2    3    3    0    0 -0.75196052164E+02 -0.43644702276E+02 -0.12718862040E+03  0.17419896243E+03  0.81295922759E+02 0.  0.
         -6    2    1    2    0  502  0.14325975279E+03 -0.21987486250E+02  0.22635605415E+02  0.22621370329E+03  0.17220180778E+03 0.  0.
        -24    2    5    5    0    0  0.11555219632E+02  0.26893340986E+02  0.11199539104E+02  0.85187844175E+02  0.79213409401E+02 0.  0.
          5    1    3    3  501    0 -0.68063700625E+02  0.65632188526E+02 -0.22508544454E+03  0.24418394472E+03  0.47000000000E+01 0. -1.
        -11    1    4    4    0    0 -0.61565240001E+02 -0.34652111842E+02 -0.31890101658E+02  0.77511458606E+02  0.00000000000E+00 0.  1.
         12    1    4    4    0    0 -0.13630812163E+02 -0.89925904343E+01 -0.95298518738E+02  0.96687503829E+02  0.00000000000E+00 0. -1.
         -5    1    5    5    0  502  0.13170453316E+03 -0.48880827236E+02  0.11436066310E+02  0.14102585911E+03  0.47000000000E+01 0.  1.
         11    1    6    6    0    0  0.31752669371E+02  0.46225217534E+02  0.35028575459E+01  0.56189614336E+02  0.00000000000E+00 0. -1.
        -12    1    6    6    0    0 -0.20197449739E+02 -0.19331876548E+02  0.76966815584E+01  0.28998229839E+02  0.00000000000E+00 0.  1.
</event>
<event>
12    1  0.8449700E-002  0.2617383E+03  0.7818608E-02  0.1106256E+00
         21   -1    0    0  501  502  0.00000000000E+00  0.00000000000E+00  0.44822341456E+03  0.44822341456E+03  0.00000000000E+00 0. -1.
         21   -1    0    0  502  503 -0.00000000000E+00 -0.00000000000E+00 -0.15234340015E+03  0.15234340015E+03  0.00000000000E+00 0.  1.
         -6    2    1    2    0  503  0.19573701946E+03  0.11250713656E+02  0.14000980422E+03  0.29593182632E+03  0.17185267296E+03 0.  0.
        -24    2    3    3    0    0  0.61726157387E+02 -0.70671469330E+01  0.12279810750E+03  0.15950313551E+03  0.80633814010E+02 0.  0.
          6    2    1    2  501    0 -0.19573701946E+03 -0.11250713656E+02  0.15587021019E+03  0.30463498838E+03  0.17339952242E+03 0.  0.
         24    2    5    5    0    0 -0.16916743872E+03 -0.67617692618E+02  0.11368617614E+03  0.22923762990E+03  0.80222002197E+02 0.  0.
          5    1    5    5  501    0 -0.26569580744E+02  0.56366978962E+02  0.42184034045E+02  0.75397358485E+02  0.47000000000E+01 0. -1.
        -11    1    6    6    0    0 -0.13178674961E+03 -0.41496218812E+02  0.42240145937E+02  0.14447807265E+03  0.00000000000E+00 0.  1.
         12    1    6    6    0    0 -0.37380689109E+02 -0.26121473806E+02  0.71446030205E+02  0.84759557244E+02  0.00000000000E+00 0. -1.
         -5    1    3    3    0  503  0.13401086208E+03  0.18317860589E+02  0.17211696725E+02  0.13642869081E+03  0.47000000000E+01 0.  1.
         11    1    4    4    0    0  0.41674645951E+02  0.63124016684E+01  0.88964511337E+01  0.43078641723E+02  0.00000000000E+00 0. -1.
        -12    1    4    4    0    0  0.20051511436E+02 -0.13379548601E+02  0.11390165636E+03  0.11642449379E+03  0.00000000000E+00 0.  1.
</event>
<event>
12    1  0.8449700E-002  0.2619830E+03  0.7818608E-02  0.1105997E+00
         21   -1    0    0  501  502  0.00000000000E+00  0.00000000000E+00  0.14186003853E+03  0.14186003853E+03  0.00000000000E+00 0. -1.
         21   -1    0    0  502  503 -0.00000000000E+00 -0.00000000000E+00 -0.55939208022E+03  0.55939208022E+03  0.00000000000E+00 0.  1.
         -6    2    1    2    0  503 -0.16160843131E+03 -0.11275709554E+03 -0.79565844282E+02  0.27379887191E+03  0.17263733958E+03 0.  0.
        -24    2    3    3    0    0 -0.11155881224E+02 -0.55876803087E+02 -0.54655438246E+02  0.11096780661E+03  0.77974139077E+02 0.  0.
          6    2    1    2  501    0  0.16160843131E+03  0.11275709554E+03 -0.33796619741E+03  0.42745324684E+03  0.17223147210E+03 0.  0.
         24    2    5    5    0    0  0.96494817602E+02 -0.11370606038E+01 -0.20804057516E+03  0.24275235672E+03  0.79594491343E+02 0.  0.
          5    1    5    5  501    0  0.65113613707E+02  0.11389415615E+03 -0.12992562225E+03  0.18470089012E+03  0.47000000000E+01 0. -1.
        -11    1    6    6    0    0  0.59218969783E+02  0.37851147691E+02 -0.10335879126E+03  0.12499054162E+03  0.00000000000E+00 0.  1.
         12    1    6    6    0    0  0.37275847818E+02 -0.38988208294E+02 -0.10468178389E+03  0.11776181510E+03  0.00000000000E+00 0. -1.
         -5    1    3    3    0  503 -0.15045255009E+03 -0.56880292457E+02 -0.24910406036E+02  0.16283106530E+03  0.47000000000E+01 0.  1.
         13    1    4    4    0    0 -0.36155200826E+02 -0.56070522161E+02 -0.22867464284E+02  0.70526753257E+02  0.00000000000E+00 0. -1.
        -14    1    4    4    0    0  0.24999319602E+02  0.19371907467E+00 -0.31787973962E+02  0.40441053353E+02  0.00000000000E+00 0.  1.
</event>
<event>
12    1  0.8449700E-002  0.1920102E+03  0.7818608E-02  0.1156914E+00
         21   -1    0    0  501  502  0.00000000000E+00  0.00000000000E+00  0.21704556959E+03  0.21704556959E+03  0.00000000000E+00 0. -1.
         21   -1    0    0  502  503 -0.00000000000E+00 -0.00000000000E+00 -0.37723298267E+03  0.37723298267E+03  0.00000000000E+00 0. -1.
         -6    2    1    2    0  503 -0.78137287966E+02  0.31640273354E+02 -0.30082670422E+03  0.35627152868E+03  0.17124880585E+03 0.  0.
        -24    2    3    3    0    0 -0.91619786661E+02 -0.28644108557E+02 -0.24156454390E+03  0.27053893208E+03  0.74988096639E+02 0.  0.
          6    2    1    2  501    0  0.78137287966E+02 -0.31640273354E+02  0.14063929113E+03  0.23800702358E+03  0.17251489906E+03 0.  0.
         24    2    5    5    0    0  0.62496809502E+02 -0.64981044910E+02  0.33706096115E+02  0.12481236907E+03  0.79458411518E+02 0.  0.
          5    1    5    5  501    0  0.15640478463E+02  0.33340771556E+02  0.10693319502E+03  0.11319465452E+03  0.47000000000E+01 0. -1.
        -13    1    6    6    0    0  0.36145756831E+02 -0.23137543486E+02  0.56013003477E+02  0.70564284266E+02  0.00000000000E+00 0.  1.
         14    1    6    6    0    0  0.26351052671E+02 -0.41843501424E+02 -0.22306907362E+02  0.54248084799E+02  0.00000000000E+00 0. -1.
         -5    1    3    3    0  503  0.13482498696E+02  0.60284381911E+02 -0.59262160322E+02  0.85732596599E+02  0.47000000000E+01 0.  1.
         13    1    4    4    0    0 -0.36414461207E+02 -0.11667526685E+01 -0.22182334987E+02  0.42654780298E+02  0.00000000000E+00 0. -1.
        -14    1    4    4    0    0 -0.55205325454E+02 -0.27477355889E+02 -0.21938220891E+03  0.22788415178E+03  0.00000000000E+00 0.  1.
</event>
<event>
12    1  0.8449700E-002  0.1804169E+03  0.7818608E-02  0.1168987E+00
         21   -1    0    0  503  502  0.00000000000E+00  0.00000000000E+00  0.24329064151E+03  0.24329064151E+03  0.00000000000E+00 0.  1.
         21   -1    0    0  501  503 -0.00000000000E+00 -0.00000000000E+00 -0.22358021511E+03  0.22358021511E+03  0.00000000000E+00 0. -1.
          6    2    1    2  501    0  0.47807854153E+02 -0.24601655411E+02 -0.14181400083E+03  0.22948087826E+03  0.17221913450E+03 0.  0.
         24    2    3    3    0    0  0.50917137039E+02  0.34831880632E+02 -0.13813446518E+03  0.16966748654E+03  0.76812178503E+02 0.  0.
         -6    2    1    2    0  502 -0.47807854153E+02  0.24601655411E+02  0.16152442722E+03  0.23738997835E+03  0.16544796423E+03 0.  0.
        -24    2    5    5    0    0  0.20202073509E+02  0.56142812358E+02  0.11169035287E+03  0.14724720378E+03  0.75145624906E+02 0.  0.
          5    1    3    3  501    0 -0.31092828855E+01 -0.59433536042E+02 -0.36795356485E+01  0.59813391721E+02  0.47000000000E+01 0. -1.
        -11    1    4    4    0    0  0.39670708050E+02  0.25385691612E+01 -0.16025087162E+02  0.42860387645E+02  0.00000000000E+00 0.  1.
         12    1    4    4    0    0  0.11246428989E+02  0.32293311470E+02 -0.12210937802E+03  0.12680709890E+03  0.00000000000E+00 0. -1.
         -5    1    5    5    0  502 -0.68009927662E+02 -0.31541156948E+02  0.49834074353E+02  0.90142774579E+02  0.47000000000E+01 0.  1.
         13    1    6    6    0    0 -0.16073560326E+02  0.56810850708E+02  0.60818918098E+02  0.84763039694E+02  0.00000000000E+00 0. -1.
        -14    1    6    6    0    0  0.36275633835E+02 -0.66803834922E+00  0.50871434770E+02  0.62484164081E+02  0.00000000000E+00 0.  1.
</event>
<event>
12    1  0.8449700E-002  0.2588639E+03  0.7818608E-02  0.1108567E+00
         21   -1    0    0  501  502  0.00000000000E+00  0.00000000000E+00  0.10799339901E+04  0.10799339901E+04  0.00000000000E+00 0. -1.
         21   -1    0    0  502  503 -0.00000000000E+00 -0.00000000000E+00 -0.11122034187E+03  0.11122034187E+03  0.00000000000E+00 0. -1.
         -6    2    1    2    0  503 -0.17239449235E+03 -0.87460011529E+02  0.81233141587E+02  0.26669114859E+03  0.16479147683E+03 0.  0.
        -24    2    3    3    0    0 -0.16015846081E+03 -0.22532615853E+02  0.70595285878E+02  0.19960507588E+03  0.93274008083E+02 0.  0.
          6    2    1    2  501    0  0.17239449235E+03  0.87460011529E+02  0.88748050667E+03  0.92446318341E+03  0.17216681780E+03 0.  0.
         24    2    5    5    0    0  0.57314839825E+02  0.39183885609E+02  0.63231760289E+03  0.64037849846E+03  0.73747559993E+02 0.  0.
          5    1    5    5  501    0  0.11507965252E+03  0.48276125920E+02  0.25516290377E+03  0.28408468495E+03  0.47000000000E+01 0. -1.
        -13    1    6    6    0    0  0.24996497077E+02  0.22139127586E+01  0.47299787109E+03  0.47366307892E+03  0.00000000000E+00 0.  1.
         14    1    6    6    0    0  0.32318342748E+02  0.36969972850E+02  0.15931973180E+03  0.16671541954E+03  0.00000000000E+00 0. -1.
         -5    1    3    3    0  503 -0.12236031536E+02 -0.64927395676E+02  0.10637855710E+02  0.67086072706E+02  0.47000000000E+01 0.  1.
         11    1    4    4    0    0 -0.10633882526E+03  0.20978950926E+02  0.12238852221E+02  0.10907727373E+03  0.00000000000E+00 0. -1.
        -12    1    4    4    0    0 -0.53819635549E+02 -0.43511566778E+02  0.58356433657E+02  0.90527802157E+02  0.00000000000E+00 0.  1.
</event>
<event>
12    1  0.8449700E-002  0.3040327E+03  0.7818608E-02  0.1083927E+00
         21   -1    0    0  501  502  0.00000000000E+00  0.00000000000E+00  0.15518899886E+03  0.15518899886E+03  0.00000000000E+00 0. -1.
         21   -1    0    0  502  503 -0.00000000000E+00 -0.00000000000E+00 -0.70007970948E+03  0.70007970948E+03  0.00000000000E+00 0.  1.
         -6    2    1    2    0  503  0.13851063930E+03  0.19931696005E+03 -0.44383541132E+03  0.53488134437E+03  0.17376919304E+03 0.  0.
        -24    2    3    3    0    0  0.11335956736E+03  0.46583233591E+02 -0.19250755175E+03  0.23967302705E+03  0.73236693343E+02 0.  0.
          6    2    1    2  501    0 -0.13851063930E+03 -0.19931696005E+03 -0.10105529930E+03  0.32038736398E+03  0.18309407888E+03 0.  0.
         24    2    5    5    0    0 -0.75113236270E+02 -0.17433209594E+02 -0.54238111859E+02  0.12210759086E+03  0.77605256956E+02 0.  0.
          5    1    5    5  501    0 -0.63397403030E+02 -0.18188375045E+03 -0.46817187441E+02  0.19827977312E+03  0.47000000000E+01 0. -1.
        -11    1    6    6    0    0  0.20577335910E+01  0.19329758044E+02 -0.25207348429E+02  0.31832125729E+02  0.00000000000E+00 0.  1.
         12    1    6    6    0    0 -0.77170969861E+02 -0.36762967638E+02 -0.29030763429E+02  0.90275465128E+02  0.00000000000E+00 0. -1.
         -5    1    3    3    0  503  0.25151071941E+02  0.15273372645E+03 -0.25132785957E+03  0.29520831732E+03  0.47000000000E+01 0.  1.
         13    1    4    4    0    0  0.90756731901E+02  0.38239108935E+02 -0.19175589433E+03  0.21556747632E+03  0.00000000000E+00 0. -1.
        -14    1    4    4    0    0  0.22602835458E+02  0.83441246564E+01 -0.75165741729E+00  0.24105550728E+02  0.00000000000E+00 0.  1.
</event>
<event>
12    1  0.8449700E-002  0.2178434E+03  0.7818608E-02  0.1135816E+00
         21   -1    0    0  503  502  0.00000000000E+00  0.00000000000E+00  0.99870033005E+03  0.99870033005E+03  0.00000000000E+00 0. -1.
         21   -1    0    0  501  503 -0.00000000000E+00 -0.00000000000E+00 -0.50037598374E+02  0.50037598374E+02  0.00000000000E+00 0. -1.
          6    2    1    2  501    0 -0.10436915278E+03  0.78934022264E+02  0.34679640464E+03  0.40866071916E+03  0.17208235583E+03 0.  0.
         24    2    3    3    0    0 -0.12695350469E+03  0.77849502608E+02  0.34574965010E+03  0.38554330518E+03  0.83205061221E+02 0.  0.
         -6    2    1    2    0  502  0.10436915278E+03 -0.78934022264E+02  0.60186632704E+03  0.64007720926E+03  0.17416158668E+03 0.  0.
        -24    2    5    5    0    0  0.71310217769E+02 -0.12037290568E+03  0.39489364189E+03  0.42637213998E+03  0.79230232628E+02 0.  0.
          5    1    3    3  501    0  0.22584351908E+02  0.10845196555E+01  0.10467545347E+01  0.23117413978E+02  0.47000000000E+01 0. -1.
        -11    1    4    4    0    0  0.75108712432E+01 -0.19263629976E+01  0.53878658731E+02  0.54433757246E+02  0.00000000000E+00 0.  1.
         12    1    4    4    0    0 -0.13446437593E+03  0.79775865606E+02  0.29187099137E+03  0.33110954793E+03  0.00000000000E+00 0. -1.
         -5    1    5    5    0  502  0.33058935013E+02  0.41438883416E+02  0.20697268514E+03  0.21370506929E+03  0.47000000000E+01 0.  1.
         11    1    6    6    0    0  0.17872202538E+02 -0.83722666901E+02  0.29607081577E+03  0.30819933246E+03  0.00000000000E+00 0. -1.
        -12    1    6    6    0    0  0.53438015231E+02 -0.36650238779E+02  0.98822826121E+02  0.11817280752E+03  0.00000000000E+00 0.  1.
</event>
<event>
12    1  0.8449700E-002  0.2008806E+03  0.7818608E-02  0.1149158E+00
         21   -1    0    0  501  502  0.00000000000E+00  0.00000000000E+00  0.84983915842E+02  0.84983915842E+02  0.00000000000E+00 0. -1.
         21   -1    0    0  502  503 -0.00000000000E+00 -0.00000000000E+00 -0.91130917518E+03  0.91130917518E+03  0.00000000000E+00 0.  1.
         -6    2    1    2    0  503 -0.14875607164E+02 -0.10166355743E+03 -0.75902506938E+03  0.78515734527E+03  0.17261586914E+03 0.  0.
        -24    2    3    3    0    0  0.38761491874E+02 -0.50615666045E+02 -0.16820475915E+03  0.18969655345E+03  0.60229083410E+02 0.  0.
          6    2    1    2  501    0  0.14875607164E+02  0.10166355743E+03 -0.67300189958E+02  0.21113574576E+03  0.17173300489E+03 0.  0.
         24    2    5    5    0    0 -0.19758529772E+02 -0.16544238001E+02 -0.39720014259E+01  0.72553077989E+02  0.67705694151E+02 0.  0.
          5    1    5    5  501    0  0.34634136937E+02  0.11820779543E+03 -0.63328188532E+02  0.13858266777E+03  0.47000000000E+01 0. -1.
        -11    1    6    6    0    0  0.44913396150E+00  0.89772739797E+01 -0.29719161111E+02  0.31048698952E+02  0.00000000000E+00 0.  1.
         12    1    6    6    0    0 -0.20207663734E+02 -0.25521511981E+02  0.25747159685E+02  0.41504379037E+02  0.00000000000E+00 0. -1.
         -5    1    3    3    0  503 -0.53637099039E+02 -0.51047891388E+02 -0.59082031023E+03  0.59546079182E+03  0.47000000000E+01 0.  1.
         13    1    4    4    0    0  0.10933143365E+02 -0.57879252703E+02 -0.11029634606E+03  0.12503929571E+03  0.00000000000E+00 0. -1.
        -14    1    4    4    0    0  0.27828348510E+02  0.72635866575E+01 -0.57908413086E+02  0.64657257737E+02  0.00000000000E+00 0.  1.
</event>
<event>
12    1  0.8449700E-002  0.2271897E+03  0.7818608E-02  0.1129121E+00
         21   -1    0    0  501  502  0.00000000000E+00  0.00000000000E+00  0.32708923566E+03  0.32708923566E+03  0.00000000000E+00 0.  1.
         21   -1    0    0  502  503 -0.00000000000E+00 -0.00000000000E+00 -0.31592342221E+03  0.31592342221E+03  0.00000000000E+00 0. -1.
         -6    2    1    2    0  503 -0.95438629966E+02 -0.10942219513E+03 -0.22323154687E+03  0.31658156153E+03  0.17120108850E+03 0.  0.
        -24    2    3    3    0    0 -0.43445316268E+02 -0.10688757478E+03 -0.22288041279E+03  0.26431357644E+03  0.82906809974E+02 0.  0.
          6    2    1    2  501    0  0.95438629966E+02  0.10942219513E+03  0.23439736033E+03  0.32643109634E+03  0.17473805898E+03 0.  0.
         24    2    5    5    0    0  0.62945728182E+02  0.11650822945E+03  0.24620367441E+03  0.29082941660E+03  0.80182093024E+02 0.  0.
          5    1    5    5  501    0  0.32492901784E+02 -0.70860343137E+01 -0.11806314080E+02  0.35601679747E+02  0.47000000000E+01 0. -1.
        -13    1    6    6    0    0  0.80978237818E+02  0.80088651925E+02  0.18888640515E+03  0.22056686337E+03  0.00000000000E+00 0.  1.
         14    1    6    6    0    0 -0.18032509636E+02  0.36419577523E+02  0.57317269253E+02  0.70262553222E+02  0.00000000000E+00 0. -1.
         -5    1    3    3    0  503 -0.51993313698E+02 -0.25346203547E+01 -0.35113408478E+00  0.52267985085E+02  0.47000000000E+01 0.  1.
         11    1    4    4    0    0  0.17196707144E+02 -0.30874299197E+02 -0.23372242751E+02  0.42369928236E+02  0.00000000000E+00 0. -1.
        -12    1    4    4    0    0 -0.60642023412E+02 -0.76013275582E+02 -0.19950817004E+03  0.22194364821E+03  0.00000000000E+00 0.  1.
</event>
<event>
12    1  0.8449700E-002  0.2057872E+03  0.7818608E-02  0.1145935E+00
         21   -1    0    0  503  502  0.00000000000E+00  0.00000000000E+00  0.15225373782E+03  0.15225373782E+03  0.00000000000E+00 0.  1.
         21   -1    0    0  501  503 -0.00000000000E+00 -0.00000000000E+00 -0.32379919109E+03  0.32379919109E+03  0.00000000000E+00 0. -1.
          6    2    1    2  501    0 -0.53196921428E+02  0.98677174966E+02  0.10560173382E+02  0.20126055619E+03  0.16681485818E+03 0.  0.
         24    2    3    3    0    0 -0.86222201684E+02  0.56211510779E+02  0.44944711617E+02  0.13724190078E+03  0.78875282700E+02 0.  0.
         -6    2    1    2    0  502  0.53196921428E+02 -0.98677174966E+02 -0.18210562666E+03  0.27479237272E+03  0.17257256890E+03 0.  0.
        -24    2    5    5    0    0  0.18284550650E+02  0.15604104027E+02 -0.10027447358E+03  0.12988719001E+03  0.78980372394E+02 0.  0.
          5    1    3    3  501    0  0.33025280256E+02  0.42465664186E+02 -0.34384538236E+02  0.64018655409E+02  0.47000000000E+01 0. -1.
        -13    1    4    4    0    0 -0.66660467342E+02  0.13217040731E+02 -0.54432177494E+01  0.68175777894E+02  0.00000000000E+00 0.  1.
         14    1    4    4    0    0 -0.19561734342E+02  0.42994470048E+02  0.50387929367E+02  0.69066122890E+02  0.00000000000E+00 0. -1.
         -5    1    5    5    0  502  0.34912370779E+02 -0.11428127899E+03 -0.81831153079E+02  0.14490518271E+03  0.47000000000E+01 0.  1.
         13    1    6    6    0    0  0.43747521061E+02 -0.10184310263E+02 -0.43477612627E+02  0.62512947253E+02  0.00000000000E+00 0. -1.
        -14    1    6    6    0    0 -0.25462970411E+02  0.25788414291E+02 -0.56796860950E+02  0.67374242760E+02  0.00000000000E+00 0.  1.
</event>
<event>
12    1  0.8449700E-002  0.1878481E+03  0.7818608E-02  0.1160646E+00
         21   -1    0    0  503  502  0.00000000000E+00  0.00000000000E+00  0.12054477463E+03  0.12054477463E+03  0.00000000000E+00 0. -1.
         21   -1    0    0  501  503 -0.00000000000E+00 -0.00000000000E+00 -0.33458423188E+03  0.33458423188E+03  0.00000000000E+00 0. -1.
          6    2    1    2  501    0 -0.28055155595E+02  0.68531269647E+02 -0.18923344392E+03  0.26663872275E+03  0.17263628095E+03 0.  0.
         24    2    3    3    0    0  0.26801797767E+02  0.66327533975E+02 -0.18182635120E+03  0.21104108966E+03  0.79748613835E+02 0.  0.
         -6    2    1    2    0  502  0.28055155595E+02 -0.68531269647E+02 -0.24806013338E+02  0.18849028375E+03  0.17155064004E+03 0.  0.
        -24    2    5    5    0    0  0.73381874022E+02 -0.85880377206E+02 -0.20377038252E+02  0.13952898519E+03  0.79327015559E+02 0.  0.
          5    1    3    3  501    0 -0.54856953362E+02  0.22037356717E+01 -0.74070927225E+01  0.55597633094E+02  0.47000000000E+01 0. -1.
        -13    1    4    4    0    0  0.14878751392E+02 -0.10649340495E+02 -0.68994469293E+01  0.19554745304E+02  0.00000000000E+00 0.  1.
         14    1    4    4    0    0  0.11923046374E+02  0.76976874471E+02 -0.17492690427E+03  0.19148634436E+03  0.00000000000E+00 0. -1.
         -5    1    5    5    0  502 -0.45326718427E+02  0.17349107559E+02 -0.44289750857E+01  0.48961298560E+02  0.47000000000E+01 0.  1.
         11    1    6    6    0    0  0.34891454075E+02 -0.69631532058E+02 -0.46061840815E+02  0.90485672918E+02  0.00000000000E+00 0. -1.
        -12    1    6    6    0    0  0.38490419947E+02 -0.16248845147E+02  0.25684802563E+02  0.49043312276E+02  0.00000000000E+00 0.  1.
</event>
<event>
12    1  0.8449700E-002  0.2674930E+03  0.7818608E-02  0.1102784E+00
         21   -1    0    0  503  502  0.00000000000E+00  0.00000000000E+00  0.54085610048E+03  0.54085610048E+03  0.00000000000E+00 0. -1.
         21   -1    0    0  501  503 -0.00000000000E+00 -0.00000000000E+00 -0.15448438304E+03  0.15448438304E+03  0.00000000000E+00 0. -1.
          6    2    1    2  501    0 -0.20425779611E+03  0.49514001203E+01  0.60935760524E+02  0.27434586016E+03  0.17264622915E+03 0.  0.
         24    2    3    3    0    0 -0.14665832784E+03  0.34864442332E+02 -0.19245320055E+02  0.17108122670E+03  0.78576137110E+02 0.  0.
         -6    2    1    2    0  502  0.20425779611E+03 -0.49514001203E+01  0.32543595692E+03  0.42099462336E+03  0.17199461389E+03 0.  0.
        -24    2    5    5    0    0  0.20256612986E+03 -0.46512456765E+02  0.25062640967E+03  0.33526982226E+03  0.79973813802E+02 0.  0.
          5    1    3    3  501    0 -0.57599468275E+02 -0.29913042211E+02  0.80181080579E+02  0.10326463346E+03  0.47000000000E+01 0. -1.
        -13    1    4    4    0    0 -0.28755998927E+02  0.26701670321E+02 -0.34073491228E+02  0.51970082515E+02  0.00000000000E+00 0.  1.
         14    1    4    4    0    0 -0.11790232891E+03  0.81627720110E+01  0.14828171173E+02  0.11911114419E+03  0.00000000000E+00 0. -1.
         -5    1    5    5    0  502  0.16916662531E+01  0.41561056645E+02  0.74809547255E+02  0.85724801106E+02  0.47000000000E+01 0.  1.
         13    1    6    6    0    0  0.14828645351E+03  0.37670089383E+01  0.17618840453E+03  0.23031590596E+03  0.00000000000E+00 0. -1.
        -14    1    6    6    0    0  0.54279676348E+02 -0.50279465704E+02  0.74438005142E+02  0.10495391629E+03  0.00000000000E+00 0.  1.
</event>
<event>
12    1  0.8449700E-002  0.1757223E+03  0.7818608E-02  0.1172254E+00
         21   -1    0    0  501  502  0.00000000000E+00  0.00000000000E+00  0.14856048778E+03  0.14856048778E+03  0.00000000000E+00 0. -1.
         21   -1    0    0  502  503 -0.00000000000E+00 -0.00000000000E+00 -0.23506144175E+03  0.23506144175E+03  0.00000000000E+00 0. -1.
         -6    2    1    2    0  503  0.36309731962E+01 -0.32228907784E+02 -0.10977936098E+03  0.20636444630E+03  0.17170582441E+03 0.  0.
        -24    2    3    3    0    0  0.20748207410E+02  0.53801649664E+01  0.65575817263E+01  0.82817628059E+02  0.79726553628E+02 0.  0.
          6    2    1    2  501    0 -0.36309731962E+01  0.32228907784E+02  0.23278407012E+02  0.17725748323E+03  0.17270334295E+03 0.  0.
         24    2    5    5    0    0 -0.17568401288E+02  0.51613023658E+02 -0.43223089642E+02  0.10644410238E+03  0.80557796143E+02 0.  0.
          5    1    5    5  501    0  0.13937428091E+02 -0.19384115874E+02  0.66501496654E+02  0.70813380848E+02  0.47000000000E+01 0. -1.
        -11    1    6    6    0    0 -0.32406473013E+02 -0.20922079760E+01 -0.38734601641E+02  0.50546277723E+02  0.00000000000E+00 0.  1.
         12    1    6    6    0    0  0.14838071726E+02  0.53705231634E+02 -0.44884880012E+01  0.55897824662E+02  0.00000000000E+00 0. -1.
         -5    1    3    3    0  503 -0.17117234214E+02 -0.37609072750E+02 -0.11633694270E+03  0.12354681824E+03  0.47000000000E+01 0.  1.
         13    1    4    4    0    0  0.21007383501E+02  0.11343036702E+02 -0.34153939280E+02  0.41670927654E+02  0.00000000000E+00 0. -1.
        -14    1    4    4    0    0 -0.25917609160E+00 -0.59628717354E+01  0.40711521006E+02  0.41146700405E+02  0.00000000000E+00 0.  1.
</event>
<event>
12    1  0.8449700E-002  0.2526017E+03  0.7818608E-02  0.1112564E+00
         21   -1    0    0  503  502  0.00000000000E+00  0.00000000000E+00  0.30065646584E+03  0.30065646584E+03  0.00000000000E+00 0.  1.
         21   -1    0    0  501  503 -0.00000000000E+00 -0.00000000000E+00 -0.20777615977E+03  0.20777615977E+03  0.00000000000E+00 0.  1.
          6    2    1    2  501    0 -0.87516140390E+02  0.15976068866E+03  0.36653764352E+02  0.24964885997E+03  0.16672882887E+03 0.  0.
         24    2    3    3    0    0 -0.63656793011E+02  0.90007787218E+02  0.84205597190E+02  0.16179669709E+03  0.83270640295E+02 0.  0.
         -6    2    1    2    0  502  0.87516140390E+02 -0.15976068866E+03  0.56226541720E+02  0.25878376564E+03  0.17500017399E+03 0.  0.
        -24    2    5    5    0    0  0.18008781381E+02 -0.39387408231E+02  0.76057605149E+02  0.11829760734E+03  0.79585680039E+02 0.  0.
          5    1    3    3  501    0 -0.23859347379E+02  0.69752901443E+02 -0.47551832838E+02  0.87852162884E+02  0.47000000000E+01 0. -1.
        -13    1    4    4    0    0 -0.63781337300E+02  0.94233420800E+02  0.45000571534E+02  0.12236440668E+03  0.00000000000E+00 0.  1.
         14    1    4    4    0    0  0.12454428868E+00 -0.42256335827E+01  0.39205025656E+02  0.39432290412E+02  0.00000000000E+00 0. -1.
         -5    1    5    5    0  502  0.69507359009E+02 -0.12037328043E+03 -0.19831063429E+02  0.14048615830E+03  0.47000000000E+01 0.  1.
         13    1    6    6    0    0 -0.58981284094E+01 -0.39501271691E+01 -0.15612436166E+02  0.17150498139E+02  0.00000000000E+00 0. -1.
        -14    1    6    6    0    0  0.23906909790E+02 -0.35437281061E+02  0.91670041315E+02  0.10114710920E+03  0.00000000000E+00 0.  1.
</event>
<event>
12    1  0.8449700E-002  0.2097223E+03  0.7818608E-02  0.1141937E+00
         21   -1    0    0  501  502  0.00000000000E+00  0.00000000000E+00  0.87350393534E+02  0.87350393534E+02  0.00000000000E+00 0.  1.
         21   -1    0    0  502  503 -0.00000000000E+00 -0.00000000000E+00 -0.50498755432E+03  0.50498755432E+03  0.00000000000E+00 0. -1.
         -6    2    1    2    0  503 -0.60221486614E+02  0.10032586848E+03 -0.23230287625E+03  0.31245899354E+03  0.17313026597E+03 0.  0.
        -24    2    3    3    0    0 -0.82338965893E+02  0.11248089634E+02 -0.14518795360E+03  0.18582908664E+03  0.80911573618E+02 0.  0.
          6    2    1    2  501    0  0.60221486614E+02 -0.10032586848E+03 -0.18533428453E+03  0.27987895431E+03  0.17404460550E+03 0.  0.
         24    2    5    5    0    0  0.81932755479E+02 -0.39318104871E+02 -0.55817112897E+02  0.13499930023E+03  0.82766969136E+02 0.  0.
          5    1    5    5  501    0 -0.21711268865E+02 -0.61007763612E+02 -0.12951717163E+03  0.14487965407E+03  0.47000000000E+01 0. -1.
        -13    1    6    6    0    0  0.13362268842E+02  0.21898608818E+02 -0.30100280064E+02  0.39549034839E+02  0.00000000000E+00 0.  1.
         14    1    6    6    0    0  0.68570486637E+02 -0.61216713690E+02 -0.25716832833E+02  0.95450265393E+02  0.00000000000E+00 0. -1.
         -5    1    3    3    0  503  0.22117479279E+02  0.89077778850E+02 -0.87114922654E+02  0.12662990691E+03  0.47000000000E+01 0.  1.
         13    1    4    4    0    0 -0.23722687702E+02  0.35366119370E+02 -0.97861213041E+02  0.10672556080E+03  0.00000000000E+00 0. -1.
        -14    1    4    4    0    0 -0.58616278191E+02 -0.24118029736E+02 -0.47326740556E+02  0.79103525832E+02  0.00000000000E+00 0.  1.
</event>
<event>
12    1  0.8449700E-002  0.2060924E+03  0.7818608E-02  0.1144845E+00
         21   -1    0    0  503  502  0.00000000000E+00  0.00000000000E+00  0.19108842117E+04  0.19108842117E+04  0.00000000000E+00 0.  1.
         21   -1    0    0  501  503 -0.00000000000E+00 -0.00000000000E+00 -0.24806812567E+02  0.24806812567E+02  0.00000000000E+00 0.  1.
          6    2    1    2  501    0 -0.16518725563E+02 -0.11098356220E+03  0.62776230301E+03  0.66072656134E+03  0.17286948949E+03 0.  0.
         24    2    3    3    0    0 -0.29414700538E+02 -0.62547605531E+02  0.16542157200E+03  0.19565302992E+03  0.78347840231E+02 0.  0.
         -6    2    1    2    0  502  0.16518725563E+02  0.11098356220E+03  0.12583150961E+04  0.12749644629E+04  0.17200953823E+03 0.  0.
        -24    2    5    5    0    0  0.38255967444E+02  0.79336421853E+02  0.44578255362E+03  0.46151177728E+03  0.80704699835E+02 0.  0.
          5    1    3    3  501    0  0.12895974974E+02 -0.48435956668E+02  0.46234073102E+03  0.46507353142E+03  0.47000000000E+01 0. -1.
        -13    1    4    4    0    0 -0.81882424337E+01 -0.68126568193E+02  0.71094783920E+02  0.98806603568E+02  0.00000000000E+00 0.  1.
         14    1    4    4    0    0 -0.21226458104E+02  0.55789626620E+01  0.94326788075E+02  0.96846426349E+02  0.00000000000E+00 0. -1.
         -5    1    5    5    0  502 -0.21737241881E+02  0.31647140345E+02  0.81253254251E+03  0.81345268566E+03  0.47000000000E+01 0.  1.
         11    1    6    6    0    0 -0.96967664366E+01  0.45976125200E+02  0.95970587015E+02  0.10685590737E+03  0.00000000000E+00 0. -1.
        -12    1    6    6    0    0  0.47952733881E+02  0.33360296653E+02  0.34981196661E+03  0.35465586991E+03  0.00000000000E+00 0.  1.
</event>
<event>
12    1  0.8449700E-002  0.1776795E+03  0.7818608E-02  0.1170435E+00
         21   -1    0    0  501  502  0.00000000000E+00  0.00000000000E+00  0.18380676174E+03  0.18380676174E+03  0.00000000000E+00 0.  1.
         21   -1    0    0  502  503 -0.00000000000E+00 -0.00000000000E+00 -0.21389078129E+03  0.21389078129E+03  0.00000000000E+00 0.  1.
         -6    2    1    2    0  503 -0.15316686060E+02  0.29005611386E+02  0.74752368856E+02  0.19139514673E+03  0.17311342865E+03 0.  0.
        -24    2    3    3    0    0  0.19084942857E+02  0.79765725041E+02  0.42713493305E+02  0.12205078318E+03  0.79656419882E+02 0.  0.
          6    2    1    2  501    0  0.15316686060E+02 -0.29005611386E+02 -0.10483638841E+03  0.20630239630E+03  0.17462555375E+03 0.  0.
         24    2    5    5    0    0  0.57603172049E+02  0.15368446585E+02 -0.19849357375E+02  0.10141155132E+03  0.79598939513E+02 0.  0.
          5    1    5    5  501    0 -0.42286485989E+02 -0.44374057971E+02 -0.84987031033E+02  0.10489084499E+03  0.47000000000E+01 0. -1.
        -11    1    6    6    0    0 -0.25495110557E+01  0.12738079048E+01 -0.37145156579E+02  0.37254331969E+02  0.00000000000E+00 0.  1.
         12    1    6    6    0    0  0.60152683104E+02  0.14094638680E+02  0.17295799204E+02  0.64157219347E+02  0.00000000000E+00 0. -1.
         -5    1    3    3    0  503 -0.34401628917E+02 -0.50760113655E+02  0.32038875551E+02  0.69344363556E+02  0.47000000000E+01 0.  1.
         11    1    4    4    0    0 -0.12054009319E+02  0.18489277673E+02 -0.19417499732E+02  0.29397139748E+02  0.00000000000E+00 0. -1.
        -12    1    4    4    0    0  0.31138952175E+02  0.61276447368E+02  0.62130993037E+02  0.92653643428E+02  0.00000000000E+00 0.  1.
</event>
<event>
12    1  0.8449700E-002  0.1799856E+03  0.7818608E-02  0.1167998E+00
         21   -1    0    0  503  502  0.00000000000E+00  0.00000000000E+00  0.61212872321E+02  0.61212872321E+02  0.00000000000E+00 0.  1.
         21   -1    0    0  501  503 -0.00000000000E+00 -0.00000000000E+00 -0.87420338683E+03  0.87420338683E+03  0.00000000000E+00 0.  1.
          6    2    1    2  501    0  0.17255065719E+02 -0.47307117995E+02 -0.70073092516E+03  0.72329120898E+03  0.17201930938E+03 0.  0.
         24    2    3    3    0    0  0.32176196539E+02  0.16201297010E+02 -0.19611030902E+03  0.21444937190E+03  0.78939788176E+02 0.  0.
         -6    2    1    2    0  502 -0.17255065719E+02  0.47307117995E+02 -0.11225958935E+03  0.21212505017E+03  0.17279791898E+03 0.  0.
        -24    2    5    5    0    0  0.27193768425E+02 -0.31799178129E+02 -0.43608006029E+02  0.98245136074E+02  0.77458116434E+02 0.  0.
          5    1    3    3  501    0 -0.14921130820E+02 -0.63508415004E+02 -0.50462061614E+03  0.50884183708E+03  0.47000000000E+01 0. -1.
        -13    1    4    4    0    0 -0.80213675463E+01 -0.19962809314E+02 -0.11482161710E+03  0.11681977506E+03  0.00000000000E+00 0.  1.
         14    1    4    4    0    0  0.40197564086E+02  0.36164106324E+02 -0.81288691920E+02  0.97629596837E+02  0.00000000000E+00 0. -1.
         -5    1    5    5    0  502 -0.44448834144E+02  0.79106296123E+02 -0.68651583318E+02  0.11387991410E+03  0.47000000000E+01 0.  1.
         13    1    6    6    0    0  0.20076475730E+02  0.23501616130E+02 -0.24028148685E+02  0.39150258846E+02  0.00000000000E+00 0. -1.
        -14    1    6    6    0    0  0.71172926952E+01 -0.55300794259E+02 -0.19579857344E+02  0.59094877228E+02  0.00000000000E+00 0.  1.
</event>
<event>
12    1  0.8449700E-002  0.2807965E+03  0.7818608E-02  0.1095712E+00
         21   -1    0    0  501  502  0.00000000000E+00  0.00000000000E+00  0.37135583710E+03  0.37135583710E+03  0.00000000000E+00 0. -1.
         21   -1    0    0  502  503 -0.00000000000E+00 -0.00000000000E+00 -0.21287454087E+03  0.21287454087E+03  0.00000000000E+00 0.  1.
         -6    2    1    2    0  503  0.22050434340E+03  0.35944169749E+01  0.11478055864E+03  0.30335004902E+03  0.17381481613E+03 0.  0.
        -24    2    3    3    0    0  0.15814869274E+03 -0.53881454147E+02  0.11363569420E+03  0.21840828282E+03  0.82914937679E+02 0.  0.
          6    2    1    2  501    0 -0.22050434340E+03 -0.35944169749E+01  0.43700737586E+02  0.28088032894E+03  0.16837137354E+03 0.  0.
         24    2    5    5    0    0 -0.19851652806E+03 -0.50291510937E+02  0.12604667398E+02  0.22043913281E+03  0.80600779472E+02 0.  0.
          5    1    5    5  501    0 -0.21987815345E+02  0.46697093962E+02  0.31096070188E+02  0.60441196127E+02  0.47000000000E+01 0. -1.
        -13    1    6    6    0    0 -0.10617365421E+03 -0.26639992982E+02 -0.33603085170E+02  0.11450633785E+03  0.00000000000E+00 0.  1.
         14    1    6    6    0    0 -0.92342873843E+02 -0.23651517956E+02  0.46207752568E+02  0.10593279496E+03  0.00000000000E+00 0. -1.
         -5    1    3    3    0  503  0.62355650659E+02  0.57475871122E+02  0.11448644402E+01  0.84941766198E+02  0.47000000000E+01 0.  1.
         13    1    4    4    0    0  0.13286310681E+03 -0.13993065415E+02  0.10605597805E+03  0.17057632166E+03  0.00000000000E+00 0. -1.
        -14    1    4    4    0    0  0.25285585931E+02 -0.39888388732E+02  0.75797161566E+01  0.47831961161E+02  0.00000000000E+00 0.  1.
</event>
<event>
12    1  0.8449700E-002  0.2343494E+03  0.7818608E-02  0.1123973E+00
         21   -1    0    0  503  502  0.00000000000E+00  0.00000000000E+00  0.88251808958E+02  0.88251808958E+02  0.00000000000E+00 0.  1.
         21   -1    0    0  501  503 -0.00000000000E+00 -0.00000000000E+00 -0.61696053955E+03  0.61696053955E+03  0.00000000000E+00 0.  1.
          6    2    1    2  501    0  0.12733963058E+03  0.96522874517E+02 -0.25768948849E+03  0.34692325836E+03  0.16858181364E+03 0.  0.
         24    2    3    3    0    0  0.65696758703E+02  0.98402278892E+02 -0.24524046496E+03  0.28383249833E+03  0.80118218046E+02 0.  0.
         -6    2    1    2    0  502 -0.12733963058E+03 -0.96522874517E+02 -0.27101924210E+03  0.35828909015E+03  0.17142810654E+03 0.  0.
        -24    2    5    5    0    0 -0.13728204512E+03 -0.46523581220E+02 -0.25566747264E+03  0.30484240866E+03  0.80945870970E+02 0.  0.
          5    1    3    3  501    0  0.61642871874E+02 -0.18794043753E+01 -0.12449023539E+02  0.63090760027E+02  0.47000000000E+01 0. -1.
        -13    1    4    4    0    0  0.77546786592E+02  0.10394834149E+03 -0.21922562954E+03  0.25471285491E+03  0.00000000000E+00 0.  1.
         14    1    4    4    0    0 -0.11850027888E+02 -0.55460625994E+01 -0.26014835417E+02  0.29119643423E+02  0.00000000000E+00 0. -1.
         -5    1    5    5    0  502  0.99424145397E+01 -0.49999293297E+02 -0.15351769454E+02  0.53446681491E+02  0.47000000000E+01 0.  1.
         11    1    6    6    0    0 -0.41792879945E+02  0.22517582604E+02 -0.86681108968E+02  0.98829656442E+02  0.00000000000E+00 0. -1.
        -12    1    6    6    0    0 -0.95489165172E+02 -0.69041163824E+02 -0.16898636368E+03  0.20601275222E+03  0.00000000000E+00 0.  1.
</event>
<event>
12    1  0.8449700E-002  0.2013170E+03  0.7818608E-02  0.1149764E+00
         21   -1    0    0  503  502  0.00000000000E+00  0.00000000000E+00  0.38825910657E+03  0.38825910657E+03  0.00000000000E+00 0. -1.
         21   -1    0    0  501  503 -0.00000000000E+00 -0.00000000000E+00 -0.12587729813E+03  0.12587729813E+03  0.00000000000E+00 0. -1.
          6    2    1    2  501    0 -0.25658039851E+02  0.10110632252E+03  0.16972626816E+02  0.19671841079E+03  0.16591937687E+03 0.  0.
         24    2    3    3    0    0  0.26056469947E+02  0.11301434603E+03  0.24767882842E+02  0.14287560659E+03  0.79679413304E+02 0.  0.
         -6    2    1    2    0  502  0.25658039851E+02 -0.10110632252E+03  0.24540918162E+03  0.31741799390E+03  0.17218505441E+03 0.  0.
        -24    2    5    5    0    0 -0.49059295187E+02 -0.53327529260E+02  0.16757100353E+03  0.19932326409E+03  0.79994265797E+02 0.  0.
          5    1    3    3  501    0 -0.51714509797E+02 -0.11908023509E+02 -0.77952560258E+01  0.53842804199E+02  0.47000000000E+01 0. -1.
        -11    1    4    4    0    0  0.29215903086E+02  0.47375515774E+02  0.47671089507E+02  0.73283976849E+02  0.00000000000E+00 0.  1.
         12    1    4    4    0    0 -0.31594331395E+01  0.65638830254E+02 -0.22903206665E+02  0.69591629744E+02  0.00000000000E+00 0. -1.
         -5    1    5    5    0  502  0.74717335038E+02 -0.47778793260E+02  0.77838178090E+02  0.11809472981E+03  0.47000000000E+01 0.  1.
         11    1    6    6    0    0 -0.59145435559E+01 -0.63263101548E+02  0.94083031530E+02  0.11352893316E+03  0.00000000000E+00 0. -1.
        -12    1    6    6    0    0 -0.43144751631E+02  0.99355722877E+01  0.73487972004E+02  0.85794330927E+02  0.00000000000E+00 0.  1.
</event>
<event>
12    1  0.8449700E-002  0.2268032E+03  0.7818608E-02  0.1130333E+00
         21   -1    0    0  503  502  0.00000000000E+00  0.00000000000E+00  0.60581139443E+02  0.60581139443E+02  0.00000000000E+00 0.  1.
         21   -1    0    0  501  503 -0.00000000000E+00 -0.00000000000E+00 -0.90169818422E+03  0.90169818422E+03  0.00000000000E+00 0.  1.
          6    2    1    2  501    0  0.37500315388E+02 -0.13026294657E+03 -0.57188507532E+03  0.61521721988E+03  0.18183778308E+03 0.  0.
         24    2    3    3    0    0  0.67240501062E+01 -0.16034838800E+03 -0.50213312135E+03  0.53312131636E+03  0.79522625848E+02 0.  0.
         -6    2    1    2    0  502 -0.37500315388E+02  0.13026294657E+03 -0.26923196945E+03  0.34706210378E+03  0.17202192188E+03 0.  0.
        -24    2    5    5    0    0 -0.13230488827E+02  0.35983334191E+02 -0.22956772709E+03  0.24183372399E+03  0.65668581263E+02 0.  0.
          5    1    3    3  501    0  0.30776265281E+02  0.30085441430E+02 -0.69751953976E+02  0.82095903516E+02  0.47000000000E+01 0. -1.
        -13    1    4    4    0    0  0.15273382309E+02 -0.26557788256E+02 -0.20327910544E+03  0.20557477237E+03  0.00000000000E+00 0.  1.
         14    1    4    4    0    0 -0.85493322030E+01 -0.13379059974E+03 -0.29885401591E+03  0.32754654400E+03  0.00000000000E+00 0. -1.
         -5    1    5    5    0  502 -0.24269826561E+02  0.94279612376E+02 -0.39664242360E+02  0.10522837979E+03  0.47000000000E+01 0.  1.
         13    1    6    6    0    0 -0.32826251367E+02  0.43884825991E+02 -0.17132907281E+03  0.17988077141E+03  0.00000000000E+00 0. -1.
        -14    1    6    6    0    0  0.19595762540E+02 -0.79014917994E+01 -0.58238654279E+02  0.61952952588E+02  0.00000000000E+00 0.  1.
</event>
<event>
12    1  0.8449700E-002  0.1925888E+03  0.7818608E-02  0.1156974E+00
         21   -1    0    0  501  502  0.00000000000E+00  0.00000000000E+00  0.17615709783E+04  0.17615709783E+04  0.00000000000E+00 0. -1.
         21   -1    0    0  502  503 -0.00000000000E+00 -0.00000000000E+00 -0.27201652440E+02  0.27201652440E+02  0.00000000000E+00 0. -1.
         -6    2    1    2    0  503  0.58251093129E+02  0.55313419566E+02  0.43475010321E+03  0.47549774293E+03  0.17503624498E+03 0.  0.
        -24    2    3    3    0    0  0.83948367134E+02 -0.97193474780E+01  0.21493691157E+03  0.24478246407E+03  0.81109707807E+02 0.  0.
          6    2    1    2  501    0 -0.58251093129E+02 -0.55313419566E+02  0.12996192226E+04  0.13132748878E+04  0.17096210937E+03 0.  0.
         24    2    5    5    0    0 -0.11960855509E+02  0.11690978225E+02  0.25034034333E+03  0.26082981466E+03  0.71289295680E+02 0.  0.
          5    1    5    5  501    0 -0.46290237620E+02 -0.67004397790E+02  0.10492788793E+04  0.10524450731E+04  0.47000000000E+01 0. -1.
        -13    1    6    6    0    0  0.28039138338E+02  0.16135240442E+02  0.12874163570E+03  0.13274391898E+03  0.00000000000E+00 0.  1.
         14    1    6    6    0    0 -0.39999993847E+02 -0.44442622175E+01  0.12159870763E+03  0.12808589568E+03  0.00000000000E+00 0. -1.
         -5    1    3    3    0  503 -0.25697274005E+02  0.65032767044E+02  0.21981319164E+03  0.23071527887E+03  0.47000000000E+01 0.  1.
         11    1    4    4    0    0  0.54959048087E+02  0.17746476604E+02  0.54352875297E+02  0.79307436294E+02  0.00000000000E+00 0. -1.
        -12    1    4    4    0    0  0.28989319047E+02 -0.27465824082E+02  0.16058403627E+03  0.16547502777E+03  0.00000000000E+00 0.  1.
</event>
<event>
12    1  0.8449700E-002  0.2236772E+03  0.7818608E-02  0.1131464E+00
         21   -1    0    0  503  502  0.00000000000E+00  0.00000000000E+00  0.54321306565E+03  0.54321306565E+03  0.00000000000E+00 0. -1.
         21   -1    0    0  501  503 -0.00000000000E+00 -0.00000000000E+00 -0.91446401803E+02  0.91446401803E+02  0.00000000000E+00 0.  1.
          6    2    1    2  501    0 -0.14151877438E+03 -0.60150745902E+01  0.22778174394E+03  0.31924288191E+03  0.17311195844E+03 0.  0.
         24    2    3    3    0    0 -0.10815825710E+03 -0.39971424349E+02  0.73122693223E+02  0.15735566879E+03  0.78217356735E+02 0.  0.
         -6    2    1    2    0  502  0.14151877438E+03  0.60150745902E+01  0.22398491991E+03  0.31541658554E+03  0.17103985929E+03 0.  0.
        -24    2    5    5    0    0  0.14293211408E+03 -0.18385053610E+02  0.10777827604E+03  0.19657451444E+03  0.79106153419E+02 0.  0.
          5    1    3    3  501    0 -0.33360517285E+02  0.33956349758E+02  0.15465905072E+03  0.16188721312E+03  0.47000000000E+01 0. -1.
        -11    1    4    4    0    0 -0.33414510128E+02  0.19767981316E+02  0.40898022665E+02  0.56391052751E+02  0.00000000000E+00 0.  1.
         12    1    4    4    0    0 -0.74743746967E+02 -0.59739405665E+02  0.32224670558E+02  0.10096461604E+03  0.00000000000E+00 0. -1.
         -5    1    5    5    0  502 -0.14133397030E+01  0.24400128200E+02  0.11620664386E+03  0.11884207110E+03  0.47000000000E+01 0.  1.
         11    1    6    6    0    0 -0.36787163311E+01 -0.13323245001E+02  0.23847494510E+02  0.27563468679E+02  0.00000000000E+00 0. -1.
        -12    1    6    6    0    0  0.14661083041E+03 -0.50618086091E+01  0.83930781531E+02  0.16901104576E+03  0.00000000000E+00 0.  1.
</event>
<event>
12    1  0.8449700E-002  0.2106900E+03  0.7818608E-02  0.1141265E+00
         21   -1    0    0  501  502  0.00000000000E+00  0.00000000000E+00  0.50475836731E+02  0.50475836731E+02  0.00000000000E+00 0. -1.
         21   -1    0    0  502  503 -0.00000000000E+00 -0.00000000000E+00 -0.88692133231E+03  0.88692133231E+03  0.00000000000E+00 0. -1.
         -6    2    1    2    0  503  0.95510704423E+01  0.11749967455E+03 -0.47537008635E+03  0.51996826503E+03  0.17462210965E+03 0.  0.
        -24    2    3    3    0    0  0.53409702548E+02  0.13105053344E+03 -0.33623071051E+03  0.37337678746E+03  0.79575725462E+02 0.  0.
          6    2    1    2  501    0 -0.95510704423E+01 -0.11749967455E+03 -0.36107540923E+03  0.41742890401E+03  0.17313013109E+03 0.  0.
         24    2    5    5    0    0 -0.44594857335E+02 -0.78426541516E+01 -0.11788092761E+03  0.14832228014E+03  0.77803452154E+02 0.  0.
          5    1    5    5  501    0  0.35043786893E+02 -0.10965702039E+03 -0.24319448161E+03  0.26910662387E+03  0.47000000000E+01 0. -1.
        -13    1    6    6    0    0 -0.42136446408E+02  0.56582066729E+01 -0.12558402644E+03  0.13258522963E+03  0.00000000000E+00 0.  1.
         14    1    6    6    0    0 -0.24584109270E+01 -0.13500860825E+02  0.77030988289E+01  0.15737050513E+02  0.00000000000E+00 0. -1.
         -5    1    3    3    0  503 -0.43858632106E+02 -0.13550858894E+02 -0.13913937585E+03  0.14659147758E+03  0.47000000000E+01 0.  1.
         11    1    4    4    0    0  0.53991898455E+02  0.12869329564E+03 -0.24383710172E+03  0.28095127979E+03  0.00000000000E+00 0. -1.
        -12    1    4    4    0    0 -0.58219590694E+00  0.23572377948E+01 -0.92393608789E+02  0.92425507665E+02  0.00000000000E+00 0.  1.
</event>
<event>
12    1  0.8449700E-002  0.2244857E+03  0.7818608E-02  0.1132836E+00
         21   -1    0    0  503  502  0.00000000000E+00  0.00000000000E+00  0.62548264362E+03  0.62548264362E+03  0.00000000000E+00 0.  1.
         21   -1    0    0  501  503 -0.00000000000E+00 -0.00000000000E+00 -0.95972513994E+02  0.95972513994E+02  0.00000000000E+00 0.  1.
          6    2    1    2  501    0  0.18856840919E+02  0.12310807784E+03  0.42221612645E+03  0.47264635858E+03  0.17209573952E+03 0.  0.
         24    2    3    3    0    0  0.15096784840E+02  0.18265463118E+02  0.30149828826E+03  0.31264323880E+03  0.79265609713E+02 0.  0.
         -6    2    1    2    0  502 -0.18856840919E+02 -0.12310807784E+03  0.10729400317E+03  0.24880879903E+03  0.18676893768E+03 0.  0.
        -24    2    5    5    0    0  0.14290373545E+02 -0.78823918480E+02  0.14290476283E+03  0.18285395993E+03  0.81218067715E+02 0.  0.
          5    1    3    3  501    0  0.37600560794E+01  0.10484261472E+03  0.12071783819E+03  0.16000311978E+03  0.47000000000E+01 0. -1.
        -11    1    4    4    0    0 -0.63801991752E+01  0.45053625002E+02  0.12977760394E+03  0.13752367997E+03  0.00000000000E+00 0.  1.
         12    1    4    4    0    0  0.21476984015E+02 -0.26788161885E+02  0.17172068433E+03  0.17511955883E+03  0.00000000000E+00 0. -1.
         -5    1    5    5    0  502 -0.33147214464E+02 -0.44284159356E+02 -0.35610759663E+02  0.65954839097E+02  0.47000000000E+01 0.  1.
         13    1    6    6    0    0 -0.87966225943E+01 -0.31677989058E+02  0.12199543849E+03  0.12634778420E+03  0.00000000000E+00 0. -1.
        -14    1    6    6    0    0  0.23086996140E+02 -0.47145929422E+02  0.20909324341E+02  0.56506175735E+02  0.00000000000E+00 0.  1.
</event>
<event>
12    1  0.8449700E-002  0.1977241E+03  0.7818608E-02  0.1152241E+00
         21   -1    0    0  503  502  0.00000000000E+00  0.00000000000E+00  0.23080285421E+03  0.23080285421E+03  0.00000000000E+00 0. -1.
         21   -1    0    0  501  503 -0.00000000000E+00 -0.00000000000E+00 -0.20105369799E+03  0.20105369799E+03  0.00000000000E+00 0. -1.
          6    2    1    2  501    0 -0.91483047711E+02 -0.30928647891E+02 -0.73723722569E+02  0.21102134229E+03  0.17253721440E+03 0.  0.
         24    2    3    3    0    0 -0.16368856679E+02  0.42209056770E+02 -0.32352005755E+02  0.98216313632E+02  0.80933602692E+02 0.  0.
         -6    2    1    2    0  502  0.91483047711E+02  0.30928647891E+02  0.10347287879E+03  0.22083520992E+03  0.16951644173E+03 0.  0.
        -24    2    5    5    0    0  0.91197094000E+02  0.57033515079E+02  0.25974400236E+02  0.13892275642E+03  0.83994827153E+02 0.  0.
          5    1    3    3  501    0 -0.75114191032E+02 -0.73137704661E+02 -0.41371716813E+02  0.11280502865E+03  0.47000000000E+01 0. -1.
        -13    1    4    4    0    0  0.20011815484E+02  0.48191446931E+01 -0.40485274015E+02  0.45417555269E+02  0.00000000000E+00 0.  1.
         14    1    4    4    0    0 -0.36380672162E+02  0.37389912077E+02  0.81332682599E+01  0.52798758363E+02  0.00000000000E+00 0. -1.
         -5    1    5    5    0  502  0.28595371063E+00 -0.26104867188E+02  0.77498478551E+02  0.81912453498E+02  0.47000000000E+01 0.  1.
         13    1    6    6    0    0  0.66309447169E+02  0.11427042975E+02  0.47833476760E+02  0.82556414614E+02  0.00000000000E+00 0. -1.
        -14    1    6    6    0    0  0.24887646831E+02  0.45606472103E+02 -0.21859076524E+02  0.56366341810E+02  0.00000000000E+00 0.  1.
</event>
<event>
12    1  0.8449700E-002  0.2384230E+03  0.7818608E-02  0.1120936E+00
         21   -1    0    0  503  502  0.00000000000E+00  0.00000000000E+00  0.36256715510E+03  0.36256715510E+03  0.00000000000E+00 0. -1.
         21   -1    0    0  501  503 -0.00000000000E+00 -0.00000000000E+00 -0.20513698007E+03  0.20513698007E+03  0.00000000000E+00 0.  1.
          6    2    1    2  501    0  0.32905370318E+02  0.16237346031E+03 -0.59650172594E+02  0.24526126665E+03  0.17072504743E+03 0.  0.
         24    2    3    3    0    0 -0.17687400182E+02  0.35203365584E+02  0.99411422522E+01  0.91648433462E+02  0.82149181208E+02 0.  0.
         -6    2    1    2    0  502 -0.32905370318E+02 -0.16237346031E+03  0.21708034763E+03  0.32244286852E+03  0.17145734783E+03 0.  0.
        -24    2    5    5    0    0 -0.44431574774E+02 -0.18210656891E+03  0.21906914592E+03  0.29902718397E+03  0.79303207887E+02 0.  0.
          5    1    3    3  501    0  0.50592770500E+02  0.12717009472E+03 -0.69591314847E+02  0.15361283319E+03  0.47000000000E+01 0. -1.
        -13    1    4    4    0    0 -0.47748778997E+02  0.56912133268E+01 -0.10984931858E+01  0.48099298250E+02  0.00000000000E+00 0.  1.
         14    1    4    4    0    0  0.30061378815E+02  0.29512152257E+02  0.11039635438E+02  0.43549135212E+02  0.00000000000E+00 0. -1.
         -5    1    5    5    0  502  0.11526204456E+02  0.19733108604E+02 -0.19887982907E+01  0.23415684551E+02  0.47000000000E+01 0.  1.
         11    1    6    6    0    0 -0.19980744423E+01 -0.13121516244E+03  0.17772896928E+03  0.22092758469E+03  0.00000000000E+00 0. -1.
        -12    1    6    6    0    0 -0.42433500332E+02 -0.50891406473E+02  0.41340176641E+02  0.78099599281E+02  0.00000000000E+00 0.  1.
</event>
<event>
12    1  0.8449700E-002  0.2115146E+03  0.7818608E-02  0.1140396E+00
         21   -1    0    0  501  502  0.00000000000E+00  0.00000000000E+00  0.27224588491E+04  0.27224588491E+04  0.00000000000E+00 0. -1.
         21   -1    0    0  502  503 -0.00000000000E+00 -0.00000000000E+00 -0.17268683931E+02  0.17268683931E+02  0.00000000000E+00 0. -1.
         -6    2    1    2    0  503 -0.12107791437E+03 -0.18561260772E+02  0.16552505597E+04  0.16686945684E+04  0.17228686903E+03 0.  0.
        -24    2    3    3    0    0 -0.84726883963E+02 -0.72173181579E+01  0.15796782485E+04  0.15839399421E+04  0.79067293349E+02 0.  0.
          6    2    1    2  501    0  0.12107791437E+03  0.18561260772E+02  0.10499396054E+04  0.10710329647E+04  0.17243565348E+03 0.  0.
         24    2    5    5    0    0  0.10826722008E+02  0.13144929587E+02  0.23148076438E+03  0.24515063251E+03  0.78901718996E+02 0.  0.
          5    1    5    5  501    0  0.11025119236E+03  0.54163311850E+01  0.81845884105E+03  0.82588233214E+03  0.47000000000E+01 0. -1.
        -13    1    6    6    0    0 -0.15858402723E+02  0.28832037136E+02  0.19290241195E+03  0.19568882400E+03  0.00000000000E+00 0.  1.
         14    1    6    6    0    0  0.26685124731E+02 -0.15687107549E+02  0.38578352425E+02  0.49461808509E+02  0.00000000000E+00 0. -1.
         -5    1    3    3    0  503 -0.36351030404E+02 -0.11343942614E+02  0.75572311182E+02  0.84754626203E+02  0.47000000000E+01 0.  1.
         13    1    4    4    0    0 -0.93088929323E+01 -0.28276213772E+02  0.21947300503E+03  0.22148273001E+03  0.00000000000E+00 0. -1.
        -14    1    4    4    0    0 -0.75417991030E+02  0.21058895614E+02  0.13602052435E+04  0.13624572121E+04  0.00000000000E+00 0.  1.
</event>
<event>
12    1  0.8449700E-002  0.2870136E+03  0.7818608E-02  0.1091982E+00
         21   -1    0    0  501  502  0.00000000000E+00  0.00000000000E+00  0.24016518588E+04  0.24016518588E+04  0.00000000000E+00 0. -1.
         21   -1    0    0  502  503 -0.00000000000E+00 -0.00000000000E+00 -0.40925439880E+02  0.40925439880E+02  0.00000000000E+00 0. -1.
         -6    2    1    2    0  503  0.78629739234E+02 -0.21600145432E+03  0.68769037386E+03  0.74518107915E+03  0.17186484881E+03 0.  0.
        -24    2    3    3    0    0  0.34665897719E+02 -0.17663635053E+03  0.34487891263E+03  0.39729572633E+03  0.80624468912E+02 0.  0.
          6    2    1    2  501    0 -0.78629739234E+02  0.21600145432E+03  0.16730360451E+04  0.16973962196E+04  0.17107031843E+03 0.  0.
         24    2    5    5    0    0  0.23552163452E+00  0.27067122461E+02  0.54133310403E+03  0.54731381037E+03  0.76014425697E+02 0.  0.
          5    1    5    5  501    0 -0.78865260868E+02  0.18893433186E+03  0.11317029411E+04  0.11500824092E+04  0.47000000000E+01 0. -1.
        -13    1    6    6    0    0 -0.17996501933E+02 -0.54299751334E+01  0.36031987333E+02  0.40640654804E+02  0.00000000000E+00 0.  1.
         14    1    6    6    0    0  0.18232023567E+02  0.32497097594E+02  0.50530111670E+03  0.50667315557E+03  0.00000000000E+00 0. -1.
         -5    1    3    3    0  503  0.43963841515E+02 -0.39365103797E+02  0.34281146123E+03  0.34788535282E+03  0.47000000000E+01 0.  1.
         13    1    4    4    0    0  0.85680086695E+01 -0.86971310288E+02  0.24704185242E+03  0.26204407345E+03  0.00000000000E+00 0. -1.
        -14    1    4    4    0    0  0.26097889049E+02 -0.89665040239E+02  0.97837060214E+02  0.13525165287E+03  0.00000000000E+00 0.  1.
</event>
<event>
12    1  0.8449700E-002  0.1930400E+03  0.7818608E-02  0.1155828E+00
         21   -1    0    0  503  502  0.00000000000E+00  0.00000000000E+00  0.15736496437E+03  0.15736496437E+03  0.00000000000E+00 0.  1.
         21   -1    0    0  501  503 -0.00000000000E+00 -0.00000000000E+00 -0.32681421063E+03  0.32681421063E+03  0.00000000000E+00 0.  1.
          6    2    1    2  501    0 -0.38737121268E+02 -0.76581938841E+02 -0.21203092836E+03  0.28649855438E+03  0.17250782348E+03 0.  0.
         24    2    3    3    0    0  0.74902867791E-02 -0.11277794094E+03 -0.16050634820E+03  0.21241638478E+03  0.81483548605E+02 0.  0.
         -6    2    1    2    0  502  0.38737121268E+02  0.76581938841E+02  0.42581682095E+02  0.19768062062E+03  0.17291347605E+03 0.  0.
        -24    2    5    5    0    0  0.37379272832E+02 -0.25103580890E+02  0.20165742568E+02  0.93438819891E+02  0.79352101914E+02 0.  0.
          5    1    3    3  501    0 -0.38744611555E+02  0.36196002096E+02 -0.51524580157E+02  0.74082169599E+02  0.47000000000E+01 0. -1.
        -11    1    4    4    0    0  0.33044904911E+02 -0.85240655069E+02 -0.13290552196E+03  0.16131277936E+03  0.00000000000E+00 0.  1.
         12    1    4    4    0    0 -0.33037414625E+02 -0.27537285868E+02 -0.27600826240E+02  0.51103605422E+02  0.00000000000E+00 0. -1.
         -5    1    5    5    0  502  0.13578484355E+01  0.10168551973E+03  0.22415939527E+02  0.10424180073E+03  0.47000000000E+01 0.  1.
         11    1    6    6    0    0  0.45840937444E+02 -0.33135739537E+02  0.40794639915E+02  0.69739310480E+02  0.00000000000E+00 0. -1.
        -12    1    6    6    0    0 -0.84616646117E+01  0.80321586474E+01 -0.20628897347E+02  0.23699509410E+02  0.00000000000E+00 0.  1.
</event>
<event>
12    1  0.8449700E-002  0.2448852E+03  0.7818608E-02  0.1117679E+00
         21   -1    0    0  501  502  0.00000000000E+00  0.00000000000E+00  0.20915474577E+03  0.20915474577E+03  0.00000000000E+00 0. -1.
         21   -1    0    0  502  503 -0.00000000000E+00 -0.00000000000E+00 -0.29785480520E+03  0.29785480520E+03  0.00000000000E+00 0. -1.
         -6    2    1    2    0  503 -0.11521399215E+03 -0.13062409444E+03 -0.10761379347E+03  0.26139501275E+03  0.16251063384E+03 0.  0.
        -24    2    3    3    0    0 -0.12782624728E+03 -0.15046363739E+03 -0.88286413046E+02  0.23060030414E+03  0.80019709270E+02 0.  0.
          6    2    1    2  501    0  0.11521399215E+03  0.13062409444E+03  0.18913734039E+02  0.24561453822E+03  0.17213905430E+03 0.  0.
         24    2    5    5    0    0  0.39706522313E+02  0.13861707307E+03  0.32425574417E+02  0.16834924499E+03  0.80614822146E+02 0.  0.
          5    1    5    5  501    0  0.75507469833E+02 -0.79929786328E+01 -0.13511840378E+02  0.77265293233E+02  0.47000000000E+01 0. -1.
        -11    1    6    6    0    0 -0.18666663222E+02  0.10261807066E+02  0.15474095667E+02  0.26328627704E+02  0.00000000000E+00 0.  1.
         12    1    6    6    0    0  0.58373185535E+02  0.12835526601E+03  0.16951478750E+02  0.14202061728E+03  0.00000000000E+00 0. -1.
         -5    1    3    3    0  503  0.12612255132E+02  0.19839542953E+02 -0.19327380421E+02  0.30794708605E+02  0.47000000000E+01 0.  1.
         13    1    4    4    0    0 -0.11010395461E+03 -0.96421702885E+02 -0.93205194693E+02  0.17351436230E+03  0.00000000000E+00 0. -1.
        -14    1    4    4    0    0 -0.17722292668E+02 -0.54041934508E+02  0.49187816470E+01  0.57085941839E+02  0.00000000000E+00 0.  1.
</event>
<event>
12    1  0.8449700E-002  0.2098335E+03  0.7818608E-02  0.1141847E+00
         21   -1    0    0  503  502  0.00000000000E+00  0.00000000000E+00  0.17439591308E+03  0.17439591308E+03  0.00000000000E+00 0. -1.
         21   -1    0    0  501  503 -0.00000000000E+00 -0.00000000000E+00 -0.33607311550E+03  0.33607311550E+03  0.00000000000E+00 0.  1.
          6    2    1    2  501    0  0.10343564284E+03 -0.61869129362E+02  0.47037935003E+02  0.21504103719E+03  0.17176541842E+03 0.  0.
         24    2    3    3    0    0  0.63772206883E+02 -0.74634513212E+02 -0.27082409189E+02  0.12988201770E+03  0.80614370311E+02 0.  0.
         -6    2    1    2    0  502 -0.10343564284E+03  0.61869129362E+02 -0.20871513742E+03  0.29542799139E+03  0.17084779228E+03 0.  0.
        -24    2    5    5    0    0 -0.12132133801E+03  0.60825287366E+02 -0.10548857750E+03  0.19055282573E+03  0.82243277973E+02 0.  0.
          5    1    3    3  501    0  0.39663435960E+02  0.12765383850E+02  0.74120344193E+02  0.85159019489E+02  0.47000000000E+01 0. -1.
        -13    1    4    4    0    0  0.77471020451E+02 -0.38884064682E+02 -0.78467168989E+01  0.87036202019E+02  0.00000000000E+00 0.  1.
         14    1    4    4    0    0 -0.13698813568E+02 -0.35750448530E+02 -0.19235692290E+02  0.42845815678E+02  0.00000000000E+00 0. -1.
         -5    1    5    5    0  502  0.17885695167E+02  0.10438419962E+01 -0.10322655993E+03  0.10487516566E+03  0.47000000000E+01 0.  1.
         11    1    6    6    0    0 -0.52335685027E+02 -0.13214620806E+02 -0.18360402722E+02  0.57015388435E+02  0.00000000000E+00 0. -1.
        -12    1    6    6    0    0 -0.68985652983E+02  0.74039908172E+02 -0.87128174774E+02  0.13353743729E+03  0.00000000000E+00 0.  1.
</event>
<event>
12    1  0.8449700E-002  0.2349973E+03  0.7818608E-02  0.1123390E+00
         21   -1    0    0  503  502  0.00000000000E+00  0.00000000000E+00  0.14040248573E+03  0.14040248573E+03  0.00000000000E+00 0.  1.
         21   -1    0    0  501  503 -0.00000000000E+00 -0.00000000000E+00 -0.83051588796E+03  0.83051588796E+03  0.00000000000E+00 0. -1.
          6    2    1    2  501    0  0.14899545671E+03  0.56858863951E+02 -0.69769298408E+03  0.73579888197E+03  0.17085642551E+03 0.  0.
         24    2    3    3    0    0  0.17171172378E+03  0.70815359985E+02 -0.55675280944E+03  0.59228220908E+03  0.79528567636E+02 0.  0.
         -6    2    1    2    0  502 -0.14899545671E+03 -0.56858863951E+02  0.75795818529E+01  0.23511949173E+03  0.17260112630E+03 0.  0.
        -24    2    5    5    0    0 -0.10005492616E+03  0.28866255762E+02  0.28523400044E+02  0.13410115081E+03  0.79531662433E+02 0.  0.
          5    1    3    3  501    0 -0.22716267071E+02 -0.13956496035E+02 -0.14094017464E+03  0.14351667289E+03  0.47000000000E+01 0. -1.
        -13    1    4    4    0    0  0.64039093467E+01 -0.15335450277E+01  0.43932273920E+00  0.65996075446E+01  0.00000000000E+00 0.  1.
         14    1    4    4    0    0  0.16530781443E+03  0.72348905013E+02 -0.55719213218E+03  0.58568260153E+03  0.00000000000E+00 0. -1.
         -5    1    5    5    0  502 -0.48940530555E+02 -0.85725119713E+02 -0.20943818191E+02  0.10101834091E+03  0.47000000000E+01 0.  1.
         11    1    6    6    0    0  0.51959596755E+01  0.20593755659E+02 -0.75374754160E+01  0.22536954202E+02  0.00000000000E+00 0. -1.
        -12    1    6    6    0    0 -0.10525088583E+03  0.82725001033E+01  0.36060875460E+02  0.11156419661E+03  0.00000000000E+00 0.  1.
</event>
<event>
12    1  0.8449700E-002  0.1762058E+03  0.7818608E-02  0.1171811E+00
         21   -1    0    0  503  502  0.00000000000E+00  0.00000000000E+00  0.96489814704E+02  0.96489814704E+02  0.00000000000E+00 0. -1.
         21   -1    0    0  501  503 -0.00000000000E+00 -0.00000000000E+00 -0.53243442921E+03  0.53243442921E+03  0.00000000000E+00 0. -1.
          6    2    1    2  501    0  0.12118664371E+01 -0.37938224025E+02 -0.41716624562E+03  0.45285336066E+03  0.17206891732E+03 0.  0.
         24    2    3    3    0    0 -0.51916909718E+02 -0.10281096895E+02 -0.13121396316E+03  0.16065756776E+03  0.76109680620E+02 0.  0.
         -6    2    1    2    0  502 -0.12118664371E+01  0.37938224025E+02 -0.18778368881E+02  0.17607088325E+03  0.17090216889E+03 0.  0.
        -24    2    5    5    0    0 -0.44098402854E+02  0.33289929099E+02  0.34780843222E+02  0.10713946188E+03  0.84948624021E+02 0.  0.
          5    1    3    3  501    0  0.53128776156E+02 -0.27657127130E+02 -0.28595228247E+03  0.29219579290E+03  0.47000000000E+01 0. -1.
        -11    1    4    4    0    0 -0.53235828325E+01 -0.14861522954E+02  0.50505490020E+01  0.16574481708E+02  0.00000000000E+00 0.  1.
         12    1    4    4    0    0 -0.46593326886E+02  0.45804260591E+01 -0.13626451216E+03  0.14408308605E+03  0.00000000000E+00 0. -1.
         -5    1    5    5    0  502  0.42886536417E+02  0.46482949263E+01 -0.53559212103E+02  0.68931421374E+02  0.47000000000E+01 0.  1.
         11    1    6    6    0    0 -0.64056064125E+02  0.13512251402E+02  0.41848099050E+01  0.65599336300E+02  0.00000000000E+00 0. -1.
        -12    1    6    6    0    0  0.19957661270E+02  0.19777677697E+02  0.30596033317E+02  0.41540125580E+02  0.00000000000E+00 0.  1.
</event>
<event>
12    1  0.8449700E-002  0.2069076E+03  0.7818608E-02  0.1144124E+00
         21   -1    0    0  501  502  0.00000000000E+00  0.00000000000E+00  0.15372254104E+03  0.15372254104E+03  0.00000000000E+00 0.  1.
         21   -1    0    0  502  503 -0.00000000000E+00 -0.00000000000E+00 -0.58207134687E+03  0.58207134687E+03  0.00000000000E+00 0. -1.
         -6    2    1    2    0  503  0.10523037145E+03 -0.45451037323E+02 -0.48021584305E+03  0.52289389942E+03  0.17225430694E+03 0.  0.
        -24    2    3    3    0    0  0.70709309759E+02  0.14655405445E+02 -0.41102264758E+03  0.42484148251E+03  0.79599504004E+02 0.  0.
          6    2    1    2  501    0 -0.10523037145E+03  0.45451037323E+02  0.51867037229E+02  0.21289998849E+03  0.17174687095E+03 0.  0.
         24    2    5    5    0    0 -0.11619311715E+03  0.66234913811E+02  0.81294207349E+02  0.17495002596E+03  0.78171984458E+02 0.  0.
          5    1    5    5  501    0  0.10962745700E+02 -0.20783876488E+02 -0.29427170120E+02  0.37949962535E+02  0.47000000000E+01 0. -1.
        -11    1    6    6    0    0 -0.48437331040E+02 -0.52105289539E+01  0.23977574674E+01  0.48775751056E+02  0.00000000000E+00 0.  1.
         12    1    6    6    0    0 -0.67755786108E+02  0.71445442765E+02  0.78896449882E+02  0.12617427490E+03  0.00000000000E+00 0. -1.
         -5    1    3    3    0  503  0.34521061689E+02 -0.60106442768E+02 -0.69193195472E+02  0.98052416911E+02  0.47000000000E+01 0.  1.
         11    1    4    4    0    0 -0.11772966819E+02  0.20573331742E+02 -0.68775740245E+02  0.72745908290E+02  0.00000000000E+00 0. -1.
        -12    1    4    4    0    0  0.82482276578E+02 -0.59179262962E+01 -0.34224690734E+03  0.35209557422E+03  0.00000000000E+00 0.  1.
</event>
<event>
12    1  0.8449700E-002  0.2324412E+03  0.7818608E-02  0.1124987E+00
         21   -1    0    0  501  502  0.00000000000E+00  0.00000000000E+00  0.63209213243E+02  0.63209213243E+02  0.00000000000E+00 0. -1.
         21   -1    0    0  502  503 -0.00000000000E+00 -0.00000000000E+00 -0.13932625026E+04  0.13932625026E+04  0.00000000000E+00 0. -1.
         -6    2    1    2    0  503  0.14958105007E+03  0.45699385953E+02 -0.11179712902E+04  0.11418168314E+04  0.17153118211E+03 0.  0.
        -24    2    3    3    0    0  0.14587329596E+03  0.68841561850E+02 -0.10909880391E+04  0.11057683421E+04  0.80315289575E+02 0.  0.
          6    2    1    2  501    0 -0.14958105007E+03 -0.45699385953E+02 -0.21208199924E+03  0.31465488448E+03  0.17194765922E+03 0.  0.
         24    2    5    5    0    0 -0.11189382531E+03  0.27948424502E+02 -0.87748984908E+02  0.16523897051E+03  0.79389485758E+02 0.  0.
          5    1    5    5  501    0 -0.37687224761E+02 -0.73647810455E+02 -0.12433301433E+03  0.14941591397E+03  0.47000000000E+01 0. -1.
        -11    1    6    6    0    0 -0.73063431903E+02  0.54574805743E+02 -0.45216690343E+02  0.10179009573E+03  0.00000000000E+00 0.  1.
         12    1    6    6    0    0 -0.38830393405E+02 -0.26626381240E+02 -0.42532294565E+02  0.63448874781E+02  0.00000000000E+00 0. -1.
         -5    1    3    3    0  503  0.37077541079E+01 -0.23142175897E+02 -0.26983251058E+02  0.36048489337E+02  0.47000000000E+01 0.  1.
         11    1    4    4    0    0  0.14064034642E+03  0.43564702667E+02 -0.78460208297E+03  0.79829694911E+03  0.00000000000E+00 0. -1.
        -12    1    4    4    0    0  0.52329495451E+01  0.25276859183E+02 -0.30638595613E+03  0.30747139295E+03  0.00000000000E+00 0.  1.
</event>
<event>
12    1  0.8449700E-002  0.2649213E+03  0.7818608E-02  0.1104284E+00
         21   -1    0    0  501  502  0.00000000000E+00  0.00000000000E+00  0.91442759330E+02  0.91442759330E+02  0.00000000000E+00 0. -1.
         21   -1    0    0  502  503 -0.00000000000E+00 -0.00000000000E+00 -0.95574319474E+03  0.95574319474E+03  0.00000000000E+00 0.  1.
         -6    2    1    2    0  503  0.24064771713E+02  0.19940510015E+03 -0.66554841564E+03  0.71633650697E+03  0.17274776538E+03 0.  0.
        -24    2    3    3    0    0 -0.31965293818E+02  0.17537712250E+03 -0.57360369117E+03  0.60591624473E+03  0.79588856014E+02 0.  0.
          6    2    1    2  501    0 -0.24064771713E+02 -0.19940510015E+03 -0.19875201976E+03  0.33084944710E+03  0.17209730992E+03 0.  0.
         24    2    5    5    0    0 -0.71983868229E+02 -0.10274529581E+03 -0.68417607875E+02  0.16159075011E+03  0.75447520541E+02 0.  0.
          5    1    5    5  501    0  0.47919096516E+02 -0.96659804341E+02 -0.13033441189E+03  0.16925869700E+03  0.47000000000E+01 0. -1.
        -13    1    6    6    0    0 -0.49847626898E+02 -0.18047378744E+02 -0.45153724243E+01  0.53206037016E+02  0.00000000000E+00 0.  1.
         14    1    6    6    0    0 -0.22136241331E+02 -0.84697917067E+02 -0.63902235451E+02  0.10838471309E+03  0.00000000000E+00 0. -1.
         -5    1    3    3    0  503  0.56030065531E+02  0.24027977656E+02 -0.91944724473E+02  0.11042026224E+03  0.47000000000E+01 0.  1.
         13    1    4    4    0    0 -0.57464234053E+02  0.12205044328E+03 -0.36635048518E+03  0.39039867686E+03  0.00000000000E+00 0. -1.
        -14    1    4    4    0    0  0.25498940235E+02  0.53326679215E+02 -0.20725320599E+03  0.21551756787E+03  0.00000000000E+00 0.  1.
</event>
<event>
12    1  0.8449700E-002  0.2426637E+03  0.7818608E-02  0.1118304E+00
         21   -1    0    0  501  502  0.00000000000E+00  0.00000000000E+00  0.36514799940E+03  0.36514799940E+03  0.00000000000E+00 0. -1.
         21   -1    0    0  502  503 -0.00000000000E+00 -0.00000000000E+00 -0.33719413183E+03  0.33719413183E+03  0.00000000000E+00 0.  1.
         -6    2    1    2    0  503  0.25296007217E+02  0.17056117767E+03 -0.24044708757E+03  0.34161452872E+03  0.17074741873E+03 0.  0.
        -24    2    3    3    0    0 -0.84178294174E+01  0.69442263812E+02 -0.38545133168E+02  0.11325484158E+03  0.80298468197E+02 0.  0.
          6    2    1    2  501    0 -0.25296007217E+02 -0.17056117767E+03  0.26840095513E+03  0.36072760252E+03  0.16838743181E+03 0.  0.
         24    2    5    5    0    0  0.18715209451E+02 -0.63894791802E+02  0.20251824592E+03  0.22777149532E+03  0.80208544856E+02 0.  0.
          5    1    5    5  501    0 -0.44011216668E+02 -0.10666638587E+03  0.65882709218E+02  0.13295610719E+03  0.47000000000E+01 0. -1.
        -11    1    6    6    0    0 -0.24447586817E+02 -0.12127415495E+02  0.10981827995E+03  0.11315835506E+03  0.00000000000E+00 0.  1.
         12    1    6    6    0    0  0.43162796268E+02 -0.51767376307E+02  0.92699965963E+02  0.11461314026E+03  0.00000000000E+00 0. -1.
         -5    1    3    3    0  503  0.33713836634E+02  0.10111891386E+03 -0.20190195440E+03  0.22835968714E+03  0.47000000000E+01 0.  1.
         13    1    4    4    0    0  0.25299151393E+02  0.28878369945E+02  0.11974838288E+02  0.40216962390E+02  0.00000000000E+00 0. -1.
        -14    1    4    4    0    0 -0.33716980810E+02  0.40563893867E+02 -0.50519971456E+02  0.73037879190E+02  0.00000000000E+00 0.  1.
</event>
<event>
12    1  0.8449700E-002  0.2098188E+03  0.7818608E-02  0.1146048E+00
         21   -1    0    0  501  502  0.00000000000E+00  0.00000000000E+00  0.34151081142E+03  0.34151081142E+03  0.00000000000E+00 0. -1.
         21   -1    0    0  502  503 -0.00000000000E+00 -0.00000000000E+00 -0.14714190217E+03  0.14714190217E+03  0.00000000000E+00 0.  1.
         -6    2    1    2    0  503  0.69433615412E+02 -0.37944538473E+02  0.21255987393E+03  0.29867308540E+03  0.19432729347E+03 0.  0.
        -24    2    3    3    0    0  0.51095361575E+02  0.10477111361E+02  0.18055138661E+02  0.97339705730E+02  0.80178079564E+02 0.  0.
          6    2    1    2  501    0 -0.69433615412E+02  0.37944538473E+02 -0.18190964686E+02  0.18997962819E+03  0.17175719194E+03 0.  0.
         24    2    5    5    0    0 -0.32454428193E+02  0.79256660726E+01 -0.75901289403E+02  0.11500520211E+03  0.79681143864E+02 0.  0.
          5    1    5    5  501    0 -0.36979187219E+02  0.30018872401E+02  0.57710324717E+02  0.74974426084E+02  0.47000000000E+01 0. -1.
        -13    1    6    6    0    0 -0.39237989148E+02  0.37609033069E+02 -0.37665161070E+02  0.66126571960E+02  0.00000000000E+00 0.  1.
         14    1    6    6    0    0  0.67835609556E+01 -0.29683366996E+02 -0.38236128333E+02  0.48878630150E+02  0.00000000000E+00 0. -1.
         -5    1    3    3    0  503  0.18338253837E+02 -0.48421649834E+02  0.19450473527E+03  0.20133337967E+03  0.47000000000E+01 0.  1.
         11    1    4    4    0    0  0.62473593590E+02  0.99161419549E+01  0.38416943847E+02  0.74007711368E+02  0.00000000000E+00 0. -1.
        -12    1    4    4    0    0 -0.11378232015E+02  0.56096940592E+00 -0.20361805186E+02  0.23331994362E+02  0.00000000000E+00 0.  1.
</event>
<event>
12    1  0.8449700E-002  0.2318494E+03  0.7818608E-02  0.1125957E+00
         21   -1    0    0  503  502  0.00000000000E+00  0.00000000000E+00  0.50826594855E+03  0.50826594855E+03  0.00000000000E+00 0. -1.
         21   -1    0    0  501  503 -0.00000000000E+00 -0.00000000000E+00 -0.10479661900E+03  0.10479661900E+03  0.00000000000E+00 0. -1.
          6    2    1    2  501    0 -0.23253580426E+02  0.14930781792E+03  0.17964840868E+03  0.29330480518E+03  0.17584255602E+03 0.  0.
         24    2    3    3    0    0  0.31847270593E+02  0.51122312974E+02  0.14549915363E+03  0.17555609485E+03  0.77602829862E+02 0.  0.
         -6    2    1    2    0  502  0.23253580426E+02 -0.14930781792E+03  0.22382092087E+03  0.31975776237E+03  0.17121818969E+03 0.  0.
        -24    2    5    5    0    0  0.27017483557E+02 -0.58565683265E+02  0.37464382166E+02  0.11239539479E+03  0.84078898453E+02 0.  0.
          5    1    3    3  501    0 -0.55100851020E+02  0.98185504948E+02  0.34149255045E+02  0.11774871033E+03  0.47000000000E+01 0. -1.
        -11    1    4    4    0    0  0.33406974258E+02  0.69934727508E+02  0.12896373697E+03  0.15046108298E+03  0.00000000000E+00 0.  1.
         12    1    4    4    0    0 -0.15597036650E+01 -0.18812414534E+02  0.16535416666E+02  0.25095011864E+02  0.00000000000E+00 0. -1.
         -5    1    5    5    0  502 -0.37639031312E+01 -0.90742134657E+02  0.18635653871E+03  0.20736236758E+03  0.47000000000E+01 0.  1.
         11    1    6    6    0    0 -0.15114880812E+02 -0.61170125062E+02  0.28905470145E+02  0.69323661375E+02  0.00000000000E+00 0. -1.
        -12    1    6    6    0    0  0.42132364370E+02  0.26044417975E+01  0.85589120212E+01  0.43071733416E+02  0.00000000000E+00 0.  1.
</event>
<event>
12    1  0.8449700E-002  0.1873099E+03  0.7818608E-02  0.1161245E+00
         21   -1    0    0  501  502  0.00000000000E+00  0.00000000000E+00  0.58763288069E+03  0.58763288069E+03  0.00000000000E+00 0.  1.
         21   -1    0    0  502  503 -0.00000000000E+00 -0.00000000000E+00 -0.63747084120E+02  0.63747084120E+02  0.00000000000E+00 0.  1.
         -6    2    1    2    0  503 -0.29932839147E+02  0.68417782896E+02  0.34945894074E+03  0.39649283338E+03  0.17177906679E+03 0.  0.
        -24    2    3    3    0    0  0.67008493799E+01  0.69513922411E+02  0.10630675920E+03  0.15054913648E+03  0.80540850834E+02 0.  0.
          6    2    1    2  501    0  0.29932839147E+02 -0.68417782896E+02  0.17442685583E+03  0.25488713142E+03  0.17019328381E+03 0.  0.
         24    2    5    5    0    0 -0.37419537332E+02 -0.36827896311E+02  0.14642313537E+03  0.17525948603E+03  0.80744270071E+02 0.  0.
          5    1    5    5  501    0  0.67352376480E+02 -0.31589886585E+02  0.28003720453E+02  0.79627645395E+02  0.47000000000E+01 0. -1.
        -11    1    6    6    0    0 -0.19412871053E+02  0.21289704187E+02  0.20353413613E+02  0.35275664595E+02  0.00000000000E+00 0.  1.
         12    1    6    6    0    0 -0.18006666279E+02 -0.58117600498E+02  0.12606972176E+03  0.13998382143E+03  0.00000000000E+00 0. -1.
         -5    1    3    3    0  503 -0.36633688527E+02 -0.10961395152E+01  0.24315218154E+03  0.24594369690E+03  0.47000000000E+01 0.  1.
         11    1    4    4    0    0 -0.25898208771E+02  0.91093724642E+01  0.45829717949E+01  0.27833460344E+02  0.00000000000E+00 0. -1.
        -12    1    4    4    0    0  0.32599058151E+02  0.60404549947E+02  0.10172378740E+03  0.12271567614E+03  0.00000000000E+00 0.  1.
</event>
<event>
12    1  0.8449700E-002  0.2088123E+03  0.7818608E-02  0.1142678E+00
         21   -1    0    0  503  502  0.00000000000E+00  0.00000000000E+00  0.87557248009E+03  0.87557248009E+03  0.00000000000E+00 0. -1.
         21   -1    0    0  501  503 -0.00000000000E+00 -0.00000000000E+00 -0.57120745919E+02  0.57120745919E+02  0.00000000000E+00 0.  1.
          6    2    1    2  501    0 -0.10389253503E+03 -0.50830115264E+02  0.24070761152E+03  0.31865768325E+03  0.17385397722E+03 0.  0.
         24    2    3    3    0    0 -0.49803737163E+02  0.40168987906E+02  0.10247229387E+03  0.14448096873E+03  0.79247835869E+02 0.  0.
         -6    2    1    2    0  502  0.10389253503E+03  0.50830115264E+02  0.57774412265E+03  0.61403554277E+03  0.17284101675E+03 0.  0.
        -24    2    5    5    0    0  0.11913970315E+03  0.80909356538E+02  0.53273952831E+03  0.55760203851E+03  0.79799971661E+02 0.  0.
          5    1    3    3  501    0 -0.54088797866E+02 -0.90999103170E+02  0.13823531765E+03  0.17417671451E+03  0.47000000000E+01 0. -1.
        -13    1    4    4    0    0 -0.39406654334E+02  0.39910505902E+02  0.17326197480E+02  0.58702044310E+02  0.00000000000E+00 0.  1.
         14    1    4    4    0    0 -0.10397082830E+02  0.25848200491E+00  0.85146096393E+02  0.85778924423E+02  0.00000000000E+00 0. -1.
         -5    1    5    5    0  502 -0.15247168125E+02 -0.30079241274E+02  0.45004594336E+02  0.56433504258E+02  0.47000000000E+01 0.  1.
         11    1    6    6    0    0  0.68424268215E+02  0.71079351236E+02  0.22678307759E+03  0.24731501963E+03  0.00000000000E+00 0. -1.
        -12    1    6    6    0    0  0.50715434939E+02  0.98300053019E+01  0.30595645072E+03  0.31028701888E+03  0.00000000000E+00 0.  1.
</event>
<event>
12    1  0.8449700E-002  0.1851154E+03  0.7818608E-02  0.1163169E+00
         21   -1    0    0  501  502  0.00000000000E+00  0.00000000000E+00  0.59367588514E+03  0.59367588514E+03  0.00000000000E+00 0. -1.
         21   -1    0    0  502  503 -0.00000000000E+00 -0.00000000000E+00 -0.93834698192E+02  0.93834698192E+02  0.00000000000E+00 0.  1.
         -6    2    1    2    0  503  0.65056398498E+02 -0.12948856683E+02  0.36177420607E+02  0.18861738280E+03  0.17282275156E+03 0.  0.
        -24    2    3    3    0    0  0.98757415322E+02 -0.44302557269E+02  0.47503310714E+02  0.14098148392E+03  0.76834045951E+02 0.  0.
          6    2    1    2  501    0 -0.65056398498E+02  0.12948856683E+02  0.46366376634E+03  0.49889320053E+03  0.17178570792E+03 0.  0.
         24    2    5    5    0    0 -0.15854750472E+02  0.69686922119E+02  0.25427330294E+03  0.27639271424E+03  0.81427143323E+02 0.  0.
          5    1    5    5  501    0 -0.49201648026E+02 -0.56738065437E+02  0.20939046340E+03  0.22250048629E+03  0.47000000000E+01 0. -1.
        -11    1    6    6    0    0 -0.24934000527E+02  0.75755499925E+02  0.25314847111E+03  0.26541429610E+03  0.00000000000E+00 0.  1.
         12    1    6    6    0    0  0.90792500544E+01 -0.60685778053E+01  0.11248318306E+01  0.10978418136E+02  0.00000000000E+00 0. -1.
         -5    1    3    3    0  503 -0.33701016824E+02  0.31353700586E+02 -0.11325890107E+02  0.47635898880E+02  0.47000000000E+01 0.  1.
         11    1    4    4    0    0  0.28119206023E+02  0.19242782996E+02  0.27730695332E+02  0.43931377265E+02  0.00000000000E+00 0. -1.
        -12    1    4    4    0    0  0.70638209298E+02 -0.63545340265E+02  0.19772615382E+02  0.97050106653E+02  0.00000000000E+00 0.  1.
</event>
<event>
12    1  0.8449700E-002  0.1788839E+03  0.7818608E-02  0.1170145E+00
         21   -1    0    0  503  502  0.00000000000E+00  0.00000000000E+00  0.64355278364E+03  0.64355278364E+03  0.00000000000E+00 0.  1.
         21   -1    0    0  501  503 -0.00000000000E+00 -0.00000000000E+00 -0.10459300059E+03  0.10459300059E+03  0.00000000000E+00 0.  1.
          6    2    1    2  501    0  0.18641523570E+02 -0.46568286167E+02 -0.30913796120E+01  0.17891060912E+03  0.17170712784E+03 0.  0.
         24    2    3    3    0    0  0.21977943820E+02 -0.13866008293E+01 -0.64266692100E+02  0.10264118374E+03  0.76941875526E+02 0.  0.
         -6    2    1    2    0  502 -0.18641523570E+02  0.46568286167E+02  0.54205116266E+03  0.56923517511E+03  0.16641246937E+03 0.  0.
        -24    2    5    5    0    0 -0.28589020511E+02  0.31420890976E+02  0.14512745945E+03  0.17187021384E+03  0.81687125267E+02 0.  0.
          5    1    3    3  501    0 -0.33364202501E+01 -0.45181685338E+02  0.61175312488E+02  0.76269425382E+02  0.47000000000E+01 0. -1.
        -13    1    4    4    0    0  0.43391005079E+02 -0.21008266242E+02 -0.26546032300E+02  0.55034701809E+02  0.00000000000E+00 0.  1.
         14    1    4    4    0    0 -0.21413061259E+02  0.19621665413E+02 -0.37720659800E+02  0.47606481930E+02  0.00000000000E+00 0. -1.
         -5    1    5    5    0  502  0.99474969411E+01  0.15147395192E+02  0.39692370321E+03  0.39736496127E+03  0.47000000000E+01 0.  1.
         13    1    6    6    0    0  0.16949860398E+02  0.21897740884E+02  0.10814994099E+02  0.29728318498E+02  0.00000000000E+00 0. -1.
        -14    1    6    6    0    0 -0.45538880909E+02  0.95231500914E+01  0.13431246535E+03  0.14214189534E+03  0.00000000000E+00 0.  1.
</event>
<event>
12    1  0.8449700E-002  0.1759077E+03  0.7818608E-02  0.1172262E+00
         21   -1    0    0  503  502  0.00000000000E+00  0.00000000000E+00  0.15754158005E+03  0.15754158005E+03  0.00000000000E+00 0.  1.
         21   -1    0    0  501  503 -0.00000000000E+00 -0.00000000000E+00 -0.62624066675E+03  0.62624066675E+03  0.00000000000E+00 0.  1.
          6    2    1    2  501    0  0.37856047606E+02  0.18554403484E+02  0.91417069716E+02  0.19669314308E+03  0.16897859530E+03 0.  0.
         24    2    3    3    0    0 -0.21123340220E+02  0.42750160002E+02  0.90031243151E+01  0.92394767167E+02  0.78625473417E+02 0.  0.
         -6    2    1    2    0  502 -0.37856047606E+02 -0.18554403484E+02 -0.56011615641E+03  0.58708910372E+03  0.17078103174E+03 0.  0.
        -24    2    5    5    0    0 -0.59330458803E+01 -0.24152595229E+02 -0.54221808580E+03  0.54976821517E+03  0.87327481119E+02 0.  0.
          5    1    3    3  501    0  0.58979387826E+02 -0.24195756519E+02  0.82413945401E+02  0.10429837591E+03  0.47000000000E+01 0. -1.
        -11    1    4    4    0    0  0.15900109086E+02  0.49572996703E+02 -0.48364265325E+01  0.52284667855E+02  0.00000000000E+00 0.  1.
         12    1    4    4    0    0 -0.37023449306E+02 -0.68228367007E+01  0.13839550848E+02  0.40110099312E+02  0.00000000000E+00 0. -1.
         -5    1    5    5    0  502 -0.31923001726E+02  0.55981917454E+01 -0.17898070614E+02  0.37320888544E+02  0.47000000000E+01 0.  1.
         13    1    6    6    0    0 -0.15037462059E+02 -0.19947529477E+01 -0.12912352759E+02  0.19920671632E+02  0.00000000000E+00 0. -1.
        -14    1    6    6    0    0  0.91044161788E+01 -0.22157842281E+02 -0.52930573304E+03  0.52984754354E+03  0.00000000000E+00 0.  1.
</event>
<event>
12    1  0.8449700E-002  0.1859970E+03  0.7818608E-02  0.1162940E+00
         21   -1    0    0  501  502  0.00000000000E+00  0.00000000000E+00  0.28641176952E+03  0.28641176952E+03  0.00000000000E+00 0.  1.
         21   -1    0    0  502  503 -0.00000000000E+00 -0.00000000000E+00 -0.12290505711E+03  0.12290505711E+03  0.00000000000E+00 0. -1.
         -6    2    1    2    0  503  0.27793438432E+02 -0.67702352580E+02  0.42397901067E+02  0.18736590758E+03  0.16718946601E+03 0.  0.
        -24    2    3    3    0    0  0.16082755204E+02 -0.47281905771E+02  0.92955625453E+02  0.13139887939E+03  0.78298681809E+02 0.  0.
          6    2    1    2  501    0 -0.27793438432E+02  0.67702352580E+02  0.12110881134E+03  0.22195091905E+03  0.17099351601E+03 0.  0.
         24    2    5    5    0    0  0.71730987164E+01  0.18647252643E+01  0.12488124244E+03  0.14716072499E+03  0.77498540125E+02 0.  0.
          5    1    5    5  501    0 -0.34966537148E+02  0.65837627315E+02 -0.37724310998E+01  0.74790194057E+02  0.47000000000E+01 0. -1.
        -13    1    6    6    0    0  0.37858049639E+02 -0.12610776675E+02  0.43712917478E+02  0.59186846218E+02  0.00000000000E+00 0.  1.
         14    1    6    6    0    0 -0.30684950922E+02  0.14475501939E+02  0.81168324959E+02  0.87973878772E+02  0.00000000000E+00 0. -1.
         -5    1    3    3    0  503  0.11710683228E+02 -0.20420446809E+02 -0.50557724386E+02  0.55967028192E+02  0.47000000000E+01 0.  1.
         13    1    4    4    0    0  0.29497822371E+02  0.19099641295E+01  0.53564339538E+01  0.30040986540E+02  0.00000000000E+00 0. -1.
        -14    1    4    4    0    0 -0.13415067167E+02 -0.49191869900E+02  0.87599191499E+02  0.10135789285E+03  0.00000000000E+00 0.  1.
</event>
<event>
12    1  0.8449700E-002  0.1935023E+03  0.7818608E-02  0.1155665E+00
         21   -1    0    0  503  502  0.00000000000E+00  0.00000000000E+00  0.16751306030E+03  0.16751306030E+03  0.00000000000E+00 0.  1.
         21   -1    0    0  501  503 -0.00000000000E+00 -0.00000000000E+00 -0.27791199466E+03  0.27791199466E+03  0.00000000000E+00 0.  1.
          6    2    1    2  501    0 -0.83314640764E+02  0.23873795976E+02  0.44680487811E+02  0.19859379844E+03  0.17300827521E+03 0.  0.
         24    2    3    3    0    0  0.22878344726E+02  0.10341760554E+02  0.22519403077E+01  0.83344773317E+02  0.79441231960E+02 0.  0.
         -6    2    1    2    0  502  0.83314640764E+02 -0.23873795976E+02 -0.15507942217E+03  0.24683125652E+03  0.17136147324E+03 0.  0.
        -24    2    5    5    0    0  0.29041113989E+02 -0.14895404966E+02 -0.16884943277E+03  0.18992844107E+03  0.80606590236E+02 0.  0.
          5    1    3    3  501    0 -0.10619298549E+03  0.13532035422E+02  0.42428547503E+02  0.11524902513E+03  0.47000000000E+01 0. -1.
        -13    1    4    4    0    0  0.40670982211E+02  0.34484749513E+02  0.15743646760E+01  0.53346090457E+02  0.00000000000E+00 0.  1.
         14    1    4    4    0    0 -0.17792637485E+02 -0.24142988959E+02  0.67757563168E+00  0.29998682859E+02  0.00000000000E+00 0. -1.
         -5    1    5    5    0  502  0.54273526775E+02 -0.89783910100E+01  0.13770010600E+02  0.56902815445E+02  0.47000000000E+01 0.  1.
         13    1    6    6    0    0  0.12879235749E+02  0.31626694864E+02 -0.43860637737E+02  0.55586671821E+02  0.00000000000E+00 0. -1.
        -14    1    6    6    0    0  0.16161878240E+02 -0.46522099830E+02 -0.12498879504E+03  0.13434176925E+03  0.00000000000E+00 0.  1.
</event>
<event>
12    1  0.8449700E-002  0.2057065E+03  0.7818608E-02  0.1146562E+00
         21   -1    0    0  501  502  0.00000000000E+00  0.00000000000E+00  0.10160527888E+03  0.10160527888E+03  0.00000000000E+00 0. -1.
         21   -1    0    0  502  503 -0.00000000000E+00 -0.00000000000E+00 -0.71896616147E+03  0.71896616147E+03  0.00000000000E+00 0. -1.
         -6    2    1    2    0  503 -0.88868431829E+02 -0.40828752611E+02 -0.57811185478E+03  0.61115403710E+03  0.17242782609E+03 0.  0.
        -24    2    3    3    0    0  0.22276203599E+02 -0.27205878776E+02 -0.27614553185E+03  0.28906016436E+03  0.77865491520E+02 0.  0.
          6    2    1    2  501    0  0.88868431829E+02  0.40828752611E+02 -0.39249027818E+02  0.20941740325E+03  0.18097120595E+03 0.  0.
         24    2    5    5    0    0  0.11827330105E+03 -0.57392457568E+01 -0.52448867055E+02  0.15258826845E+03  0.80689425143E+02 0.  0.
          5    1    5    5  501    0 -0.29404869224E+02  0.46567998368E+02  0.13199839236E+02  0.56829134799E+02  0.47000000000E+01 0. -1.
        -11    1    6    6    0    0  0.63578577895E+02 -0.43238295835E+02 -0.30820163523E+02  0.82835187412E+02  0.00000000000E+00 0.  1.
         12    1    6    6    0    0  0.54694723158E+02  0.37499050079E+02 -0.21628703531E+02  0.69753081040E+02  0.00000000000E+00 0. -1.
         -5    1    3    3    0  503 -0.11114463543E+03 -0.13622873835E+02 -0.30196632293E+03  0.32209387274E+03  0.47000000000E+01 0.  1.
         11    1    4    4    0    0 -0.14206701839E+02 -0.16154460357E+02 -0.22086680700E+03  0.22191201725E+03  0.00000000000E+00 0. -1.
        -12    1    4    4    0    0  0.36482905438E+02 -0.11051418419E+02 -0.55278724848E+02  0.67148147101E+02  0.00000000000E+00 0.  1.
</event>
<event>
12    1  0.8449700E-002  0.1877448E+03  0.7818608E-02  0.1161570E+00
         21   -1    0    0  503  502  0.00000000000E+00  0.00000000000E+00  0.14000171537E+04  0.14000171537E+04  0.00000000000E+00 0.  1.
         21   -1    0    0  501  503 -0.00000000000E+00 -0.00000000000E+00 -0.40872995675E+02  0.40872995675E+02  0.00000000000E+00 0.  1.
          6    2    1    2  501    0 -0.73192993804E+02  0.13216518424E+02  0.22959443443E+03  0.29658340562E+03  0.17238393622E+03 0.  0.
         24    2    3    3    0    0 -0.11622971639E+03  0.13199515200E+02  0.19570051753E+03  0.24160115955E+03  0.79930304399E+02 0.  0.
         -6    2    1    2    0  502  0.73192993804E+02 -0.13216518424E+02  0.11295497236E+04  0.11443067437E+04  0.16740207593E+03 0.  0.
        -24    2    5    5    0    0 -0.72755500415E+01  0.37944275299E+01  0.81867602636E+03  0.82270278783E+03  0.80883308930E+02 0.  0.
          5    1    3    3  501    0  0.43036722586E+02  0.17003224199E-01  0.33893916906E+02  0.54982246073E+02  0.47000000000E+01 0. -1.
        -13    1    4    4    0    0 -0.92388544775E+02  0.37323574349E+02  0.10494052115E+03  0.14471076459E+03  0.00000000000E+00 0.  1.
         14    1    4    4    0    0 -0.23841171615E+02 -0.24124059149E+02  0.90759996375E+02  0.96890394962E+02  0.00000000000E+00 0. -1.
         -5    1    5    5    0  502  0.80468543845E+02 -0.17010945954E+02  0.31087369719E+03  0.32160395588E+03  0.47000000000E+01 0.  1.
         11    1    6    6    0    0 -0.33100613021E+02 -0.13490224818E+02  0.19472840037E+03  0.19798178365E+03  0.00000000000E+00 0. -1.
        -12    1    6    6    0    0  0.25825062980E+02  0.17284652348E+02  0.62394762599E+03  0.62472100418E+03  0.00000000000E+00 0.  1.
</event>
<event>
12    1  0.8449700E-002  0.1902611E+03  0.7818608E-02  0.1158258E+00
         21   -1    0    0  503  502  0.00000000000E+00  0.00000000000E+00  0.82692979158E+03  0.82692979158E+03  0.00000000000E+00 0. -1.
         21   -1    0    0  501  503 -0.00000000000E+00 -0.00000000000E+00 -0.68353747142E+02  0.68353747142E+02  0.00000000000E+00 0.  1.
          6    2    1    2  501    0  0.37325816526E+02 -0.74135737969E+02  0.11077395378E+03  0.22015938604E+03  0.17120152511E+03 0.  0.
         24    2    3    3    0    0 -0.31019004913E+02 -0.84375057778E+02  0.79695023534E+02  0.14423937423E+03  0.79827133616E+02 0.  0.
         -6    2    1    2    0  502 -0.37325816526E+02  0.74135737969E+02  0.64780209066E+03  0.67512415269E+03  0.17104311929E+03 0.  0.
        -24    2    5    5    0    0 -0.69681734048E+02  0.34325584851E+02  0.57738393508E+03  0.58787416515E+03  0.78676780099E+02 0.  0.
          5    1    3    3  501    0  0.68344821439E+02  0.10239319809E+02  0.31078930248E+02  0.75920011809E+02  0.47000000000E+01 0. -1.
        -11    1    4    4    0    0 -0.32572653971E+02 -0.59224958606E+02  0.77798959695E+01  0.68037491796E+02  0.00000000000E+00 0.  1.
         12    1    4    4    0    0  0.15536490584E+01 -0.25150099171E+02  0.71915127565E+02  0.76201882433E+02  0.00000000000E+00 0. -1.
         -5    1    5    5    0  502  0.32355917522E+02  0.39810153118E+02  0.70418155576E+02  0.87249987534E+02  0.47000000000E+01 0.  1.
         11    1    6    6    0    0 -0.63147530193E+02 -0.70285207297E+01  0.42963864092E+03  0.43431137730E+03  0.00000000000E+00 0. -1.
        -12    1    6    6    0    0 -0.65342038552E+01  0.41354105580E+02  0.14774529416E+03  0.15356278786E+03  0.00000000000E+00 0.  1.
</event>
<event>
12    1  0.8449700E-002  0.1756570E+03  0.7818608E-02  0.1172214E+00
         21   -1    0    0  503  502  0.00000000000E+00  0.00000000000E+00  0.87614391236E+02  0.87614391236E+02  0.00000000000E+00 0. -1.
         21   -1    0    0  501  503 -0.00000000000E+00 -0.00000000000E+00 -0.86919250976E+03  0.86919250976E+03  0.00000000000E+00 0. -1.
          6    2    1    2  501    0  0.22388078773E+01 -0.36600090682E+02 -0.76041186401E+03  0.78043679459E+03  0.17178710231E+03 0.  0.
         24    2    3    3    0    0  0.38690558752E+01  0.12046903509E+01 -0.72161900566E+03  0.72604161984E+03  0.79912599310E+02 0.  0.
         -6    2    1    2    0  502 -0.22388078773E+01  0.36600090682E+02 -0.21166254515E+02  0.17637010641E+03  0.17121280678E+03 0.  0.
        -24    2    5    5    0    0 -0.41627079636E+02 -0.26843129308E+02  0.13872573461E+02  0.93748755774E+02  0.78377379165E+02 0.  0.
          5    1    3    3  501    0 -0.16302479979E+01 -0.37804781033E+02 -0.38792858348E+02  0.54395174752E+02  0.47000000000E+01 0. -1.
        -13    1    4    4    0    0 -0.11055399617E+02  0.32116334958E+01 -0.13415415064E+02  0.17677947046E+02  0.00000000000E+00 0.  1.
         14    1    4    4    0    0  0.14924455493E+02 -0.20069431448E+01 -0.70820359060E+03  0.70836367279E+03  0.00000000000E+00 0. -1.
         -5    1    5    5    0  502  0.39388271759E+02  0.63443219989E+02 -0.35038827977E+02  0.82621350635E+02  0.47000000000E+01 0.  1.
         13    1    6    6    0    0 -0.65038833623E+02 -0.22128876961E+02  0.80736790766E+01  0.69173126057E+02  0.00000000000E+00 0. -1.
        -14    1    6    6    0    0  0.23411753987E+02 -0.47142523468E+01  0.57988943847E+01  0.24575629718E+02  0.00000000000E+00 0.  1.
</event>
<event>
12    1  0.8449700E-002  0.1894071E+03  0.7818608E-02  0.1159117E+00
         21   -1    0    0  503  502  0.00000000000E+00  0.00000000000E+00  0.24044543780E+02  0.24044543780E+02  0.00000000000E+00 0.  1.
         21   -1    0    0  501  503 -0.00000000000E+00 -0.00000000000E+00 -0.18260483324E+04  0.18260483324E+04  0.00000000000E+00 0. -1.
          6    2    1    2  501    0 -0.77343235542E+02  0.15380389583E+02 -0.12980624600E+04  0.13117324955E+04  0.17163174908E+03 0.  0.
         24    2    3    3    0    0 -0.66032297963E+02 -0.25757857120E+02 -0.44948135718E+03  0.46206651956E+03  0.80300974272E+02 0.  0.
         -6    2    1    2    0  502  0.77343235542E+02 -0.15380389583E+02 -0.50394132865E+03  0.53836038068E+03  0.17221063933E+03 0.  0.
        -24    2    5    5    0    0  0.32381476051E+02  0.29465004033E+02 -0.43583432231E+03  0.44512238704E+03  0.79155773577E+02 0.  0.
          5    1    3    3  501    0 -0.11310937579E+02  0.41138246703E+02 -0.84858110280E+03  0.84966597595E+03  0.47000000000E+01 0. -1.
        -11    1    4    4    0    0 -0.38572845844E+02 -0.33890316225E+02 -0.11015856962E+03  0.12153735406E+03  0.00000000000E+00 0.  1.
         12    1    4    4    0    0 -0.27459452119E+02  0.81324591048E+01 -0.33932278756E+03  0.34052916550E+03  0.00000000000E+00 0. -1.
         -5    1    5    5    0  502  0.44961759492E+02 -0.44845393615E+02 -0.68107006339E+02  0.93237993638E+02  0.47000000000E+01 0.  1.
         13    1    6    6    0    0 -0.22733448567E+02 -0.68361410206E+01 -0.14173987653E+03  0.14371407414E+03  0.00000000000E+00 0. -1.
        -14    1    6    6    0    0  0.55114924617E+02  0.36301145053E+02 -0.29409444578E+03  0.30140831290E+03  0.00000000000E+00 0.  1.
</event>
<event>
12    1  0.8449700E-002  0.1892806E+03  0.7818608E-02  0.1159575E+00
         21   -1    0    0  501  502  0.00000000000E+00  0.00000000000E+00  0.36216121966E+03  0.36216121966E+03  0.00000000000E+00 0. -1.
         21   -1    0    0  502  503 -0.00000000000E+00 -0.00000000000E+00 -0.12058368051E+03  0.12058368051E+03  0.00000000000E+00 0. -1.
         -6    2    1    2    0  503 -0.60975051810E+02 -0.45446060095E+02  0.15497775193E+02  0.18789032319E+03  0.17111192591E+03 0.  0.
        -24    2    3    3    0    0 -0.15361877342E+02 -0.19714509873E+02 -0.54204852869E+02  0.10057926592E+03  0.80952909051E+02 0.  0.
          6    2    1    2  501    0  0.60975051810E+02  0.45446060095E+02  0.22607976396E+03  0.29485457699E+03  0.17333164909E+03 0.  0.
         24    2    5    5    0    0  0.24003921583E+02  0.54742112527E+02  0.45040834376E+02  0.10978576523E+03  0.80320298497E+02 0.  0.
          5    1    5    5  501    0  0.36971130227E+02 -0.92960524314E+01  0.18103892958E+03  0.18506881176E+03  0.47000000000E+01 0. -1.
        -13    1    6    6    0    0 -0.26106612771E+02  0.80128287380E+01 -0.84626433510E+00  0.27321727949E+02  0.00000000000E+00 0.  1.
         14    1    6    6    0    0  0.50110534354E+02  0.46729283789E+02  0.45887098711E+02  0.82464037281E+02  0.00000000000E+00 0. -1.
         -5    1    3    3    0  503 -0.45613174468E+02 -0.25731550223E+02  0.69702628062E+02  0.87311057264E+02  0.47000000000E+01 0.  1.
         13    1    4    4    0    0 -0.44874305831E+02 -0.98093139704E+01 -0.10836766448E+02  0.47194930570E+02  0.00000000000E+00 0. -1.
        -14    1    4    4    0    0  0.29512428489E+02 -0.99051959022E+01 -0.43368086420E+02  0.53384335352E+02  0.00000000000E+00 0.  1.
</event>
<event>
12    1  0.8449700E-002  0.2194917E+03  0.7818608E-02  0.1134302E+00
         21   -1    0    0  501  502  0.00000000000E+00  0.00000000000E+00  0.21520128059E+03  0.21520128059E+03  0.00000000000E+00 0. -1.
         21   -1    0    0  502  503 -0.00000000000E+00 -0.00000000000E+00 -0.69569725657E+03  0.69569725657E+03  0.00000000000E+00 0. -1.
         -6    2    1    2    0  503 -0.13542798750E+03 -0.14156313566E+02 -0.61544984529E+03  0.65341803551E+03  0.17214957465E+03 0.  0.
        -24    2    3    3    0    0 -0.57151169008E+02 -0.71436934070E+02 -0.29124115644E+03  0.31497794669E+03  0.77589973743E+02 0.  0.
          6    2    1    2  501    0  0.13542798750E+03  0.14156313566E+02  0.13495386931E+03  0.25748050164E+03  0.17187937884E+03 0.  0.
         24    2    5    5    0    0  0.78045843954E+02 -0.23296811257E+02  0.14905039505E+03  0.18736453345E+03  0.79092053707E+02 0.  0.
          5    1    5    5  501    0  0.57382143548E+02  0.37453124823E+02 -0.14096525733E+02  0.70115968188E+02  0.47000000000E+01 0. -1.
        -11    1    6    6    0    0 -0.83135546264E+01  0.16471910800E+02  0.24840085663E+02  0.30942994226E+02  0.00000000000E+00 0.  1.
         12    1    6    6    0    0  0.86359398580E+02 -0.39768722057E+02  0.12421030938E+03  0.15642153923E+03  0.00000000000E+00 0. -1.
         -5    1    3    3    0  503 -0.78276818493E+02  0.57280620505E+02 -0.32420868885E+03  0.33844008883E+03  0.47000000000E+01 0.  1.
         13    1    4    4    0    0 -0.55707430567E+02 -0.55700220781E+02 -0.12344577519E+03  0.14644006223E+03  0.00000000000E+00 0. -1.
        -14    1    4    4    0    0 -0.14437384416E+01 -0.15736713290E+02 -0.16779538125E+03  0.16853788445E+03  0.00000000000E+00 0.  1.
</event>
<event>
12    1  0.8449700E-002  0.1744821E+03  0.7818608E-02  0.1173712E+00
         21   -1    0    0  503  502  0.00000000000E+00  0.00000000000E+00  0.49881776341E+03  0.49881776341E+03  0.00000000000E+00 0. -1.
         21   -1    0    0  501  503 -0.00000000000E+00 -0.00000000000E+00 -0.11519690440E+03  0.11519690440E+03  0.00000000000E+00 0. -1.
          6    2    1    2  501    0  0.22112858600E+02  0.14934559744E+02 -0.19405181464E+02  0.17555783821E+03  0.17242962013E+03 0.  0.
         24    2    3    3    0    0 -0.36815638333E+02  0.72999950547E+01 -0.55659351031E+02  0.10579173512E+03  0.81763357990E+02 0.  0.
         -6    2    1    2    0  502 -0.22112858600E+02 -0.14934559744E+02  0.40302604048E+03  0.43845682960E+03  0.17059420426E+03 0.  0.
        -24    2    5    5    0    0  0.34031673318E+02  0.35336680267E+01  0.34475014638E+03  0.35532167618E+03  0.78931543339E+02 0.  0.
          5    1    3    3  501    0  0.58928496934E+02  0.76345646893E+01  0.36254169567E+02  0.69766103086E+02  0.47000000000E+01 0. -1.
        -13    1    4    4    0    0  0.20107467657E+01  0.33058724870E+02 -0.48382903952E+02  0.58632992312E+02  0.00000000000E+00 0.  1.
         14    1    4    4    0    0 -0.38826385099E+02 -0.25758729816E+02 -0.72764470791E+01  0.47158742813E+02  0.00000000000E+00 0. -1.
         -5    1    5    5    0  502 -0.56144531918E+02 -0.18468227771E+02  0.58275894099E+02  0.83135153421E+02  0.47000000000E+01 0.  1.
         13    1    6    6    0    0 -0.10744545769E+01  0.29950970933E+02  0.58610071299E+02  0.65828227761E+02  0.00000000000E+00 0. -1.
        -14    1    6    6    0    0  0.35106127894E+02 -0.26417302906E+02  0.28614007508E+03  0.28949344842E+03  0.00000000000E+00 0.  1.
</event>
<event>
12    1  0.8449700E-002  0.2600046E+03  0.7818608E-02  0.1107716E+00
         21   -1    0    0  501  502  0.00000000000E+00  0.00000000000E+00  0.10861123989E+03  0.10861123989E+03  0.00000000000E+00 0.  1.
         21   -1    0    0  502  503 -0.00000000000E+00 -0.00000000000E+00 -0.72579328084E+03  0.72579328084E+03  0.00000000000E+00 0. -1.
         -6    2    1    2    0  503  0.12375682640E+03  0.15393510743E+03 -0.47471723772E+03  0.54125672064E+03  0.16908758815E+03 0.  0.
        -24    2    3    3    0    0  0.48408029045E+02  0.14998991634E+03 -0.36739059889E+03  0.40997799732E+03  0.90916411327E+02 0.  0.
          6    2    1    2  501    0 -0.12375682640E+03 -0.15393510743E+03 -0.14246480323E+03  0.29314780009E+03  0.16317978784E+03 0.  0.
         24    2    5    5    0    0 -0.15327798715E+03 -0.12393779422E+03 -0.13232128948E+03  0.24960105965E+03  0.77052236460E+02 0.  0.
          5    1    5    5  501    0  0.29521160758E+02 -0.29997313208E+02 -0.10143513750E+02  0.43546740445E+02  0.47000000000E+01 0. -1.
        -13    1    6    6    0    0 -0.26648238552E+02 -0.54155058069E+02 -0.69242695457E+02  0.91855592135E+02  0.00000000000E+00 0.  1.
         14    1    6    6    0    0 -0.12662974860E+03 -0.69782736155E+02 -0.63078594027E+02  0.15774546751E+03  0.00000000000E+00 0. -1.
         -5    1    3    3    0  503  0.75348797352E+02  0.39451910932E+01 -0.10732663883E+03  0.13127872332E+03  0.47000000000E+01 0.  1.
         11    1    4    4    0    0  0.27942928371E+02  0.21174500600E+02 -0.16867770473E+03  0.17228271763E+03  0.00000000000E+00 0. -1.
        -12    1    4    4    0    0  0.20465100674E+02  0.12881541574E+03 -0.19871289417E+03  0.23769527969E+03  0.00000000000E+00 0.  1.
</event>
<event>
12    1  0.8449700E-002  0.2002611E+03  0.7818608E-02  0.1150454E+00
         21   -1    0    0  501  502  0.00000000000E+00  0.00000000000E+00  0.40945507207E+03  0.40945507207E+03  0.00000000000E+00 0. -1.
         21   -1    0    0  502  503 -0.00000000000E+00 -0.00000000000E+00 -0.11102584852E+03  0.11102584852E+03  0.00000000000E+00 0. -1.
         -6    2    1    2    0  503  0.37125142606E+01  0.10007106641E+03  0.51456268484E+02  0.20251841540E+03  0.16833882474E+03 0.  0.
        -24    2    3    3    0    0  0.60107706724E+02  0.50349813634E+02  0.63584304978E+01  0.11472020527E+03  0.83500034242E+02 0.  0.
          6    2    1    2  501    0 -0.37125142606E+01 -0.10007106641E+03  0.24697295506E+03  0.31796250520E+03  0.17342581436E+03 0.  0.
         24    2    5    5    0    0 -0.36175151262E+02 -0.26296393639E+02  0.20568821198E+03  0.22728149751E+03  0.85726872554E+02 0.  0.
          5    1    5    5  501    0  0.32462637001E+02 -0.73774672769E+02  0.41284743085E+02  0.90681007685E+02  0.47000000000E+01 0. -1.
        -13    1    6    6    0    0  0.23469701231E+02 -0.20149434202E+02  0.11079261145E+03  0.11502968889E+03  0.00000000000E+00 0.  1.
         14    1    6    6    0    0 -0.59644852493E+02 -0.61469594366E+01  0.94895600526E+02  0.11225180862E+03  0.00000000000E+00 0. -1.
         -5    1    3    3    0  503 -0.56395192464E+02  0.49721252774E+02  0.45097837987E+02  0.87798210127E+02  0.47000000000E+01 0.  1.
         13    1    4    4    0    0  0.43071129277E+02 -0.10619488142E+02 -0.16622705955E+02  0.47373094251E+02  0.00000000000E+00 0. -1.
        -14    1    4    4    0    0  0.17036577447E+02  0.60969301776E+02  0.22981136452E+02  0.67347111021E+02  0.00000000000E+00 0.  1.
</event>
<event>
12    1  0.8449700E-002  0.2095410E+03  0.7818608E-02  0.1142514E+00
         21   -1    0    0  503  502  0.00000000000E+00  0.00000000000E+00  0.31418113448E+03  0.31418113448E+03  0.00000000000E+00 0.  1.
         21   -1    0    0  501  503 -0.00000000000E+00 -0.00000000000E+00 -0.16854138487E+03  0.16854138487E+03  0.00000000000E+00 0. -1.
          6    2    1    2  501    0 -0.85434200540E+02 -0.78839702195E+02 -0.29821851795E+02  0.21165245465E+03  0.17433507234E+03 0.  0.
         24    2    3    3    0    0  0.24611278201E+02 -0.44757368646E+01 -0.14104630733E+02  0.77827465318E+02  0.72335513508E+02 0.  0.
         -6    2    1    2    0  502  0.85434200540E+02  0.78839702195E+02  0.17546160141E+03  0.27107006470E+03  0.17081424163E+03 0.  0.
        -24    2    5    5    0    0 -0.18027393122E+02  0.39695079063E+02  0.11159517036E+03  0.14325138884E+03  0.78528925583E+02 0.  0.
          5    1    3    3  501    0 -0.11004547874E+03 -0.74363965330E+02 -0.15717221062E+02  0.13382498933E+03  0.47000000000E+01 0. -1.
        -11    1    4    4    0    0 -0.25576436062E+02  0.30752929260E+01 -0.56990376408E+01  0.26383527783E+02  0.00000000000E+00 0.  1.
         12    1    4    4    0    0  0.50187714263E+02 -0.75510297906E+01 -0.84055930918E+01  0.51443937535E+02  0.00000000000E+00 0. -1.
         -5    1    5    5    0  502  0.10346159366E+03  0.39144623131E+02  0.63866431049E+02  0.12781867586E+03  0.47000000000E+01 0.  1.
         13    1    6    6    0    0 -0.44857423413E+02  0.45175574658E+01  0.48821897450E+02  0.66454303332E+02  0.00000000000E+00 0. -1.
        -14    1    6    6    0    0  0.26830030291E+02  0.35177521597E+02  0.62773272908E+02  0.76797085509E+02  0.00000000000E+00 0.  1.
</event>
<event>
12    1  0.8449700E-002  0.2040156E+03  0.7818608E-02  0.1147536E+00
         21   -1    0    0  503  502  0.00000000000E+00  0.00000000000E+00  0.39557537166E+03  0.39557537166E+03  0.00000000000E+00 0. -1.
         21   -1    0    0  501  503 -0.00000000000E+00 -0.00000000000E+00 -0.10354002018E+03  0.10354002018E+03  0.00000000000E+00 0.  1.
          6    2    1    2  501    0  0.15184185354E+02 -0.94045276917E+02  0.12198444734E+03  0.23770271382E+03  0.18040870591E+03 0.  0.
         24    2    3    3    0    0  0.56451945915E+02 -0.45663526363E+02  0.91701650706E+01  0.10811500556E+03  0.79578782741E+02 0.  0.
         -6    2    1    2    0  502 -0.15184185354E+02  0.94045276917E+02  0.17005090414E+03  0.26141267802E+03  0.17419588008E+03 0.  0.
        -24    2    5    5    0    0 -0.48016237376E+02  0.71962319603E+02  0.18413954932E+03  0.21914944853E+03  0.81455341592E+02 0.  0.
          5    1    3    3  501    0 -0.41267760561E+02 -0.48381750554E+02  0.11281428226E+03  0.12958770826E+03  0.47000000000E+01 0. -1.
        -13    1    4    4    0    0 -0.72754442368E+01 -0.25335915778E+02 -0.21984883093E+02  0.34324565572E+02  0.00000000000E+00 0.  1.
         14    1    4    4    0    0  0.63727390152E+02 -0.20327610586E+02  0.31155048163E+02  0.73790439989E+02  0.00000000000E+00 0. -1.
         -5    1    5    5    0  502  0.32832052021E+02  0.22082957314E+02 -0.14088645186E+02  0.42263229489E+02  0.47000000000E+01 0.  1.
         13    1    6    6    0    0 -0.94221125176E+01 -0.14758548658E+02  0.84151311274E+01  0.19426924478E+02  0.00000000000E+00 0. -1.
        -14    1    6    6    0    0 -0.38594124858E+02  0.86720868261E+02  0.17572441819E+03  0.19972252406E+03  0.00000000000E+00 0.  1.
</event>
<event>
12    1  0.8449700E-002  0.3649348E+03  0.7818608E-02  0.1057017E+00
         21   -1    0    0  503  502  0.00000000000E+00  0.00000000000E+00  0.15703272824E+03  0.15703272824E+03  0.00000000000E+00 0. -1.
         21   -1    0    0  501  503 -0.00000000000E+00 -0.00000000000E+00 -0.10463298086E+04  0.10463298086E+04  0.00000000000E+00 0.  1.
          6    2    1    2  501    0 -0.20115210638E+03  0.24624261735E+03 -0.71041285510E+03  0.79694286283E+03  0.17127143789E+03 0.  0.
         24    2    3    3    0    0 -0.86182228035E+02  0.14926643519E+03 -0.52501764440E+03  0.55816278205E+03  0.78703997520E+02 0.  0.
         -6    2    1    2    0  502  0.20115210638E+03 -0.24624261735E+03 -0.17888422527E+03  0.40641967400E+03  0.17910831602E+03 0.  0.
        -24    2    5    5    0    0  0.77078081530E+02 -0.46681887575E+02 -0.10943500694E+03  0.16133982490E+03  0.77034336981E+02 0.  0.
          5    1    3    3  501    0 -0.11496987834E+03  0.96976182158E+02 -0.18539521070E+03  0.23878008079E+03  0.47000000000E+01 0. -1.
        -11    1    4    4    0    0 -0.54242579067E+02  0.11492581824E+03 -0.26435855137E+03  0.29331833349E+03  0.00000000000E+00 0.  1.
         12    1    4    4    0    0 -0.31939648968E+02  0.34340616953E+02 -0.26065909304E+03  0.26484444856E+03  0.00000000000E+00 0. -1.
         -5    1    5    5    0  502  0.12407402485E+03 -0.19956072977E+03 -0.69449218321E+02  0.24507984910E+03  0.47000000000E+01 0.  1.
         13    1    6    6    0    0  0.67554746593E+02 -0.62015115229E+02 -0.11008674142E+03  0.14327808256E+03  0.00000000000E+00 0. -1.
        -14    1    6    6    0    0  0.95233349378E+01  0.15333227653E+02  0.65173448068E+00  0.18061742342E+02  0.00000000000E+00 0.  1.
</event>
<event>
12    1  0.8449700E-002  0.1873716E+03  0.7818608E-02  0.1160879E+00
         21   -1    0    0  501  502  0.00000000000E+00  0.00000000000E+00  0.27575650823E+03  0.27575650823E+03  0.00000000000E+00 0.  1.
         21   -1    0    0  502  503 -0.00000000000E+00 -0.00000000000E+00 -0.13557909542E+03  0.13557909542E+03  0.00000000000E+00 0.  1.
         -6    2    1    2    0  503 -0.11892822028E+02  0.69368579941E+02  0.19066589740E+02  0.18823035551E+03  0.17353297321E+03 0.  0.
        -24    2    3    3    0    0  0.24042207880E+02 -0.10307032327E+02  0.45539313117E+02  0.96784061717E+02  0.81296143132E+02 0.  0.
          6    2    1    2  501    0  0.11892822028E+02 -0.69368579941E+02  0.12111082307E+03  0.22310524815E+03  0.17365103278E+03 0.  0.
         24    2    5    5    0    0 -0.51209781207E+02 -0.27523867244E+01  0.57503841121E+02  0.11135734487E+03  0.80397445163E+02 0.  0.
          5    1    5    5  501    0  0.63102603235E+02 -0.66616193216E+02  0.63606981951E+02  0.11174790328E+03  0.47000000000E+01 0. -1.
        -13    1    6    6    0    0  0.45551220465E+01 -0.20264290066E+02 -0.91582511995E+01  0.22699430693E+02  0.00000000000E+00 0.  1.
         14    1    6    6    0    0 -0.55764903254E+02  0.17511903342E+02  0.66662092321E+02  0.88657914177E+02  0.00000000000E+00 0. -1.
         -5    1    3    3    0  503 -0.35935029908E+02  0.79675612268E+02 -0.26472723377E+02  0.91446293789E+02  0.47000000000E+01 0.  1.
         13    1    4    4    0    0 -0.27280521625E+02  0.11323626580E+01  0.32806462005E+02  0.42682233477E+02  0.00000000000E+00 0. -1.
        -14    1    4    4    0    0  0.51322729505E+02 -0.11439394985E+02  0.12732851112E+02  0.54101828240E+02  0.00000000000E+00 0.  1.
</event>
<event>
12    1  0.8449700E-002  0.1822885E+03  0.7818608E-02  0.1166314E+00
         21   -1    0    0  503  502  0.00000000000E+00  0.00000000000E+00  0.17213592909E+03  0.17213592909E+03  0.00000000000E+00 0.  1.
         21   -1    0    0  501  503 -0.00000000000E+00 -0.00000000000E+00 -0.52275913542E+03  0.52275913542E+03  0.00000000000E+00 0.  1.
          6    2    1    2  501    0  0.13374576245E+02 -0.53321722241E+02 -0.45306359070E+03  0.48836023379E+03  0.17380165527E+03 0.  0.
         24    2    3    3    0    0  0.38195866301E+02 -0.29905829088E+02 -0.11454526107E+03  0.14809394103E+03  0.80361158034E+02 0.  0.
         -6    2    1    2    0  502 -0.13374576245E+02  0.53321722241E+02  0.10244038437E+03  0.20653483072E+03  0.17070594189E+03 0.  0.
        -24    2    5    5    0    0 -0.17650011733E+02  0.77914642474E+02  0.13942753528E+02  0.11446414190E+03  0.80780102622E+02 0.  0.
          5    1    3    3  501    0 -0.24821290056E+02 -0.23415893153E+02 -0.33851832963E+03  0.34026629276E+03  0.47000000000E+01 0. -1.
        -13    1    4    4    0    0  0.51562445818E+02 -0.36470835428E+02 -0.11704146975E+03  0.13299441078E+03  0.00000000000E+00 0.  1.
         14    1    4    4    0    0 -0.13366579517E+02  0.65650063396E+01  0.24962086799E+01  0.15099530258E+02  0.00000000000E+00 0. -1.
         -5    1    5    5    0  502  0.42754354878E+01 -0.24592920233E+02  0.88497630840E+02  0.92070688813E+02  0.47000000000E+01 0.  1.
         11    1    6    6    0    0  0.15017261462E+02  0.72254599721E+02 -0.87090680497E+01  0.74310787837E+02  0.00000000000E+00 0. -1.
        -12    1    6    6    0    0 -0.32667273195E+02  0.56600427528E+01  0.22651821578E+02  0.40153354066E+02  0.00000000000E+00 0.  1.
</event>
<event>
12    1  0.8449700E-002  0.1755616E+03  0.7818608E-02  0.1172790E+00
         21   -1    0    0  503  502  0.00000000000E+00  0.00000000000E+00  0.48498291865E+03  0.48498291865E+03  0.00000000000E+00 0.  1.
         21   -1    0    0  501  503 -0.00000000000E+00 -0.00000000000E+00 -0.10143720194E+03  0.10143720194E+03  0.00000000000E+00 0.  1.
          6    2    1    2  501    0 -0.20243307753E+02  0.22038776248E+02  0.11333653949E+02  0.17592705063E+03  0.17299241678E+03 0.  0.
         24    2    3    3    0    0 -0.23583486448E+02  0.55855029039E+02 -0.42715338287E+02  0.11191080809E+03  0.83806108019E+02 0.  0.
         -6    2    1    2    0  502  0.20243307753E+02 -0.22038776248E+02  0.37221206276E+03  0.41049306996E+03  0.17049117765E+03 0.  0.
        -24    2    5    5    0    0 -0.24805937842E+01  0.46925177601E+02  0.27206788886E+03  0.28670555768E+03  0.77272343158E+02 0.  0.
          5    1    3    3  501    0  0.33401786956E+01 -0.33816252791E+02  0.54048992235E+02  0.64016242534E+02  0.47000000000E+01 0. -1.
        -13    1    4    4    0    0 -0.16484440968E+02  0.22195877665E+02  0.24153735492E+02  0.36712351022E+02  0.00000000000E+00 0.  1.
         14    1    4    4    0    0 -0.70990454800E+01  0.33659151374E+02 -0.66869073779E+02  0.75198457072E+02  0.00000000000E+00 0. -1.
         -5    1    5    5    0  502  0.22723901537E+02 -0.68963953848E+02  0.10014417390E+03  0.12378751228E+03  0.47000000000E+01 0.  1.
         13    1    6    6    0    0  0.14348449914E+02  0.53643234947E+02  0.25760232680E+03  0.26351932271E+03  0.00000000000E+00 0. -1.
        -14    1    6    6    0    0 -0.16829043698E+02 -0.67180573463E+01  0.14465562067E+02  0.23186234972E+02  0.00000000000E+00 0.  1.
</event>
<event>
12    1  0.8449700E-002  0.1996915E+03  0.7818608E-02  0.1150329E+00
         21   -1    0    0  503  502  0.00000000000E+00  0.00000000000E+00  0.95692063965E+02  0.95692063965E+02  0.00000000000E+00 0.  1.
         21   -1    0    0  501  503 -0.00000000000E+00 -0.00000000000E+00 -0.42032926240E+03  0.42032926240E+03  0.00000000000E+00 0. -1.
          6    2    1    2  501    0 -0.39657399318E+02  0.95727205499E+02 -0.13001583520E+03  0.23828728854E+03  0.17070532295E+03 0.  0.
         24    2    3    3    0    0 -0.12456880838E+02  0.37554055912E+02 -0.14641104983E+03  0.17184275075E+03  0.80797614316E+02 0.  0.
         -6    2    1    2    0  502  0.39657399318E+02 -0.95727205499E+02 -0.19462136324E+03  0.27773403783E+03  0.16888550425E+03 0.  0.
        -24    2    5    5    0    0  0.54569081390E+02 -0.90322497703E+01 -0.14434896248E+03  0.17630535407E+03  0.84779648061E+02 0.  0.
          5    1    3    3  501    0 -0.27200518480E+02  0.58173149586E+02  0.16395214630E+02  0.66444537783E+02  0.47000000000E+01 0. -1.
        -11    1    4    4    0    0  0.32787189731E+01  0.63876522652E+01  0.95914444715E+01  0.11981147967E+02  0.00000000000E+00 0.  1.
         12    1    4    4    0    0 -0.15735599811E+02  0.31166403647E+02 -0.15600249430E+03  0.15986160279E+03  0.00000000000E+00 0. -1.
         -5    1    5    5    0  502 -0.14911682071E+02 -0.86694955728E+02 -0.50272400758E+02  0.10142868376E+03  0.47000000000E+01 0.  1.
         11    1    6    6    0    0  0.75218532667E+02 -0.19995774398E+02 -0.11234675577E+03  0.13667279240E+03  0.00000000000E+00 0. -1.
        -12    1    6    6    0    0 -0.20649451277E+02  0.10963524627E+02 -0.32002206710E+02  0.39632561671E+02  0.00000000000E+00 0.  1.
</event>
<event>
12    1  0.8449700E-002  0.2557329E+03  0.7818608E-02  0.1109755E+00
         21   -1    0    0  501  502  0.00000000000E+00  0.00000000000E+00  0.19976327674E+03  0.19976327674E+03  0.00000000000E+00 0.  1.
         21   -1    0    0  502  503 -0.00000000000E+00 -0.00000000000E+00 -0.52894230667E+03  0.52894230667E+03  0.00000000000E+00 0. -1.
         -6    2    1    2    0  503  0.47239746324E+02  0.18274880509E+03 -0.38962575112E+03  0.46605531098E+03  0.17254161111E+03 0.  0.
        -24    2    3    3    0    0  0.67454604335E+02  0.20119118341E+03 -0.36174400403E+03  0.42670758394E+03  0.78693213220E+02 0.  0.
          6    2    1    2  501    0 -0.47239746324E+02 -0.18274880509E+03  0.60446721194E+02  0.26265027243E+03  0.17234453896E+03 0.  0.
         24    2    5    5    0    0 -0.90239483714E+02 -0.12042610636E+03  0.74774773780E+02  0.18544613211E+03  0.78443544062E+02 0.  0.
          5    1    5    5  501    0  0.42999737391E+02 -0.62322698726E+02 -0.14328052586E+02  0.77204140324E+02  0.47000000000E+01 0. -1.
        -13    1    6    6    0    0 -0.11816160258E+02 -0.80413501227E+02  0.42134827754E+02  0.91549421258E+02  0.00000000000E+00 0.  1.
         14    1    6    6    0    0 -0.78423323456E+02 -0.40012605134E+02  0.32639946026E+02  0.93896710848E+02  0.00000000000E+00 0. -1.
         -5    1    3    3    0  503 -0.20214858011E+02 -0.18442378327E+02 -0.27881747090E+02  0.39347727044E+02  0.47000000000E+01 0.  1.
         13    1    4    4    0    0  0.65079967975E+02  0.71873851590E+02 -0.15214990798E+03  0.18041853362E+03  0.00000000000E+00 0. -1.
        -14    1    4    4    0    0  0.23746363593E+01  0.12931733182E+03 -0.20959409605E+03  0.24628905032E+03  0.00000000000E+00 0.  1.
</event>
<event>
12    1  0.8449700E-002  0.2098114E+03  0.7818608E-02  0.1141924E+00
         21   -1    0    0  501  502  0.00000000000E+00  0.00000000000E+00  0.20347810079E+03  0.20347810079E+03  0.00000000000E+00 0.  1.
         21   -1    0    0  502  503 -0.00000000000E+00 -0.00000000000E+00 -0.22027265595E+03  0.22027265595E+03  0.00000000000E+00 0. -1.
         -6    2    1    2    0  503 -0.11111300600E+03 -0.43469688822E+02 -0.40377450593E+02  0.21366129976E+03  0.17258359873E+03 0.  0.
        -24    2    3    3    0    0 -0.29516233686E+02 -0.77272555550E+02  0.45144015456E+01  0.11447442846E+03  0.79004804013E+02 0.  0.
          6    2    1    2  501    0  0.11111300600E+03  0.43469688822E+02  0.23582895431E+02  0.21008945697E+03  0.17130590482E+03 0.  0.
         24    2    5    5    0    0  0.27826448830E+02 -0.37850939072E+02 -0.16029807115E+01  0.90900055248E+02  0.77802606986E+02 0.  0.
          5    1    5    5  501    0  0.83286557167E+02  0.81320627894E+02  0.25185876143E+02  0.11918940172E+03  0.47000000000E+01 0. -1.
        -11    1    6    6    0    0  0.37287523103E+00 -0.15941399740E+02  0.36042975197E+02  0.39412730465E+02  0.00000000000E+00 0.  1.
         12    1    6    6    0    0  0.27453573599E+02 -0.21909539332E+02 -0.37645955909E+02  0.51487324784E+02  0.00000000000E+00 0. -1.
         -5    1    3    3    0  503 -0.81596772311E+02  0.33802866728E+02 -0.44891852138E+02  0.99186871303E+02  0.47000000000E+01 0.  1.
         13    1    4    4    0    0  0.13976097391E+02 -0.45252127354E+02 -0.24331291189E+02  0.53245638875E+02  0.00000000000E+00 0. -1.
        -14    1    4    4    0    0 -0.43492331077E+02 -0.32020428196E+02  0.28845692735E+02  0.61228789582E+02  0.00000000000E+00 0.  1.
</event>
<event>
12    1  0.8449700E-002  0.1721007E+03  0.7818608E-02  0.1175744E+00
         21   -1    0    0  501  502  0.00000000000E+00  0.00000000000E+00  0.40518144885E+02  0.40518144885E+02  0.00000000000E+00 0.  1.
         21   -1    0    0  502  503 -0.00000000000E+00 -0.00000000000E+00 -0.78702277812E+03  0.78702277812E+03  0.00000000000E+00 0.  1.
         -6    2    1    2    0  503 -0.60179350496E+01 -0.93227237011E+01 -0.48449771076E+03  0.51406641039E+03  0.17147336191E+03 0.  0.
        -24    2    3    3    0    0 -0.64618133112E+00  0.29377656451E+02 -0.45884983852E+03  0.46709324239E+03  0.82276719227E+02 0.  0.
          6    2    1    2  501    0  0.60179350496E+01  0.93227237011E+01 -0.26200692247E+03  0.31347451261E+03  0.17174258037E+03 0.  0.
         24    2    5    5    0    0 -0.37527738310E+02  0.52218519032E+02 -0.14556653104E+03  0.18188146689E+03  0.88068996620E+02 0.  0.
          5    1    5    5  501    0  0.43545673359E+02 -0.42895795331E+02 -0.11644039143E+03  0.13159304572E+03  0.47000000000E+01 0. -1.
        -11    1    6    6    0    0 -0.53415019942E+02  0.39877270201E+01 -0.48149618121E+02  0.72023968562E+02  0.00000000000E+00 0.  1.
         12    1    6    6    0    0  0.15887281632E+02  0.48230792012E+02 -0.97416912918E+02  0.10985749833E+03  0.00000000000E+00 0. -1.
         -5    1    3    3    0  503 -0.53717537185E+01 -0.38700380152E+02 -0.25647872239E+02  0.46973168004E+02  0.47000000000E+01 0.  1.
         11    1    4    4    0    0  0.93748682393E+01  0.29920029146E+02 -0.56489271972E+02  0.64607539394E+02  0.00000000000E+00 0. -1.
        -12    1    4    4    0    0 -0.10021049570E+02 -0.54237269506E+00 -0.40236056655E+03  0.40248570300E+03  0.00000000000E+00 0.  1.
</event>
<event>
12    1  0.8449700E-002  0.1826646E+03  0.7818608E-02  0.1165327E+00
         21   -1    0    0  501  502  0.00000000000E+00  0.00000000000E+00  0.46733096073E+03  0.46733096073E+03  0.00000000000E+00 0.  1.
         21   -1    0    0  502  503 -0.00000000000E+00 -0.00000000000E+00 -0.97035183032E+02  0.97035183032E+02  0.00000000000E+00 0.  1.
         -6    2    1    2    0  503  0.26910840660E+02 -0.56043455421E+02  0.39861193893E+02  0.18696328259E+03  0.17175940154E+03 0.  0.
        -24    2    3    3    0    0  0.44096271292E+02 -0.39866774376E+02  0.87839338052E+02  0.13328818266E+03  0.80722670214E+02 0.  0.
          6    2    1    2  501    0 -0.26910840660E+02  0.56043455421E+02  0.33043458380E+03  0.37740286117E+03  0.17140841055E+03 0.  0.
         24    2    5    5    0    0 -0.29276984551E+02  0.29312595762E+02  0.67803056125E+02  0.11336205594E+03  0.80853764370E+02 0.  0.
          5    1    5    5  501    0  0.23661438916E+01  0.26730859659E+02  0.26263152768E+03  0.26404080523E+03  0.47000000000E+01 0. -1.
        -13    1    6    6    0    0 -0.17919000299E+02  0.57197205157E+02  0.52034420888E+02  0.79373747590E+02  0.00000000000E+00 0.  1.
         14    1    6    6    0    0 -0.11357984253E+02 -0.27884609394E+02  0.15768635237E+02  0.33988308351E+02  0.00000000000E+00 0. -1.
         -5    1    3    3    0  503 -0.17185430633E+02 -0.16176681045E+02 -0.47978144158E+02  0.53675099930E+02  0.47000000000E+01 0.  1.
         13    1    4    4    0    0 -0.37859616198E+01  0.17391294431E+02  0.42200802903E+02  0.45800637474E+02  0.00000000000E+00 0. -1.
        -14    1    4    4    0    0  0.47882232912E+02 -0.57258068807E+02  0.45638535149E+02  0.87487545186E+02  0.00000000000E+00 0.  1.
</event>
<event>
12    1  0.8449700E-002  0.4081583E+03  0.7818608E-02  0.1041068E+00
         21   -1    0    0  503  502  0.00000000000E+00  0.00000000000E+00  0.26102854158E+03  0.26102854158E+03  0.00000000000E+00 0. -1.
         21   -1    0    0  501  503 -0.00000000000E+00 -0.00000000000E+00 -0.63696001297E+03  0.63696001297E+03  0.00000000000E+00 0.  1.
          6    2    1    2  501    0 -0.24812934683E+03  0.27449633069E+03 -0.18051500480E+03  0.44546145740E+03  0.17009948486E+03 0.  0.
         24    2    3    3    0    0 -0.39855460264E+02  0.85088329588E+02 -0.80613671626E+02  0.14670441719E+03  0.78709214355E+02 0.  0.
         -6    2    1    2    0  502  0.24812934683E+03 -0.27449633069E+03 -0.19541646659E+03  0.45252709715E+03  0.17226946891E+03 0.  0.
        -24    2    5    5    0    0  0.85496581921E+02 -0.52177487130E+02 -0.84846290146E+02  0.15567201745E+03  0.83682306267E+02 0.  0.
          5    1    3    3  501    0 -0.20827388656E+03  0.18940800110E+03 -0.99901333176E+02  0.29875704021E+03  0.47000000000E+01 0. -1.
        -13    1    4    4    0    0 -0.24653134348E+02  0.28240510920E+02 -0.79447254775E+02  0.87847423306E+02  0.00000000000E+00 0.  1.
         14    1    4    4    0    0 -0.15202325916E+02  0.56847818668E+02 -0.11664168515E+01  0.58856993882E+02  0.00000000000E+00 0. -1.
         -5    1    5    5    0  502  0.16263276491E+03 -0.22231884356E+03 -0.11057017644E+03  0.29685507970E+03  0.47000000000E+01 0.  1.
         13    1    6    6    0    0  0.72691054300E+02 -0.19908909985E+02 -0.13833214235E+02  0.76627096305E+02  0.00000000000E+00 0. -1.
        -14    1    6    6    0    0  0.12805527621E+02 -0.32268577145E+02 -0.71013075911E+02  0.79044921146E+02  0.00000000000E+00 0.  1.
</event>
<event>
12    1  0.8449700E-002  0.2179922E+03  0.7818608E-02  0.1135423E+00
         21   -1    0    0  501  502  0.00000000000E+00  0.00000000000E+00  0.31018057725E+03  0.31018057725E+03  0.00000000000E+00 0.  1.
         21   -1    0    0  502  503 -0.00000000000E+00 -0.00000000000E+00 -0.15330569254E+03  0.15330569254E+03  0.00000000000E+00 0. -1.
         -6    2    1    2    0  503 -0.17096800615E+02  0.13277094481E+03  0.69472783960E+02  0.22879480887E+03  0.17204700660E+03 0.  0.
        -24    2    3    3    0    0  0.37437913793E+02  0.10723616233E+03  0.16768266759E+01  0.13799589910E+03  0.78350906309E+02 0.  0.
          6    2    1    2  501    0  0.17096800615E+02 -0.13277094481E+03  0.87402100747E+02  0.23469146092E+03  0.17181539580E+03 0.  0.
         24    2    5    5    0    0 -0.16525413219E+02 -0.46218588733E+01  0.29689045404E+02  0.90104019392E+02  0.83323730306E+02 0.  0.
          5    1    5    5  501    0  0.33622213834E+02 -0.12814908594E+03  0.57713055343E+02  0.14458744152E+03  0.47000000000E+01 0. -1.
        -13    1    6    6    0    0  0.16376467498E+02  0.11411896757E+02  0.45916359587E+02  0.50067276269E+02  0.00000000000E+00 0.  1.
         14    1    6    6    0    0 -0.32901880717E+02 -0.16033755630E+02 -0.16227314183E+02  0.40036743123E+02  0.00000000000E+00 0. -1.
         -5    1    3    3    0  503 -0.54534714408E+02  0.25534782476E+02  0.67795957284E+02  0.90798909771E+02  0.47000000000E+01 0.  1.
         13    1    4    4    0    0 -0.14778756274E+02  0.25879055436E+02 -0.23667580233E+02  0.38056425231E+02  0.00000000000E+00 0. -1.
        -14    1    4    4    0    0  0.52216670067E+02  0.81357106897E+02  0.25344406909E+02  0.99939473868E+02  0.00000000000E+00 0.  1.
</event>
<event>
12    1  0.8449700E-002  0.2400743E+03  0.7818608E-02  0.1119914E+00
         21   -1    0    0  503  502  0.00000000000E+00  0.00000000000E+00  0.10809935657E+03  0.10809935657E+03  0.00000000000E+00 0.  1.
         21   -1    0    0  501  503 -0.00000000000E+00 -0.00000000000E+00 -0.58012851492E+03  0.58012851492E+03  0.00000000000E+00 0.  1.
          6    2    1    2  501    0 -0.81724306561E+02 -0.14765229484E+03 -0.33579129391E+03  0.41219083879E+03  0.16930868867E+03 0.  0.
         24    2    3    3    0    0 -0.87474771241E+02 -0.88361231825E+02 -0.31767077751E+03  0.34974933727E+03  0.77138402519E+02 0.  0.
         -6    2    1    2    0  502  0.81724306561E+02  0.14765229484E+03 -0.13623786444E+03  0.27603703271E+03  0.17075018380E+03 0.  0.
        -24    2    5    5    0    0  0.45914168483E+02  0.93908752832E+02 -0.15952917951E+03  0.20722344645E+03  0.81024890722E+02 0.  0.
          5    1    3    3  501    0  0.57504646796E+01 -0.59291063011E+02 -0.18120516404E+02  0.62441501517E+02  0.47000000000E+01 0. -1.
        -13    1    4    4    0    0 -0.82913427060E+02 -0.43901951556E+02 -0.15622218650E+03  0.18222894746E+03  0.00000000000E+00 0.  1.
         14    1    4    4    0    0 -0.45613441804E+01 -0.44459280269E+02 -0.16144859101E+03  0.16752038981E+03  0.00000000000E+00 0. -1.
         -5    1    5    5    0  502  0.35810138078E+02  0.53743542004E+02  0.23291315071E+02  0.68813586260E+02  0.47000000000E+01 0.  1.
         13    1    6    6    0    0 -0.10821981891E+02  0.54243107689E+02 -0.10654636098E+03  0.12004814477E+03  0.00000000000E+00 0. -1.
        -14    1    6    6    0    0  0.56736150374E+02  0.39665645143E+02 -0.52982818531E+02  0.87175301682E+02  0.00000000000E+00 0.  1.
</event>
<event>
12    1  0.8449700E-002  0.1865460E+03  0.7818608E-02  0.1162036E+00
         21   -1    0    0  503  502  0.00000000000E+00  0.00000000000E+00  0.73686252107E+02  0.73686252107E+02  0.00000000000E+00 0. -1.
         21   -1    0    0  501  503 -0.00000000000E+00 -0.00000000000E+00 -0.51594952651E+03  0.51594952651E+03  0.00000000000E+00 0.  1.
          6    2    1    2  501    0 -0.67706670899E+02  0.16424976918E+02 -0.12997487207E+03  0.22587285998E+03  0.17108801348E+03 0.  0.
         24    2    3    3    0    0 -0.42624893627E+02  0.50660301413E+02 -0.17169698564E+02  0.10525673269E+03  0.80005209405E+02 0.  0.
         -6    2    1    2    0  502  0.67706670899E+02 -0.16424976918E+02 -0.31228840233E+03  0.36376291863E+03  0.17304751251E+03 0.  0.
        -24    2    5    5    0    0  0.70715451594E+02 -0.24838906877E+02 -0.32763416301E+03  0.34539366853E+03  0.79592682470E+02 0.  0.
          5    1    3    3  501    0 -0.25081777272E+02 -0.34235324495E+02 -0.11280517350E+03  0.12061612729E+03  0.47000000000E+01 0. -1.
        -13    1    4    4    0    0  0.87913404438E+01  0.37097590648E+02 -0.32303272734E+02  0.49970194397E+02  0.00000000000E+00 0.  1.
         14    1    4    4    0    0 -0.51416234071E+02  0.13562710765E+02  0.15133574171E+02  0.55286538294E+02  0.00000000000E+00 0. -1.
         -5    1    5    5    0  502 -0.30087806948E+01  0.84139299588E+01  0.15345760672E+02  0.18369250100E+02  0.47000000000E+01 0.  1.
         11    1    6    6    0    0  0.17022904227E+01  0.42578278506E+01  0.35797380307E+01  0.58173374543E+01  0.00000000000E+00 0. -1.
        -12    1    6    6    0    0  0.69013161171E+02 -0.29096734727E+02 -0.33121390104E+03  0.33957633108E+03  0.00000000000E+00 0.  1.
</event>
<event>
12    1  0.8449700E-002  0.2150231E+03  0.7818608E-02  0.1137872E+00
         21   -1    0    0  501  502  0.00000000000E+00  0.00000000000E+00  0.10064613899E+03  0.10064613899E+03  0.00000000000E+00 0.  1.
         21   -1    0    0  502  503 -0.00000000000E+00 -0.00000000000E+00 -0.45877995871E+03  0.45877995871E+03  0.00000000000E+00 0.  1.
         -6    2    1    2    0  503 -0.77997837732E+02  0.99118098168E+02 -0.19645523827E+03  0.29040024458E+03  0.17271242379E+03 0.  0.
        -24    2    3    3    0    0 -0.39026559356E+02  0.99329535765E+02 -0.54787786341E+02  0.14339493114E+03  0.78555558254E+02 0.  0.
          6    2    1    2  501    0  0.77997837732E+02 -0.99118098168E+02 -0.16167858144E+03  0.26902585312E+03  0.17414616238E+03 0.  0.
         24    2    5    5    0    0  0.31292982772E+02 -0.12142505257E+03 -0.72817979972E+02  0.16608295543E+03  0.80980218040E+02 0.  0.
          5    1    5    5  501    0  0.46704854959E+02  0.22306954401E+02 -0.88860601471E+02  0.10294289769E+03  0.47000000000E+01 0. -1.
        -11    1    6    6    0    0  0.49080480384E+02 -0.46338116023E+02 -0.13700590825E+02  0.68875400109E+02  0.00000000000E+00 0.  1.
         12    1    6    6    0    0 -0.17787497612E+02 -0.75086936546E+02 -0.59117389147E+02  0.97207555317E+02  0.00000000000E+00 0. -1.
         -5    1    3    3    0  503 -0.38971278375E+02 -0.21143759711E+00 -0.14166745193E+03  0.14700531344E+03  0.47000000000E+01 0.  1.
         11    1    4    4    0    0  0.15304707138E+02  0.20599815769E+02  0.10344180737E+02  0.27669270778E+02  0.00000000000E+00 0. -1.
        -12    1    4    4    0    0 -0.54331266495E+02  0.78729719997E+02 -0.65131967078E+02  0.11572566036E+03  0.00000000000E+00 0.  1.
</event>
<event>
12    1  0.8449700E-002  0.1753996E+03  0.7818608E-02  0.1172720E+00
         21   -1    0    0  503  502  0.00000000000E+00  0.00000000000E+00  0.72129222633E+03  0.72129222633E+03  0.00000000000E+00 0. -1.
         21   -1    0    0  501  503 -0.00000000000E+00 -0.00000000000E+00 -0.44129177484E+02  0.44129177484E+02  0.00000000000E+00 0. -1.
          6    2    1    2  501    0  0.23176171098E+02  0.44155972795E+01  0.25875646972E+03  0.31173750357E+03  0.17224612654E+03 0.  0.
         24    2    3    3    0    0 -0.45235340815E+02 -0.29187402992E+02  0.12462994529E+03  0.15739596301E+03  0.79641228997E+02 0.  0.
         -6    2    1    2    0  502 -0.23176171098E+02 -0.44155972795E+01  0.41840657913E+03  0.45368390024E+03  0.17380559103E+03 0.  0.
        -24    2    5    5    0    0 -0.67734334913E+02  0.21048334315E+02  0.36230432403E+03  0.37750388447E+03  0.78827578158E+02 0.  0.
          5    1    3    3  501    0  0.68411511913E+02  0.33603000272E+02  0.13412652443E+03  0.15434154057E+03  0.47000000000E+01 0. -1.
        -13    1    4    4    0    0 -0.29861007574E+02 -0.45356582353E+02  0.12366580220E+03  0.13506342943E+03  0.00000000000E+00 0.  1.
         14    1    4    4    0    0 -0.15374333241E+02  0.16169179360E+02  0.96414308295E+00  0.22332533571E+02  0.00000000000E+00 0. -1.
         -5    1    5    5    0  502  0.44558163815E+02 -0.25463931595E+02  0.56102255098E+02  0.76180015765E+02  0.47000000000E+01 0.  1.
         13    1    6    6    0    0 -0.23237271982E+02 -0.27298502995E+02  0.18441916746E+03  0.18787125485E+03  0.00000000000E+00 0. -1.
        -14    1    6    6    0    0 -0.44497062931E+02  0.48346837310E+02  0.17788515657E+03  0.18963262962E+03  0.00000000000E+00 0.  1.
</event>
<event>
12    1  0.8449700E-002  0.2048275E+03  0.7818608E-02  0.1145842E+00
         21   -1    0    0  501  502  0.00000000000E+00  0.00000000000E+00  0.31469049019E+03  0.31469049019E+03  0.00000000000E+00 0. -1.
         21   -1    0    0  502  503 -0.00000000000E+00 -0.00000000000E+00 -0.13309831058E+03  0.13309831058E+03  0.00000000000E+00 0.  1.
         -6    2    1    2    0  503 -0.11041764374E+03  0.64099902809E+01  0.83658400634E+02  0.22125328542E+03  0.17239821428E+03 0.  0.
        -24    2    3    3    0    0 -0.18535974315E+02  0.71749622186E+01 -0.18921642724E+02  0.83457851339E+02  0.78817015676E+02 0.  0.
          6    2    1    2  501    0  0.11041764374E+03 -0.64099902809E+01  0.97933778977E+02  0.22653551536E+03  0.17173866958E+03 0.  0.
         24    2    5    5    0    0  0.56648863777E+02 -0.61777904812E+02  0.93688979943E+02  0.14909653308E+03  0.80165752803E+02 0.  0.
          5    1    5    5  501    0  0.53768779961E+02  0.55367914531E+02  0.42447990335E+01  0.77438982282E+02  0.47000000000E+01 0. -1.
        -13    1    6    6    0    0  0.35609651703E+02 -0.71583290507E+02  0.37514180338E+02  0.88314939283E+02  0.00000000000E+00 0.  1.
         14    1    6    6    0    0  0.21039212074E+02  0.98053856949E+01  0.56174799606E+02  0.60781593793E+02  0.00000000000E+00 0. -1.
         -5    1    3    3    0  503 -0.91881669423E+02 -0.76497193772E+00  0.10258004336E+03  0.13779543408E+03  0.47000000000E+01 0.  1.
         11    1    4    4    0    0  0.31190274499E+02  0.14752411594E+01 -0.78250910935E+01  0.32190706896E+02  0.00000000000E+00 0. -1.
        -12    1    4    4    0    0 -0.49726248815E+02  0.56997210592E+01 -0.11096551630E+02  0.51267144444E+02  0.00000000000E+00 0.  1.
</event>
<event>
12    1  0.8449700E-002  0.2013086E+03  0.7818608E-02  0.1149031E+00
         21   -1    0    0  503  502  0.00000000000E+00  0.00000000000E+00  0.28475970684E+02  0.28475970684E+02  0.00000000000E+00 0. -1.
         21   -1    0    0  501  503 -0.00000000000E+00 -0.00000000000E+00 -0.14634125434E+04  0.14634125434E+04  0.00000000000E+00 0.  1.
          6    2    1    2  501    0 -0.98253632187E+02  0.44839395083E+02 -0.85674518323E+03  0.87965453558E+03  0.16767660952E+03 0.  0.
         24    2    3    3    0    0 -0.12150596597E+03  0.66897106976E+02 -0.60355737716E+03  0.62440295610E+03  0.79740964241E+02 0.  0.
         -6    2    1    2    0  502  0.98253632187E+02 -0.44839395083E+02 -0.57819138953E+03  0.61223397856E+03  0.16988470791E+03 0.  0.
        -24    2    5    5    0    0  0.80905550638E+02 -0.23739588737E+02 -0.18772702551E+03  0.22078708901E+03  0.79976411342E+02 0.  0.
          5    1    3    3  501    0  0.23252333780E+02 -0.22057711893E+02 -0.25318780607E+03  0.25525157948E+03  0.47000000000E+01 0. -1.
        -13    1    4    4    0    0 -0.31436247840E+02  0.11677584944E+02 -0.32088306647E+03  0.32263066503E+03  0.00000000000E+00 0.  1.
         14    1    4    4    0    0 -0.90069718127E+02  0.55219522032E+02 -0.28267431068E+03  0.30177229107E+03  0.00000000000E+00 0. -1.
         -5    1    5    5    0  502  0.17348081549E+02 -0.21099806346E+02 -0.39046436402E+03  0.39144688955E+03  0.47000000000E+01 0.  1.
         13    1    6    6    0    0  0.49494140936E+02  0.89152861095E+01 -0.15988158682E+03  0.16760451699E+03  0.00000000000E+00 0. -1.
        -14    1    6    6    0    0  0.31411409702E+02 -0.32654874847E+02 -0.27845438692E+02  0.53182572020E+02  0.00000000000E+00 0.  1.
</event>
<event>
12    1  0.8449700E-002  0.1740581E+03  0.7818608E-02  0.1173764E+00
         21   -1    0    0  501  502  0.00000000000E+00  0.00000000000E+00  0.18814640210E+03  0.18814640210E+03  0.00000000000E+00 0.  1.
         21   -1    0    0  502  503 -0.00000000000E+00 -0.00000000000E+00 -0.16710607962E+03  0.16710607962E+03  0.00000000000E+00 0. -1.
         -6    2    1    2    0  503  0.25686207353E+02 -0.14614558190E+02 -0.24212532214E+02  0.17540798570E+03  0.17119681122E+03 0.  0.
        -24    2    3    3    0    0  0.65335991320E+02  0.17986210863E+02 -0.53812792872E+02  0.11596741923E+03  0.77203174173E+02 0.  0.
          6    2    1    2  501    0 -0.25686207353E+02  0.14614558190E+02  0.45252854692E+02  0.17984449602E+03  0.17153091655E+03 0.  0.
         24    2    5    5    0    0 -0.62896031341E+02 -0.24673458242E+02  0.64390437074E+02  0.12225581401E+03  0.78966229321E+02 0.  0.
          5    1    5    5  501    0  0.37209823988E+02  0.39288016432E+02 -0.19137582382E+02  0.57588682011E+02  0.47000000000E+01 0. -1.
        -11    1    6    6    0    0 -0.65276216425E+00 -0.28876986198E+01  0.55655360266E+02  0.55734047297E+02  0.00000000000E+00 0.  1.
         12    1    6    6    0    0 -0.62243269177E+02 -0.21785759622E+02  0.87350768086E+01  0.66521766716E+02  0.00000000000E+00 0. -1.
         -5    1    3    3    0  503 -0.39649783967E+02 -0.32600769053E+02  0.29600260658E+02  0.59440566472E+02  0.47000000000E+01 0.  1.
         11    1    4    4    0    0  0.35799726548E+02 -0.21016795301E+02 -0.52625762697E+02  0.67028329870E+02  0.00000000000E+00 0. -1.
        -12    1    4    4    0    0  0.29536264772E+02  0.39003006164E+02 -0.11870301749E+01  0.48939089357E+02  0.00000000000E+00 0.  1.
</event>
<event>
12    1  0.8449700E-002  0.1791597E+03  0.7818608E-02  0.1168788E+00
         21   -1    0    0  501  502  0.00000000000E+00  0.00000000000E+00  0.56429221224E+03  0.56429221224E+03  0.00000000000E+00 0.  1.
         21   -1    0    0  502  503 -0.00000000000E+00 -0.00000000000E+00 -0.56665804182E+02  0.56665804182E+02  0.00000000000E+00 0.  1.
         -6    2    1    2    0  503  0.43201153908E+02  0.17372611004E+02  0.25679097886E+03  0.31311309547E+03  0.17300305322E+03 0.  0.
        -24    2    3    3    0    0  0.37870415860E+02  0.70495009953E+02  0.11304532354E+03  0.15970087478E+03  0.79507291511E+02 0.  0.
          6    2    1    2  501    0 -0.43201153908E+02 -0.17372611004E+02  0.25083542920E+03  0.30784492095E+03  0.17228446099E+03 0.  0.
         24    2    5    5    0    0  0.39821111875E+01  0.89491912079E+01  0.38049574385E+02  0.88256652167E+02  0.79028610693E+02 0.  0.
          5    1    5    5  501    0 -0.47183265096E+02 -0.26321802212E+02  0.21278585482E+03  0.21958826878E+03  0.47000000000E+01 0. -1.
        -11    1    6    6    0    0 -0.32444184250E+02 -0.13925748118E+02  0.92694606785E+01  0.36503074577E+02  0.00000000000E+00 0.  1.
         12    1    6    6    0    0  0.36426295438E+02  0.22874939325E+02  0.28780113707E+02  0.51753577591E+02  0.00000000000E+00 0. -1.
         -5    1    3    3    0  503  0.53307380480E+01 -0.53122398949E+02  0.14374565531E+03  0.15341222070E+03  0.47000000000E+01 0.  1.
         13    1    4    4    0    0  0.86592524611E+01  0.25266332099E+02  0.10107531112E+03  0.10454467327E+03  0.00000000000E+00 0. -1.
        -14    1    4    4    0    0  0.29211163399E+02  0.45228677853E+02  0.11970012427E+02  0.55156201510E+02  0.00000000000E+00 0.  1.
</event>
<event>
12    1  0.8449700E-002  0.1826090E+03  0.7818608E-02  0.1165500E+00
         21   -1    0    0  501  502  0.00000000000E+00  0.00000000000E+00  0.99211324370E+03  0.99211324370E+03  0.00000000000E+00 0. -1.
         21   -1    0    0  502  503 -0.00000000000E+00 -0.00000000000E+00 -0.39702981711E+02  0.39702981711E+02  0.00000000000E+00 0. -1.
         -6    2    1    2    0  503  0.25525045817E+02  0.50280544607E+02  0.27067290881E+03  0.32604582175E+03  0.17280738754E+03 0.  0.
        -24    2    3    3    0    0 -0.30273231371E+02 -0.14615624399E+02  0.83728084471E+02  0.12038732366E+03  0.79703391118E+02 0.  0.
          6    2    1    2  501    0 -0.25525045817E+02 -0.50280544607E+02  0.68173735318E+03  0.70577040366E+03  0.17368472250E+03 0.  0.
         24    2    5    5    0    0 -0.63866893237E+02 -0.13238786541E+01  0.26312683949E+03  0.28254031898E+03  0.80700467680E+02 0.  0.
          5    1    5    5  501    0  0.38341847420E+02 -0.48956665953E+02  0.41861051369E+03  0.42323008468E+03  0.47000000000E+01 0. -1.
        -11    1    6    6    0    0  0.14925150077E+02 -0.64890343565E+01  0.14929041933E+02  0.22084926188E+02  0.00000000000E+00 0.  1.
         12    1    6    6    0    0 -0.78792043314E+02  0.51651557025E+01  0.24819779755E+03  0.26045539279E+03  0.00000000000E+00 0. -1.
         -5    1    3    3    0  503  0.55798277188E+02  0.64896169006E+02  0.18694482434E+03  0.20565849809E+03  0.47000000000E+01 0.  1.
         11    1    4    4    0    0 -0.29924210749E+02  0.29482624439E+02  0.46600067711E+02  0.62739539713E+02  0.00000000000E+00 0. -1.
        -12    1    4    4    0    0 -0.34902062211E+00 -0.44098248838E+02  0.37128016760E+02  0.57647783951E+02  0.00000000000E+00 0.  1.
</event>
<event>
12    1  0.8449700E-002  0.4013620E+03  0.7818608E-02  0.1043399E+00
         21   -1    0    0  503  502  0.00000000000E+00  0.00000000000E+00  0.23884521392E+03  0.23884521392E+03  0.00000000000E+00 0. -1.
         21   -1    0    0  501  503 -0.00000000000E+00 -0.00000000000E+00 -0.83622985284E+03  0.83622985284E+03  0.00000000000E+00 0.  1.
          6    2    1    2  501    0  0.29814401968E+03  0.20531662084E+03 -0.61298552193E+02  0.40601596647E+03  0.17333978558E+03 0.  0.
         24    2    3    3    0    0  0.17065742428E+03  0.13942843987E+03  0.29617324504E+02  0.23606929533E+03  0.79292370239E+02 0.  0.
         -6    2    1    2    0  502 -0.29814401968E+03 -0.20531662084E+03 -0.53608608673E+03  0.66905910029E+03  0.17090060276E+03 0.  0.
        -24    2    5    5    0    0 -0.24452255195E+03 -0.13600515835E+03 -0.30306113189E+03  0.42005697135E+03  0.79455194976E+02 0.  0.
          5    1    3    3  501    0  0.12748659540E+03  0.65888180976E+02 -0.90915876697E+02  0.16994667115E+03  0.47000000000E+01 0. -1.
        -13    1    4    4    0    0  0.38007932771E+02  0.43616778685E+02  0.42713683708E+02  0.71913038542E+02  0.00000000000E+00 0.  1.
         14    1    4    4    0    0  0.13264949151E+03  0.95811661182E+02 -0.13096359204E+02  0.16415625678E+03  0.00000000000E+00 0. -1.
         -5    1    5    5    0  502 -0.53621467732E+02 -0.69311462491E+02 -0.23302495485E+03  0.24900212894E+03  0.47000000000E+01 0.  1.
         13    1    6    6    0    0 -0.61871276429E+02  0.38730293003E+00 -0.50785050576E+02  0.80045775732E+02  0.00000000000E+00 0. -1.
        -14    1    6    6    0    0 -0.18265127552E+03 -0.13639246128E+03 -0.25227608131E+03  0.34001119562E+03  0.00000000000E+00 0.  1.
</event>
<event>
12    1  0.8449700E-002  0.2661454E+03  0.7818608E-02  0.1105688E+00
         21   -1    0    0  503  502  0.00000000000E+00  0.00000000000E+00  0.18649690286E+03  0.18649690286E+03  0.00000000000E+00 0.  1.
         21   -1    0    0  501  503 -0.00000000000E+00 -0.00000000000E+00 -0.74037232868E+03  0.74037232868E+03  0.00000000000E+00 0. -1.
          6    2    1    2  501    0 -0.10716301883E+03 -0.14859562525E+03 -0.60555766014E+03  0.65575226665E+03  0.17247139766E+03 0.  0.
         24    2    3    3    0    0  0.91617160262E+01 -0.76158190080E+02 -0.22825213404E+03  0.25430466611E+03  0.81779089954E+02 0.  0.
         -6    2    1    2    0  502  0.10716301883E+03  0.14859562525E+03  0.51682234322E+02  0.27111696489E+03  0.19305124412E+03 0.  0.
        -24    2    5    5    0    0  0.15134360813E+02 -0.58736285701E+01 -0.40311972638E+01  0.82819060674E+02  0.81112254745E+02 0.  0.
          5    1    3    3  501    0 -0.11632473486E+03 -0.72437435169E+02 -0.37730552610E+03  0.40144760054E+03  0.47000000000E+01 0. -1.
        -13    1    4    4    0    0 -0.36369533009E+02 -0.39274928809E+02 -0.10873409980E+03  0.12119557510E+03  0.00000000000E+00 0.  1.
         14    1    4    4    0    0  0.45531249035E+02 -0.36883261271E+02 -0.11951803424E+03  0.13310909101E+03  0.00000000000E+00 0. -1.
         -5    1    5    5    0  502  0.92028658020E+02  0.15446925382E+03  0.55713431586E+02  0.18829790421E+03  0.47000000000E+01 0.  1.
         13    1    6    6    0    0  0.12780769315E+02 -0.73689480332E+01 -0.42119674251E+02  0.44628650197E+02  0.00000000000E+00 0. -1.
        -14    1    6    6    0    0  0.23535914978E+01  0.14953194631E+01  0.38088476987E+02  0.38190410477E+02  0.00000000000E+00 0.  1.
</event>
<event>
12    1  0.8449700E-002  0.2663306E+03  0.7818608E-02  0.1103441E+00
         21   -1    0    0  501  502  0.00000000000E+00  0.00000000000E+00  0.32776549862E+03  0.32776549862E+03  0.00000000000E+00 0.  1.
         21   -1    0    0  502  503 -0.00000000000E+00 -0.00000000000E+00 -0.35378634558E+03  0.35378634558E+03  0.00000000000E+00 0.  1.
         -6    2    1    2    0  503 -0.61032989590E+02 -0.19391533060E+03 -0.22554251095E+03  0.34877431141E+03  0.17159812002E+03 0.  0.
        -24    2    3    3    0    0 -0.64464982220E+02 -0.10221320211E+03 -0.54885563483E+02  0.15495237596E+03  0.79965874719E+02 0.  0.
          6    2    1    2  501    0  0.61032989590E+02  0.19391533060E+03  0.19952166399E+03  0.33277753279E+03  0.17205757952E+03 0.  0.
         24    2    5    5    0    0  0.77536957005E+02  0.21209154513E+03  0.18981398985E+03  0.30596177898E+03  0.81169306020E+02 0.  0.
          5    1    5    5  501    0 -0.16503967415E+02 -0.18176214529E+02  0.97076741410E+01  0.26815753807E+02  0.47000000000E+01 0. -1.
        -11    1    6    6    0    0  0.38891940283E+02  0.74433438491E+02  0.12098889830E+03  0.14727943949E+03  0.00000000000E+00 0.  1.
         12    1    6    6    0    0  0.38645016722E+02  0.13765810664E+03  0.68825091547E+02  0.15868233949E+03  0.00000000000E+00 0. -1.
         -5    1    3    3    0  503  0.34319926299E+01 -0.91702128489E+02 -0.17065694746E+03  0.19382193545E+03  0.47000000000E+01 0.  1.
         13    1    4    4    0    0 -0.17333696415E+02  0.12000216127E+02 -0.47416036186E+01  0.21608910740E+02  0.00000000000E+00 0. -1.
        -14    1    4    4    0    0 -0.47131285805E+02 -0.11421341823E+03 -0.50143959864E+02  0.13334346522E+03  0.00000000000E+00 0.  1.
</event>
<event>
12    1  0.8449700E-002  0.2318484E+03  0.7818608E-02  0.1125695E+00
         21   -1    0    0  501  502  0.00000000000E+00  0.00000000000E+00  0.13015028711E+04  0.13015028711E+04  0.00000000000E+00 0.  1.
         21   -1    0    0  502  503 -0.00000000000E+00 -0.00000000000E+00 -0.82781228431E+02  0.82781228431E+02  0.00000000000E+00 0. -1.
         -6    2    1    2    0  503  0.58926228327E+02 -0.14109865423E+03  0.11601605222E+03  0.25746854426E+03  0.17160768135E+03 0.  0.
        -24    2    3    3    0    0  0.51262487715E+02 -0.16135602499E+03  0.58871227575E+02  0.19617649768E+03  0.79723192096E+02 0.  0.
          6    2    1    2  501    0 -0.58926228327E+02  0.14109865423E+03  0.11027055904E+04  0.11268155553E+04  0.17427720963E+03 0.  0.
         24    2    5    5    0    0  0.13923376417E+02  0.47074676584E+02  0.72661591809E+03  0.73233728599E+03  0.77054022885E+02 0.  0.
          5    1    5    5  501    0 -0.72849604744E+02  0.94023977648E+02  0.37608967234E+03  0.39447826927E+03  0.47000000000E+01 0. -1.
        -13    1    6    6    0    0 -0.21129901525E+02 -0.88669779895E+01  0.12248548177E+03  0.12461055045E+03  0.00000000000E+00 0.  1.
         14    1    6    6    0    0  0.35053277942E+02  0.55941654574E+02  0.60413043631E+03  0.60772673554E+03  0.00000000000E+00 0. -1.
         -5    1    3    3    0  503  0.76637406120E+01  0.20257370754E+02  0.57144824646E+02  0.61292046579E+02  0.47000000000E+01 0.  1.
         11    1    4    4    0    0  0.13090671376E+02 -0.19643791583E+02 -0.18754109004E+02  0.30148977253E+02  0.00000000000E+00 0. -1.
        -12    1    4    4    0    0  0.38171816339E+02 -0.14171223340E+03  0.77625336580E+02  0.16602752042E+03  0.00000000000E+00 0.  1.
</event>
<event>
12    1  0.8449700E-002  0.2282917E+03  0.7818608E-02  0.1127892E+00
         21   -1    0    0  501  502  0.00000000000E+00  0.00000000000E+00  0.10495605390E+03  0.10495605390E+03  0.00000000000E+00 0. -1.
         21   -1    0    0  502  503 -0.00000000000E+00 -0.00000000000E+00 -0.50257524640E+03  0.50257524640E+03  0.00000000000E+00 0. -1.
         -6    2    1    2    0  503 -0.31450677537E+02  0.14771682009E+03 -0.16402640578E+03  0.28090810590E+03  0.17086631650E+03 0.  0.
        -24    2    3    3    0    0 -0.68511644083E+01  0.16631239921E+03 -0.16779176269E+03  0.24948837449E+03  0.79897564388E+02 0.  0.
          6    2    1    2  501    0  0.31450677537E+02 -0.14771682009E+03 -0.23359278672E+03  0.32662319440E+03  0.17119496796E+03 0.  0.
         24    2    5    5    0    0  0.78260794458E+01 -0.10366495573E+02 -0.49408129513E+02  0.95605205421E+02  0.80811387142E+02 0.  0.
          5    1    5    5  501    0  0.23624598091E+02 -0.13735032451E+03 -0.18418465721E+03  0.23101798898E+03  0.47000000000E+01 0. -1.
        -11    1    6    6    0    0  0.27854212616E+01 -0.45875274319E+02 -0.26599831235E+02  0.53102263485E+02  0.00000000000E+00 0.  1.
         12    1    6    6    0    0  0.50406581842E+01  0.35508778746E+02 -0.22808298278E+02  0.42502941937E+02  0.00000000000E+00 0. -1.
         -5    1    3    3    0  503 -0.24599513129E+02 -0.18595579123E+02  0.37653569132E+01  0.31419731408E+02  0.47000000000E+01 0.  1.
         13    1    4    4    0    0 -0.98716618135E+01  0.11882240619E+03 -0.64033505575E+02  0.13533847847E+03  0.00000000000E+00 0. -1.
        -14    1    4    4    0    0  0.30204974052E+01  0.47489993025E+02 -0.10375825711E+03  0.11414989602E+03  0.00000000000E+00 0.  1.
</event>
<event>
12    1  0.8449700E-002  0.1891037E+03  0.7818608E-02  0.1159639E+00
         21   -1    0    0  503  502  0.00000000000E+00  0.00000000000E+00  0.36793185293E+03  0.36793185293E+03  0.00000000000E+00 0.  1.
         21   -1    0    0  501  503 -0.00000000000E+00 -0.00000000000E+00 -0.19381415313E+03  0.19381415313E+03  0.00000000000E+00 0.  1.
          6    2    1    2  501    0 -0.74563720499E+02 -0.38490672231E+01 -0.11228388888E+03  0.21854623238E+03  0.17198901202E+03 0.  0.
         24    2    3    3    0    0  0.27333979586E+02 -0.52748239640E+01 -0.38000287415E+02  0.92350679722E+02  0.79433343085E+02 0.  0.
         -6    2    1    2    0  502  0.74563720499E+02  0.38490672231E+01  0.28640158868E+03  0.34319977367E+03  0.17374018222E+03 0.  0.
        -24    2    5    5    0    0  0.57961004278E+02  0.33824965048E+02  0.29038736432E+03  0.30838338323E+03  0.79195223454E+02 0.  0.
          5    1    3    3  501    0 -0.10189770008E+03  0.14257567409E+01 -0.74283601466E+02  0.12619555266E+03  0.47000000000E+01 0. -1.
        -11    1    4    4    0    0  0.31777417120E+02  0.19966499084E+02 -0.51231877900E+02  0.63507248701E+02  0.00000000000E+00 0.  1.
         12    1    4    4    0    0 -0.44434375336E+01 -0.25241323048E+02  0.13231590484E+02  0.28843431021E+02  0.00000000000E+00 0. -1.
         -5    1    5    5    0  502  0.16602716220E+02 -0.29975897825E+02 -0.39857756369E+01  0.34816390446E+02  0.47000000000E+01 0.  1.
         11    1    6    6    0    0  0.13784871328E+01 -0.20132291935E+02  0.27459133553E+02  0.34076581707E+02  0.00000000000E+00 0. -1.
        -12    1    6    6    0    0  0.56582517146E+02  0.53957256983E+02  0.26292823076E+03  0.27430680152E+03  0.00000000000E+00 0.  1.
</event>
<event>
12    1  0.8449700E-002  0.1964342E+03  0.7818608E-02  0.1152814E+00
         21   -1    0    0  503  502  0.00000000000E+00  0.00000000000E+00  0.15221554588E+04  0.15221554588E+04  0.00000000000E+00 0. -1.
         21   -1    0    0  501  503 -0.00000000000E+00 -0.00000000000E+00 -0.26389596009E+02  0.26389596009E+02  0.00000000000E+00 0. -1.
          6    2    1    2  501    0  0.12027902533E+02 -0.94855070566E+02  0.59257594667E+03  0.62424075834E+03  0.17142962682E+03 0.  0.
         24    2    3    3    0    0  0.17655154659E+02 -0.92113966287E+00  0.13834537174E+03  0.16034124924E+03  0.79103232188E+02 0.  0.
         -6    2    1    2    0  502 -0.12027902533E+02  0.94855070566E+02  0.90318991615E+03  0.92430429650E+03  0.17159327794E+03 0.  0.
        -24    2    5    5    0    0 -0.61271725751E+02  0.94887271018E+02  0.52079796774E+03  0.53872596804E+03  0.78976748900E+02 0.  0.
          5    1    3    3  501    0 -0.56272521265E+01 -0.93933930903E+02  0.45423057493E+03  0.46389950910E+03  0.47000000000E+01 0. -1.
        -13    1    4    4    0    0  0.36415116532E+02 -0.78561000285E+01  0.13502129256E+03  0.14006615745E+03  0.00000000000E+00 0.  1.
         14    1    4    4    0    0 -0.18759961873E+02  0.69349603656E+01  0.33240791840E+01  0.20275091791E+02  0.00000000000E+00 0. -1.
         -5    1    5    5    0  502  0.49243823218E+02 -0.32200451631E-01  0.38239194841E+03  0.38557832845E+03  0.47000000000E+01 0.  1.
         11    1    6    6    0    0 -0.31172120678E+01  0.72999106449E+02  0.22854700364E+03  0.23994232521E+03  0.00000000000E+00 0. -1.
        -12    1    6    6    0    0 -0.58154513683E+02  0.21888164569E+02  0.29225096409E+03  0.29878364283E+03  0.00000000000E+00 0.  1.
</event>
<event>
12    1  0.8449700E-002  0.2049756E+03  0.7818608E-02  0.1145737E+00
         21   -1    0    0  503  502  0.00000000000E+00  0.00000000000E+00  0.24408704591E+03  0.24408704591E+03  0.00000000000E+00 0. -1.
         21   -1    0    0  501  503 -0.00000000000E+00 -0.00000000000E+00 -0.17493111536E+03  0.17493111536E+03  0.00000000000E+00 0. -1.
          6    2    1    2  501    0  0.50266193787E+02  0.96922518095E+02  0.63438302854E+02  0.21396279168E+03  0.17272809037E+03 0.  0.
         24    2    3    3    0    0  0.85371667346E+01  0.41598507461E+02 -0.32710451465E+02  0.95351110940E+02  0.78857730652E+02 0.  0.
         -6    2    1    2    0  502 -0.50266193787E+02 -0.96922518095E+02  0.57176276919E+01  0.20505536958E+03  0.17347722783E+03 0.  0.
        -24    2    5    5    0    0 -0.93644335352E+02 -0.87705191376E+02  0.29935184809E+02  0.15430891798E+03  0.80334704464E+02 0.  0.
          5    1    3    3  501    0  0.41729027052E+02  0.55324010633E+02  0.96148754319E+02  0.11861168074E+03  0.47000000000E+01 0. -1.
        -13    1    4    4    0    0 -0.12218309932E+02 -0.20595985766E+02 -0.73348668279E+01  0.25045598389E+02  0.00000000000E+00 0.  1.
         14    1    4    4    0    0  0.20755476667E+02  0.62194493227E+02 -0.25375584637E+02  0.70305512551E+02  0.00000000000E+00 0. -1.
         -5    1    5    5    0  502  0.43378141565E+02 -0.92173267184E+01 -0.24217557118E+02  0.50746451602E+02  0.47000000000E+01 0.  1.
         11    1    6    6    0    0 -0.16217957113E+02 -0.21040070062E+02  0.43773942651E+02  0.51204147648E+02  0.00000000000E+00 0. -1.
        -12    1    6    6    0    0 -0.77426378239E+02 -0.66665121314E+02 -0.13838757841E+02  0.10310477033E+03  0.00000000000E+00 0.  1.
</event>
<event>
12    1  0.8449700E-002  0.2171593E+03  0.7818608E-02  0.1136441E+00
         21   -1    0    0  503  502  0.00000000000E+00  0.00000000000E+00  0.52987608934E+03  0.52987608934E+03  0.00000000000E+00 0. -1.
         21   -1    0    0  501  503 -0.00000000000E+00 -0.00000000000E+00 -0.10138118641E+03  0.10138118641E+03  0.00000000000E+00 0. -1.
          6    2    1    2  501    0  0.12064873328E+03 -0.43372809973E+02  0.10093553121E+03  0.23947054950E+03  0.17527362931E+03 0.  0.
         24    2    3    3    0    0  0.12637001748E+03 -0.60434776040E+02  0.27076626717E+02  0.16330578369E+03  0.79460001248E+02 0.  0.
         -6    2    1    2    0  502 -0.12064873328E+03  0.43372809973E+02  0.32755937171E+03  0.39178672625E+03  0.17252356180E+03 0.  0.
        -24    2    5    5    0    0 -0.12834426408E+03  0.65273655521E+01  0.31803163561E+03  0.35267565717E+03  0.81982566977E+02 0.  0.
          5    1    3    3  501    0 -0.57212841922E+01  0.17061966067E+02  0.73858904496E+02  0.76164765819E+02  0.47000000000E+01 0. -1.
        -13    1    4    4    0    0 -0.59249424124E+01 -0.10493640810E+02  0.17929239255E+02  0.21602755850E+02  0.00000000000E+00 0.  1.
         14    1    4    4    0    0  0.13229495989E+03 -0.49941135230E+02  0.91473874622E+01  0.14170302784E+03  0.00000000000E+00 0. -1.
         -5    1    5    5    0  502  0.76955307949E+01  0.36845444421E+02  0.95277361015E+01  0.39111069073E+02  0.47000000000E+01 0.  1.
         11    1    6    6    0    0 -0.11116391370E+03  0.33075696860E+02  0.20754440875E+03  0.23775217988E+03  0.00000000000E+00 0. -1.
        -12    1    6    6    0    0 -0.17180350380E+02 -0.26548331308E+02  0.11048722686E+03  0.11492347729E+03  0.00000000000E+00 0.  1.
</event>
<event>
12    1  0.8449700E-002  0.3211370E+03  0.7818608E-02  0.1075140E+00
         21   -1    0    0  501  502  0.00000000000E+00  0.00000000000E+00  0.22081598760E+04  0.22081598760E+04  0.00000000000E+00 0. -1.
         21   -1    0    0  502  503 -0.00000000000E+00 -0.00000000000E+00 -0.59539607105E+02  0.59539607105E+02  0.00000000000E+00 0. -1.
         -6    2    1    2    0  503 -0.64209004295E+02  0.26355160937E+03  0.54765631021E+03  0.63486722045E+03  0.17189155436E+03 0.  0.
        -24    2    3    3    0    0 -0.93370514600E+02  0.16245005287E+03  0.26937582991E+03  0.33732052811E+03  0.78190333605E+02 0.  0.
          6    2    1    2  501    0  0.64209004295E+02 -0.26355160937E+03  0.16009639587E+04  0.16328322627E+04  0.17167805308E+03 0.  0.
         24    2    5    5    0    0  0.48563895194E+02 -0.50017935405E+02  0.48240775293E+03  0.49395936597E+03  0.80114726275E+02 0.  0.
          5    1    5    5  501    0  0.15645109101E+02 -0.21353367397E+03  0.11185562058E+04  0.11388728967E+04  0.47000000000E+01 0. -1.
        -13    1    6    6    0    0 -0.18520242782E+02 -0.20186494867E+02  0.71984313242E+02  0.77021005710E+02  0.00000000000E+00 0.  1.
         14    1    6    6    0    0  0.67084137975E+02 -0.29831440538E+02  0.41042343968E+03  0.41693836026E+03  0.00000000000E+00 0. -1.
         -5    1    3    3    0  503  0.29161510305E+02  0.10110155650E+03  0.27828048030E+03  0.29754669234E+03  0.47000000000E+01 0.  1.
         13    1    4    4    0    0 -0.41034323111E+02  0.13927766688E+03  0.18120751427E+03  0.23220303054E+03  0.00000000000E+00 0. -1.
        -14    1    4    4    0    0 -0.52336191490E+02  0.23172385993E+02  0.88168315646E+02  0.10511749757E+03  0.00000000000E+00 0.  1.
</event>
<event>
12    1  0.8449700E-002  0.2160911E+03  0.7818608E-02  0.1137137E+00
         21   -1    0    0  503  502  0.00000000000E+00  0.00000000000E+00  0.52097724993E+03  0.52097724993E+03  0.00000000000E+00 0.  1.
         21   -1    0    0  501  503 -0.00000000000E+00 -0.00000000000E+00 -0.89452498908E+02  0.89452498908E+02  0.00000000000E+00 0.  1.
          6    2    1    2  501    0 -0.10119664441E+03  0.82827115637E+02  0.23896511820E+03  0.32217956759E+03  0.17202980594E+03 0.  0.
         24    2    3    3    0    0 -0.19738501689E+02 -0.45490432915E+00  0.16476792459E+03  0.18398174777E+03  0.79441797247E+02 0.  0.
         -6    2    1    2    0  502  0.10119664441E+03 -0.82827115637E+02  0.19255963282E+03  0.28825018125E+03  0.17002312452E+03 0.  0.
        -24    2    5    5    0    0  0.73922539526E+02  0.16737521226E+02  0.80715237299E+02  0.13597328700E+03  0.78924639875E+02 0.  0.
          5    1    3    3  501    0 -0.81458142721E+02  0.83282019966E+02  0.74197193611E+02  0.13819781983E+03  0.47000000000E+01 0. -1.
        -11    1    4    4    0    0 -0.12931516420E+02  0.39378619880E+02  0.83435275272E+02  0.93163002207E+02  0.00000000000E+00 0.  1.
         12    1    4    4    0    0 -0.68069852696E+01 -0.39833524209E+02  0.81332649322E+02  0.90818745560E+02  0.00000000000E+00 0. -1.
         -5    1    5    5    0  502  0.27274104885E+02 -0.99564636863E+02  0.11184439552E+03  0.15227689424E+03  0.47000000000E+01 0.  1.
         13    1    6    6    0    0 -0.17560942673E+01 -0.17832812212E+02  0.38958695215E+02  0.42882082404E+02  0.00000000000E+00 0. -1.
        -14    1    6    6    0    0  0.75678633793E+02  0.34570333439E+02  0.41756542084E+02  0.93091204599E+02  0.00000000000E+00 0.  1.
</event>
<event>
12    1  0.8449700E-002  0.2047658E+03  0.7818608E-02  0.1146614E+00
         21   -1    0    0  501  502  0.00000000000E+00  0.00000000000E+00  0.21956440495E+03  0.21956440495E+03  0.00000000000E+00 0. -1.
         21   -1    0    0  502  503 -0.00000000000E+00 -0.00000000000E+00 -0.42922116465E+03  0.42922116465E+03  0.00000000000E+00 0. -1.
         -6    2    1    2    0  503 -0.35656043999E+02  0.10078097765E+03 -0.34885857136E+03  0.40451371781E+03  0.17464502900E+03 0.  0.
        -24    2    3    3    0    0 -0.80352928310E+02  0.11027646827E+03 -0.27091232733E+03  0.31403895466E+03  0.81298729378E+02 0.  0.
          6    2    1    2  501    0  0.35656043999E+02 -0.10078097765E+03  0.13920181166E+03  0.24427185178E+03  0.16989241970E+03 0.  0.
         24    2    5    5    0    0  0.77310534407E+02 -0.44284235442E+02  0.12514005472E+03  0.17253064006E+03  0.78541557303E+02 0.  0.
          5    1    5    5  501    0 -0.41654490409E+02 -0.56496742207E+02  0.14061756940E+02  0.71741211723E+02  0.47000000000E+01 0. -1.
        -11    1    6    6    0    0  0.13571616012E+01  0.13253096993E+02 -0.21833322672E+01  0.13500126196E+02  0.00000000000E+00 0.  1.
         12    1    6    6    0    0  0.75953372806E+02 -0.57537332435E+02  0.12732338699E+03  0.15903051386E+03  0.00000000000E+00 0. -1.
         -5    1    3    3    0  503  0.44696884311E+02 -0.94954906225E+01 -0.77946244034E+02  0.90474763157E+02  0.47000000000E+01 0.  1.
         11    1    4    4    0    0  0.99939246038E+01  0.94987572814E+01 -0.72883779140E+02  0.74176479969E+02  0.00000000000E+00 0. -1.
        -12    1    4    4    0    0 -0.90346852914E+02  0.10077771099E+03 -0.19802854819E+03  0.23986247469E+03  0.00000000000E+00 0.  1.
</event>
<event>
12    1  0.8449700E-002  0.1749010E+03  0.7818608E-02  0.1173063E+00
         21   -1    0    0  501  502  0.00000000000E+00  0.00000000000E+00  0.10425000819E+03  0.10425000819E+03  0.00000000000E+00 0.  1.
         21   -1    0    0  502  503 -0.00000000000E+00 -0.00000000000E+00 -0.39574351444E+03  0.39574351444E+03  0.00000000000E+00 0.  1.
         -6    2    1    2    0  503  0.93035853735E+01 -0.23237477192E+02 -0.27409812524E+03  0.32514634522E+03  0.17310062536E+03 0.  0.
        -24    2    3    3    0    0  0.11140535190E+02  0.32809085098E+02 -0.67322104391E+02  0.11084981158E+03  0.80962135586E+02 0.  0.
          6    2    1    2  501    0 -0.93035853735E+01  0.23237477192E+02 -0.17395381003E+02  0.17484717741E+03  0.17216968119E+03 0.  0.
         24    2    5    5    0    0  0.26539708558E+02  0.79359535162E+02 -0.16892458297E+02  0.10808813277E+03  0.66297792922E+02 0.  0.
          5    1    5    5  501    0 -0.35843293932E+02 -0.56122057970E+02 -0.50292270580E+00  0.66759044645E+02  0.47000000000E+01 0. -1.
        -13    1    6    6    0    0  0.39180498811E+02  0.36109698385E+02 -0.30017614780E+02  0.61156185309E+02  0.00000000000E+00 0.  1.
         14    1    6    6    0    0 -0.12640790253E+02  0.43249836777E+02  0.13125156483E+02  0.46931947458E+02  0.00000000000E+00 0. -1.
         -5    1    3    3    0  503 -0.18369498170E+01 -0.56046562290E+02 -0.20677602085E+03  0.21429653364E+03  0.47000000000E+01 0.  1.
         13    1    4    4    0    0  0.37354781760E+02  0.79560123886E+01 -0.64058314210E+02  0.74579792658E+02  0.00000000000E+00 0. -1.
        -14    1    4    4    0    0 -0.26214246570E+02  0.24853072710E+02 -0.32637901808E+01  0.36270018923E+02  0.00000000000E+00 0.  1.
</event>
<event>
12    1  0.8449700E-002  0.2085149E+03  0.7818608E-02  0.1142855E+00
         21   -1    0    0  501  502  0.00000000000E+00  0.00000000000E+00  0.48342352842E+03  0.48342352842E+03  0.00000000000E+00 0.  1.
         21   -1    0    0  502  503 -0.00000000000E+00 -0.00000000000E+00 -0.13399079137E+03  0.13399079137E+03  0.00000000000E+00 0.  1.
         -6    2    1    2    0  503 -0.90309592103E+02  0.76013237727E+02  0.35233766361E+03  0.40941455597E+03  0.17188546973E+03 0.  0.
        -24    2    3    3    0    0 -0.45373595684E+02  0.10702006976E+03  0.31322499048E+03  0.34209027650E+03  0.73510571334E+02 0.  0.
          6    2    1    2  501    0  0.90309592103E+02 -0.76013237727E+02 -0.29049265619E+01  0.20799976383E+03  0.17123559331E+03 0.  0.
         24    2    5    5    0    0 -0.13956981428E+02 -0.38548066249E+01 -0.11498491720E+02  0.80821554618E+02  0.78678151442E+02 0.  0.
          5    1    5    5  501    0  0.10426657353E+03 -0.72158431102E+02  0.85935651582E+01  0.12717820921E+03  0.47000000000E+01 0. -1.
        -11    1    6    6    0    0  0.17623524060E+02 -0.32730785895E+02 -0.41763761311E+01  0.37407687220E+02  0.00000000000E+00 0.  1.
         12    1    6    6    0    0 -0.31580505488E+02  0.28875979270E+02 -0.73221155890E+01  0.43413867398E+02  0.00000000000E+00 0. -1.
         -5    1    3    3    0  503 -0.44935996419E+02 -0.31006832028E+02  0.39112673124E+02  0.67324279465E+02  0.47000000000E+01 0.  1.
         11    1    4    4    0    0 -0.44650071044E+02  0.31951778949E+02  0.79592898105E+02  0.96693197543E+02  0.00000000000E+00 0. -1.
        -12    1    4    4    0    0 -0.72352463993E+00  0.75068290806E+02  0.23363209238E+03  0.24539707896E+03  0.00000000000E+00 0.  1.
</event>
<event>
12    1  0.8449700E-002  0.1812117E+03  0.7818608E-02  0.1166713E+00
         21   -1    0    0  501  502  0.00000000000E+00  0.00000000000E+00  0.17247984868E+04  0.17247984868E+04  0.00000000000E+00 0. -1.
         21   -1    0    0  502  503 -0.00000000000E+00 -0.00000000000E+00 -0.20032537333E+02  0.20032537333E+02  0.00000000000E+00 0. -1.
         -6    2    1    2    0  503  0.18252636811E+02 -0.53817310052E+02  0.10507376202E+04  0.10662491383E+04  0.17207038377E+03 0.  0.
        -24    2    3    3    0    0  0.57966743250E+02 -0.84830178103E+02  0.74661496675E+03  0.75794460293E+03  0.80559357583E+02 0.  0.
          6    2    1    2  501    0 -0.18252636811E+02  0.53817310052E+02  0.65402832935E+03  0.67858188584E+03  0.17172902663E+03 0.  0.
         24    2    5    5    0    0 -0.20307711580E+02 -0.20022394310E+02  0.50700064093E+03  0.51397399893E+03  0.79412355744E+02 0.  0.
          5    1    5    5  501    0  0.20550747690E+01  0.73839704362E+02  0.14702768842E+03  0.16460788691E+03  0.47000000000E+01 0. -1.
        -13    1    6    6    0    0 -0.49956506903E+02 -0.12983497562E+02  0.37285246611E+03  0.37640826940E+03  0.00000000000E+00 0.  1.
         14    1    6    6    0    0  0.29648795323E+02 -0.70388967477E+01  0.13414817483E+03  0.13756572953E+03  0.00000000000E+00 0. -1.
         -5    1    3    3    0  503 -0.39714106439E+02  0.31012868050E+02  0.30412265341E+03  0.30830453540E+03  0.47000000000E+01 0.  1.
         11    1    4    4    0    0  0.36571572333E+02 -0.82667558318E+01  0.42498528183E+03  0.42663603801E+03  0.00000000000E+00 0. -1.
        -12    1    4    4    0    0  0.21395170917E+02 -0.76563422271E+02  0.32162968492E+03  0.33130856492E+03  0.00000000000E+00 0.  1.
</event>
<event>
12    1  0.8449700E-002  0.3849860E+03  0.7818608E-02  0.1049130E+00
         21   -1    0    0  501  502  0.00000000000E+00  0.00000000000E+00  0.12692711734E+04  0.12692711734E+04  0.00000000000E+00 0.  1.
         21   -1    0    0  502  503 -0.00000000000E+00 -0.00000000000E+00 -0.14312126574E+03  0.14312126574E+03  0.00000000000E+00 0. -1.
         -6    2    1    2    0  503  0.54620928935E+02  0.34017584786E+03  0.25975379129E+03  0.46442037516E+03  0.17178824008E+03 0.  0.
        -24    2    3    3    0    0 -0.18562982170E+02  0.20114388514E+03  0.20260328623E+03  0.29716595301E+03  0.80349643417E+02 0.  0.
          6    2    1    2  501    0 -0.54620928935E+02 -0.34017584786E+03  0.86639611635E+03  0.94797206395E+03  0.17118922356E+03 0.  0.
         24    2    5    5    0    0 -0.86317300287E+02 -0.15364809849E+03  0.48228113627E+03  0.51976222151E+03  0.80617975717E+02 0.  0.
          5    1    5    5  501    0  0.31696371351E+02 -0.18652774937E+03  0.38411498007E+03  0.42820984244E+03  0.47000000000E+01 0. -1.
        -13    1    6    6    0    0  0.40679573151E+01 -0.27172506230E+02  0.15527188442E+03  0.15768402412E+03  0.00000000000E+00 0.  1.
         14    1    6    6    0    0 -0.90385257602E+02 -0.12647559226E+03  0.32700925185E+03  0.36207819739E+03  0.00000000000E+00 0. -1.
         -5    1    3    3    0  503  0.73183911105E+02  0.13903196271E+03  0.57150505054E+02  0.16725442215E+03  0.47000000000E+01 0.  1.
         13    1    4    4    0    0 -0.41237212014E+02  0.13441917922E+03  0.99371477267E+02  0.17217349939E+03  0.00000000000E+00 0. -1.
        -14    1    4    4    0    0  0.22674229845E+02  0.66724705919E+02  0.10323180897E+03  0.12499245362E+03  0.00000000000E+00 0.  1.
</event>
<event>
12    1  0.8449700E-002  0.1855268E+03  0.7818608E-02  0.1162768E+00
         21   -1    0    0  503  502  0.00000000000E+00  0.00000000000E+00  0.90750065201E+03  0.90750065201E+03  0.00000000000E+00 0. -1.
         21   -1    0    0  501  503 -0.00000000000E+00 -0.00000000000E+00 -0.11473619510E+03  0.11473619510E+03  0.00000000000E+00 0. -1.
          6    2    1    2  501    0  0.63599160765E+02 -0.23628576869E+02 -0.21989629695E+02  0.18682543097E+03  0.17267609837E+03 0.  0.
         24    2    3    3    0    0  0.82830215941E+02  0.55407711853E+01  0.34708203691E+02  0.12006152860E+03  0.79489410795E+02 0.  0.
         -6    2    1    2    0  502 -0.63599160765E+02  0.23628576869E+02  0.81475408661E+03  0.83541141614E+03  0.17171153041E+03 0.  0.
        -24    2    5    5    0    0 -0.49683812335E+02  0.60698779683E+02  0.75010983089E+03  0.75945875551E+03  0.89218943430E+02 0.  0.
          5    1    3    3  501    0 -0.19231055176E+02 -0.29169348054E+02 -0.56697833386E+02  0.66763902371E+02  0.47000000000E+01 0. -1.
        -13    1    4    4    0    0 -0.56875247761E+01 -0.16755727353E+02 -0.78350871491E+01  0.19351768080E+02  0.00000000000E+00 0.  1.
         14    1    4    4    0    0  0.88517740717E+02  0.22296498538E+02  0.42543290840E+02  0.10070976052E+03  0.00000000000E+00 0. -1.
         -5    1    5    5    0  502 -0.13915348430E+02 -0.37070202814E+02  0.64644255718E+02  0.75952660625E+02  0.47000000000E+01 0.  1.
         11    1    6    6    0    0  0.24919549910E+02  0.19543905707E+02  0.14799198496E+03  0.15134257771E+03  0.00000000000E+00 0. -1.
        -12    1    6    6    0    0 -0.74603362245E+02  0.41154873976E+02  0.60211784593E+03  0.60811617780E+03  0.00000000000E+00 0.  1.
</event>
<event>
12    1  0.8449700E-002  0.2023656E+03  0.7818608E-02  0.1149106E+00
         21   -1    0    0  501  502  0.00000000000E+00  0.00000000000E+00  0.55296904507E+03  0.55296904507E+03  0.00000000000E+00 0. -1.
         21   -1    0    0  502  503 -0.00000000000E+00 -0.00000000000E+00 -0.26917215155E+03  0.26917215155E+03  0.00000000000E+00 0.  1.
         -6    2    1    2    0  503 -0.93379837827E+02  0.51159175984E+01 -0.20953651663E+03  0.29130294719E+03  0.17945999140E+03 0.  0.
        -24    2    3    3    0    0  0.15413198205E+02 -0.29173148883E+02 -0.85736316349E+02  0.12289794620E+03  0.81636694836E+02 0.  0.
          6    2    1    2  501    0  0.93379837827E+02 -0.51159175984E+01  0.49333341014E+03  0.53083824944E+03  0.17223654309E+03 0.  0.
         24    2    5    5    0    0 -0.78787512459E+01 -0.42155411949E+02  0.23631515799E+03  0.25208083170E+03  0.76555459225E+02 0.  0.
          5    1    5    5  501    0  0.10125858907E+03  0.37039494350E+02  0.25701825215E+03  0.27875741773E+03  0.47000000000E+01 0. -1.
        -11    1    6    6    0    0  0.32521146244E+02 -0.17022005211E+02  0.13888119553E+03  0.14365013083E+03  0.00000000000E+00 0.  1.
         12    1    6    6    0    0 -0.40399897490E+02 -0.25133406738E+02  0.97433962465E+02  0.10843070088E+03  0.00000000000E+00 0. -1.
         -5    1    3    3    0  503 -0.10879303603E+03  0.34289066482E+02 -0.12380020028E+03  0.16840500099E+03  0.47000000000E+01 0.  1.
         13    1    4    4    0    0  0.42397186442E+02 -0.10550890584E+02 -0.17257503678E+02  0.46975143890E+02  0.00000000000E+00 0. -1.
        -14    1    4    4    0    0 -0.26983988237E+02 -0.18622258299E+02 -0.68478812671E+02  0.75922802307E+02  0.00000000000E+00 0.  1.
</event>
<event>
12    1  0.8449700E-002  0.3155443E+03  0.7818608E-02  0.1077791E+00
         21   -1    0    0  501  502  0.00000000000E+00  0.00000000000E+00  0.58235451281E+03  0.58235451281E+03  0.00000000000E+00 0. -1.
         21   -1    0    0  502  503 -0.00000000000E+00 -0.00000000000E+00 -0.20152041572E+03  0.20152041572E+03  0.00000000000E+00 0.  1.
         -6    2    1    2    0  503  0.25252995190E+03  0.79934805458E+02  0.37146064649E+02  0.31772322813E+03  0.17148547998E+03 0.  0.
        -24    2    3    3    0    0  0.21819381401E+03  0.15051407344E+02  0.62146873940E+02  0.24003181173E+03  0.76928222198E+02 0.  0.
          6    2    1    2  501    0 -0.25252995190E+03 -0.79934805458E+02  0.34368803244E+03  0.46615170040E+03  0.17033788308E+03 0.  0.
         24    2    5    5    0    0 -0.22676855499E+03 -0.10482757067E+03  0.34067672898E+03  0.42989625557E+03  0.79607535965E+02 0.  0.
          5    1    5    5  501    0 -0.25761396916E+02  0.24892765215E+02  0.30113034580E+01  0.36255444827E+02  0.47000000000E+01 0. -1.
        -13    1    6    6    0    0 -0.46656705688E+02 -0.50121209801E+02  0.55242213747E+02  0.87981168651E+02  0.00000000000E+00 0.  1.
         14    1    6    6    0    0 -0.18011184930E+03 -0.54706360871E+02  0.28543451523E+03  0.34191508692E+03  0.00000000000E+00 0. -1.
         -5    1    3    3    0  503  0.34336137897E+02  0.64883398114E+02 -0.25000809292E+02  0.77691416397E+02  0.47000000000E+01 0.  1.
         11    1    4    4    0    0  0.15522912763E+03  0.34557394499E+02  0.69798206286E+02  0.17367235008E+03  0.00000000000E+00 0. -1.
        -12    1    4    4    0    0  0.62964686372E+02 -0.19505987155E+02 -0.76513323451E+01  0.66359461658E+02  0.00000000000E+00 0.  1.
</event>
<event>
12    1  0.8449700E-002  0.1933031E+03  0.7818608E-02  0.1155566E+00
         21   -1    0    0  503  502  0.00000000000E+00  0.00000000000E+00  0.95967765193E+03  0.95967765193E+03  0.00000000000E+00 0.  1.
         21   -1    0    0  501  503 -0.00000000000E+00 -0.00000000000E+00 -0.83166379542E+02  0.83166379542E+02  0.00000000000E+00 0.  1.
          6    2    1    2  501    0 -0.17526372196E+02  0.86471058570E+02  0.57923945764E+02  0.20179509776E+03  0.17199319840E+03 0.  0.
         24    2    3    3    0    0 -0.34528812993E+02  0.87321508880E+01 -0.18720727806E+02  0.91210665100E+02  0.81856156717E+02 0.  0.
         -6    2    1    2    0  502  0.17526372196E+02 -0.86471058570E+02  0.81858732662E+03  0.84104893371E+03  0.17173724085E+03 0.  0.
        -24    2    5    5    0    0 -0.12767181318E+02 -0.12129983621E+03  0.58545035176E+03  0.60333969496E+03  0.79937612922E+02 0.  0.
          5    1    3    3  501    0  0.17002440796E+02  0.77738907682E+02  0.76644673571E+02  0.11058443266E+03  0.47000000000E+01 0. -1.
        -11    1    4    4    0    0 -0.29273399698E+02  0.42760204244E+02  0.40852613195E+00  0.51822137070E+02  0.00000000000E+00 0.  1.
         12    1    4    4    0    0 -0.52554132941E+01 -0.34028053356E+02 -0.19129253938E+02  0.39388528030E+02  0.00000000000E+00 0. -1.
         -5    1    5    5    0  502  0.30293553514E+02  0.34828777642E+02  0.23313697487E+03  0.23770923875E+03  0.47000000000E+01 0.  1.
         13    1    6    6    0    0 -0.29088590590E+02 -0.10731275009E+02  0.82832977574E+02  0.88445511699E+02  0.00000000000E+00 0. -1.
        -14    1    6    6    0    0  0.16321409273E+02 -0.11056856120E+03  0.50261737418E+03  0.51489418326E+03  0.00000000000E+00 0.  1.
</event>
<event>
12    1  0.8449700E-002  0.1874582E+03  0.7818608E-02  0.1162402E+00
         21   -1    0    0  503  502  0.00000000000E+00  0.00000000000E+00  0.24046305539E+03  0.24046305539E+03  0.00000000000E+00 0. -1.
         21   -1    0    0  501  503 -0.00000000000E+00 -0.00000000000E+00 -0.34071816999E+03  0.34071816999E+03  0.00000000000E+00 0. -1.
          6    2    1    2  501    0 -0.76470746988E+02  0.20128713285E+02 -0.27311178887E+03  0.33125614448E+03  0.16996365434E+03 0.  0.
         24    2    3    3    0    0 -0.10330422121E+02  0.39663715390E+02 -0.23707203371E+03  0.25330030549E+03  0.79233627056E+02 0.  0.
         -6    2    1    2    0  502  0.76470746988E+02 -0.20128713285E+02  0.17285667426E+03  0.24992508090E+03  0.16226575727E+03 0.  0.
        -24    2    5    5    0    0  0.10677978835E+03  0.13510433472E+02  0.13807922349E+03  0.19263816036E+03  0.80368736797E+02 0.  0.
          5    1    3    3  501    0 -0.66140324868E+02 -0.19535002105E+02 -0.36039755162E+02  0.77955838992E+02  0.47000000000E+01 0. -1.
        -11    1    4    4    0    0 -0.34655014966E+01  0.50789658732E+02 -0.74668187054E+02  0.90371108728E+02  0.00000000000E+00 0.  1.
         12    1    4    4    0    0 -0.68649206241E+01 -0.11125943343E+02 -0.16240384665E+03  0.16292919676E+03  0.00000000000E+00 0. -1.
         -5    1    5    5    0  502 -0.30309041362E+02 -0.33639146757E+02  0.34777450770E+02  0.57286920540E+02  0.47000000000E+01 0.  1.
         13    1    6    6    0    0  0.78973112270E+02  0.39346752325E+02  0.12392938019E+03  0.15212958507E+03  0.00000000000E+00 0. -1.
        -14    1    6    6    0    0  0.27806676081E+02 -0.25836318852E+02  0.14149843304E+02  0.40508575290E+02  0.00000000000E+00 0.  1.
</event>
<event>
12    1  0.8449700E-002  0.2622266E+03  0.7818608E-02  0.1105836E+00
         21   -1    0    0  501  502  0.00000000000E+00  0.00000000000E+00  0.87836503553E+02  0.87836503553E+02  0.00000000000E+00 0.  1.
         21   -1    0    0  502  503 -0.00000000000E+00 -0.00000000000E+00 -0.78461030541E+03  0.78461030541E+03  0.00000000000E+00 0. -1.
         -6    2    1    2    0  503 -0.18677404230E+03 -0.66528273741E+02 -0.37151415111E+03  0.45464705170E+03  0.17137859570E+03 0.  0.
        -24    2    3    3    0    0 -0.50589501981E+02 -0.37124391472E+02 -0.24245152483E+03  0.26467318820E+03  0.85624975932E+02 0.  0.
          6    2    1    2  501    0  0.18677404230E+03  0.66528273741E+02 -0.32525965075E+03  0.41779975726E+03  0.17161655713E+03 0.  0.
         24    2    5    5    0    0  0.92040948809E+02  0.67588045389E+02 -0.94426001231E+02  0.16823664728E+03  0.79671950151E+02 0.  0.
          5    1    5    5  501    0  0.94733093488E+02 -0.10597716481E+01 -0.23083364952E+03  0.24956310999E+03  0.47000000000E+01 0. -1.
        -13    1    6    6    0    0  0.87832135508E+02  0.32349933547E+02 -0.94131424494E+02  0.13274685422E+03  0.00000000000E+00 0.  1.
         14    1    6    6    0    0  0.42088133014E+01  0.35238111842E+02 -0.29457673638E+00  0.35489793054E+02  0.00000000000E+00 0. -1.
         -5    1    3    3    0  503 -0.13618454032E+03 -0.29403882269E+02 -0.12906262628E+03  0.18997386351E+03  0.47000000000E+01 0.  1.
         13    1    4    4    0    0 -0.59289617859E+02 -0.30226186259E+02 -0.90595787391E+02  0.11241208927E+03  0.00000000000E+00 0. -1.
        -14    1    4    4    0    0  0.87001158784E+01 -0.68982052127E+01 -0.15185573744E+03  0.15226109892E+03  0.00000000000E+00 0.  1.
</event>
<event>
12    1  0.8449700E-002  0.2030480E+03  0.7818608E-02  0.1148475E+00
         21   -1    0    0  501  502  0.00000000000E+00  0.00000000000E+00  0.19011644689E+03  0.19011644689E+03  0.00000000000E+00 0.  1.
         21   -1    0    0  502  503 -0.00000000000E+00 -0.00000000000E+00 -0.23647888746E+03  0.23647888746E+03  0.00000000000E+00 0.  1.
         -6    2    1    2    0  503 -0.40152225289E+02 -0.88069201068E+02 -0.93701678726E+02  0.21810195608E+03  0.17152280688E+03 0.  0.
        -24    2    3    3    0    0 -0.89561492142E+02 -0.56936547378E+02 -0.51471553709E+02  0.14588013642E+03  0.85840911331E+02 0.  0.
          6    2    1    2  501    0  0.40152225289E+02  0.88069201068E+02  0.47339238154E+02  0.20849337826E+03  0.17849397731E+03 0.  0.
         24    2    5    5    0    0  0.79648757458E+02  0.74481280989E+02  0.79935247852E+02  0.15530317734E+03  0.76407115252E+02 0.  0.
          5    1    5    5  501    0 -0.39496532169E+02  0.13587920079E+02 -0.32596009698E+02  0.53190200918E+02  0.47000000000E+01 0. -1.
        -13    1    6    6    0    0  0.90763651479E+01  0.40451369711E+02 -0.25543312768E+01  0.41535747544E+02  0.00000000000E+00 0.  1.
         14    1    6    6    0    0  0.70572392310E+02  0.34029911278E+02  0.82489579129E+02  0.11376742980E+03  0.00000000000E+00 0. -1.
         -5    1    3    3    0  503  0.49409266853E+02 -0.31132653690E+02 -0.42230125017E+02  0.72221819665E+02  0.47000000000E+01 0.  1.
         11    1    4    4    0    0  0.14971859853E+02  0.38867555337E+01 -0.41914306331E+01  0.16025964770E+02  0.00000000000E+00 0. -1.
        -12    1    4    4    0    0 -0.10453335200E+03 -0.60823302912E+02 -0.47280123075E+02  0.12985417165E+03  0.00000000000E+00 0.  1.
</event>
<event>
12    1  0.8449700E-002  0.2011019E+03  0.7818608E-02  0.1149169E+00
         21   -1    0    0  501  502  0.00000000000E+00  0.00000000000E+00  0.47402360707E+03  0.47402360707E+03  0.00000000000E+00 0.  1.
         21   -1    0    0  502  503 -0.00000000000E+00 -0.00000000000E+00 -0.85099466162E+02  0.85099466162E+02  0.00000000000E+00 0.  1.
         -6    2    1    2    0  503  0.22139788750E+02 -0.98496077254E+02  0.17221762690E+03  0.26348193701E+03  0.17196561468E+03 0.  0.
        -24    2    3    3    0    0  0.16419550396E+02 -0.83492689545E+01  0.14911270517E+03  0.17012726074E+03  0.79808358422E+02 0.  0.
          6    2    1    2  501    0 -0.22139788750E+02  0.98496077254E+02  0.21670651401E+03  0.29564113623E+03  0.17392619336E+03 0.  0.
         24    2    5    5    0    0 -0.60627944608E+02  0.30199096010E+01  0.98162332829E+02  0.13856838359E+03  0.76684325790E+02 0.  0.
          5    1    5    5  501    0  0.38488155858E+02  0.95476167653E+02  0.11854418118E+03  0.15707275264E+03  0.47000000000E+01 0. -1.
        -13    1    6    6    0    0 -0.30091931476E+02  0.17702852625E+02  0.98688016780E+02  0.10468161246E+03  0.00000000000E+00 0.  1.
         14    1    6    6    0    0 -0.30536013132E+02 -0.14682943024E+02 -0.52568395110E+00  0.33886771127E+02  0.00000000000E+00 0. -1.
         -5    1    3    3    0  503  0.57202383535E+01 -0.90146808300E+02  0.23104921729E+02  0.93354676270E+02  0.47000000000E+01 0.  1.
         13    1    4    4    0    0 -0.15790294474E+02 -0.20169963954E+02  0.11106214432E+02  0.27919685609E+02  0.00000000000E+00 0. -1.
        -14    1    4    4    0    0  0.32209844870E+02  0.11820694999E+02  0.13800649074E+03  0.14220757513E+03  0.00000000000E+00 0.  1.
</event>
<event>
12    1  0.8449700E-002  0.1942267E+03  0.7818608E-02  0.1157282E+00
         21   -1    0    0  503  502  0.00000000000E+00  0.00000000000E+00  0.45648020876E+03  0.45648020876E+03  0.00000000000E+00 0.  1.
         21   -1    0    0  501  503 -0.00000000000E+00 -0.00000000000E+00 -0.82449778919E+02  0.82449778919E+02  0.00000000000E+00 0. -1.
          6    2    1    2  501    0 -0.18246611800E+02 -0.87727646571E+02  0.24519325994E+03  0.30585700188E+03  0.15937280841E+03 0.  0.
         24    2    3    3    0    0 -0.43336854741E+02 -0.11267377271E+03  0.17558681190E+03  0.22763311097E+03  0.80078977639E+02 0.  0.
         -6    2    1    2    0  502  0.18246611800E+02  0.87727646571E+02  0.12883716990E+03  0.23307298580E+03  0.17232214468E+03 0.  0.
        -24    2    5    5    0    0 -0.41043741378E+02  0.65951494806E+02  0.25495886628E+02  0.11186631274E+03  0.76353410653E+02 0.  0.
          5    1    3    3  501    0  0.25090242941E+02  0.24946126140E+02  0.69606448040E+02  0.78223890909E+02  0.47000000000E+01 0. -1.
        -11    1    4    4    0    0 -0.61440606094E+02 -0.55534086885E+02  0.12055970729E+03  0.14626560055E+03  0.00000000000E+00 0.  1.
         12    1    4    4    0    0  0.18103751353E+02 -0.57139685826E+02  0.55027104615E+02  0.81367510419E+02  0.00000000000E+00 0. -1.
         -5    1    5    5    0  502  0.59290353178E+02  0.21776151765E+02  0.10334128327E+03  0.12120667306E+03  0.47000000000E+01 0.  1.
         13    1    6    6    0    0 -0.11370784241E+02  0.16001925904E+01 -0.23198870529E+02  0.25885187741E+02  0.00000000000E+00 0. -1.
        -14    1    6    6    0    0 -0.29672957137E+02  0.64351302216E+02  0.48694757156E+02  0.85981125002E+02  0.00000000000E+00 0.  1.
</event>
<event>
12    1  0.8449700E-002  0.2706128E+03  0.7818608E-02  0.1101057E+00
         21   -1    0    0  503  502  0.00000000000E+00  0.00000000000E+00  0.27328265023E+03  0.27328265023E+03  0.00000000000E+00 0.  1.
         21   -1    0    0  501  503 -0.00000000000E+00 -0.00000000000E+00 -0.46276626461E+03  0.46276626461E+03  0.00000000000E+00 0. -1.
          6    2    1    2  501    0  0.20671486711E+03  0.25342853258E+02 -0.33414808324E+03  0.42998401514E+03  0.17279471998E+03 0.  0.
         24    2    3    3    0    0  0.17156113362E+03  0.79826123811E+02 -0.26583979050E+03  0.33568489211E+03  0.78791623704E+02 0.  0.
         -6    2    1    2    0  502 -0.20671486711E+03 -0.25342853258E+02  0.14466446886E+03  0.30606489970E+03  0.17139024996E+03 0.  0.
        -24    2    5    5    0    0 -0.85296359695E+02  0.22105653610E+02  0.10280598852E+02  0.11878188054E+03  0.78989338093E+02 0.  0.
          5    1    3    3  501    0  0.35153733492E+02 -0.54483270552E+02 -0.68308292738E+02  0.94299123036E+02  0.47000000000E+01 0. -1.
        -11    1    4    4    0    0  0.21235664280E+02  0.44496977110E+02 -0.81034743048E+02  0.94855490038E+02  0.00000000000E+00 0.  1.
         12    1    4    4    0    0  0.15032546934E+03  0.35329146700E+02 -0.18480504745E+03  0.24082940207E+03  0.00000000000E+00 0. -1.
         -5    1    5    5    0  502 -0.12141850742E+03 -0.47448506868E+02  0.13438387001E+03  0.18728301916E+03  0.47000000000E+01 0.  1.
         11    1    6    6    0    0 -0.96214026875E+02  0.17573967997E+02  0.23964812086E+02  0.10069903444E+03  0.00000000000E+00 0. -1.
        -12    1    6    6    0    0  0.10917667180E+02  0.45316856132E+01 -0.13684213234E+02  0.18082846097E+02  0.00000000000E+00 0.  1.
</event>
<event>
12    1  0.8449700E-002  0.3577455E+03  0.7818608E-02  0.1059713E+00
         21   -1    0    0  501  502  0.00000000000E+00  0.00000000000E+00  0.12463548921E+04  0.12463548921E+04  0.00000000000E+00 0. -1.
         21   -1    0    0  502  503 -0.00000000000E+00 -0.00000000000E+00 -0.11131133544E+03  0.11131133544E+03  0.00000000000E+00 0. -1.
         -6    2    1    2    0  503  0.29319511820E+03 -0.10543266543E+03  0.76195875912E+03  0.84077738163E+03  0.17101470868E+03 0.  0.
        -24    2    3    3    0    0  0.31163753552E+03 -0.93693278286E+02  0.73324691706E+03  0.80438513188E+03  0.59059419866E+02 0.  0.
          6    2    1    2  501    0 -0.29319511820E+03  0.10543266543E+03  0.37308479750E+03  0.51688884587E+03  0.17579075227E+03 0.  0.
         24    2    5    5    0    0 -0.31098479343E+03  0.86910195488E+02  0.34613169912E+03  0.47936400144E+03  0.75615930282E+02 0.  0.
          5    1    5    5  501    0  0.17789675230E+02  0.18522469946E+02  0.26953098379E+02  0.37524844436E+02  0.47000000000E+01 0. -1.
        -13    1    6    6    0    0 -0.12094674941E+03  0.40424339554E+02  0.85745000849E+02  0.15366993392E+03  0.00000000000E+00 0.  1.
         14    1    6    6    0    0 -0.19003804402E+03  0.46485855934E+02  0.26038669827E+03  0.32569406751E+03  0.00000000000E+00 0. -1.
         -5    1    3    3    0  503 -0.18442417321E+02 -0.11739387148E+02  0.28711842065E+02  0.36392249752E+02  0.47000000000E+01 0.  1.
         11    1    4    4    0    0  0.12223214103E+03 -0.48633831991E+02  0.36241217711E+03  0.38554964925E+03  0.00000000000E+00 0. -1.
        -12    1    4    4    0    0  0.18940539449E+03 -0.45059446296E+02  0.37083473995E+03  0.41883548264E+03  0.00000000000E+00 0.  1.
</event>
<event>
12    1  0.8449700E-002  0.1964111E+03  0.7818608E-02  0.1156458E+00
         21   -1    0    0  501  502  0.00000000000E+00  0.00000000000E+00  0.43496802410E+03  0.43496802410E+03  0.00000000000E+00 0. -1.
         21   -1    0    0  502  503 -0.00000000000E+00 -0.00000000000E+00 -0.91933909198E+02  0.91933909198E+02  0.00000000000E+00 0. -1.
         -6    2    1    2    0  503  0.13505465770E+02 -0.90929558239E+02  0.89532438812E+02  0.21585496927E+03  0.17357052742E+03 0.  0.
        -24    2    3    3    0    0 -0.95315230421E+01 -0.12870940396E+03  0.65757638643E+02  0.16540350031E+03  0.79857938095E+02 0.  0.
          6    2    1    2  501    0 -0.13505465770E+02  0.90929558239E+02  0.25350167609E+03  0.31104696403E+03  0.15503719517E+03 0.  0.
         24    2    5    5    0    0 -0.17314650854E+02  0.33270582008E+02  0.52096381301E+02  0.10146344798E+03  0.78575247822E+02 0.  0.
          5    1    5    5  501    0  0.38091850839E+01  0.57658976231E+02  0.20140529479E+03  0.20958351605E+03  0.47000000000E+01 0. -1.
        -13    1    6    6    0    0 -0.32537785825E+02  0.46986028773E+02  0.15006116432E+02  0.59089575533E+02  0.00000000000E+00 0.  1.
         14    1    6    6    0    0  0.15223134971E+02 -0.13715446765E+02  0.37090264869E+02  0.42373872449E+02  0.00000000000E+00 0. -1.
         -5    1    3    3    0  503  0.23036988812E+02  0.37779845722E+02  0.23774800169E+02  0.50451468952E+02  0.47000000000E+01 0.  1.
         13    1    4    4    0    0 -0.17373374447E+02 -0.10536733549E+03  0.83076392520E+02  0.13529891545E+03  0.00000000000E+00 0. -1.
        -14    1    4    4    0    0  0.78418514053E+01 -0.23342068468E+02 -0.17318753877E+02  0.30104584861E+02  0.00000000000E+00 0.  1.
</event>
<event>
12    1  0.8449700E-002  0.1803998E+03  0.7818608E-02  0.1168435E+00
         21   -1    0    0  503  502  0.00000000000E+00  0.00000000000E+00  0.14279785762E+03  0.14279785762E+03  0.00000000000E+00 0.  1.
         21   -1    0    0  501  503 -0.00000000000E+00 -0.00000000000E+00 -0.22781228418E+03  0.22781228418E+03  0.00000000000E+00 0.  1.
          6    2    1    2  501    0 -0.35905329766E+02  0.48073965360E+01 -0.70831977263E+02  0.19380723452E+03  0.17672512946E+03 0.  0.
         24    2    3    3    0    0 -0.72671465689E+02 -0.95639055414E+01  0.23439397022E+01  0.11053005939E+03  0.82696975518E+02 0.  0.
         -6    2    1    2    0  502  0.35905329766E+02 -0.48073965360E+01 -0.14182449296E+02  0.17680290728E+03  0.17246977238E+03 0.  0.
        -24    2    5    5    0    0  0.46496725711E+02  0.31687748958E+02  0.44542585563E+02  0.10669732239E+03  0.78957062641E+02 0.  0.
          5    1    3    3  501    0  0.36766135923E+02  0.14371302077E+02 -0.73175916966E+02  0.83277175131E+02  0.47000000000E+01 0. -1.
        -11    1    4    4    0    0 -0.44796064380E+01  0.56653021208E+01 -0.31907553711E+02  0.32714744471E+02  0.00000000000E+00 0.  1.
         12    1    4    4    0    0 -0.68191859251E+02 -0.15229207662E+02  0.34251493414E+02  0.77815314914E+02  0.00000000000E+00 0. -1.
         -5    1    5    5    0  502 -0.10591395944E+02 -0.36495145494E+02 -0.58725034859E+02  0.70105584884E+02  0.47000000000E+01 0.  1.
         13    1    6    6    0    0  0.19907362663E+02 -0.26075291072E+02  0.98109412681E+01  0.34241472826E+02  0.00000000000E+00 0. -1.
        -14    1    6    6    0    0  0.26589363047E+02  0.57763040030E+02  0.34731644295E+02  0.72455849566E+02  0.00000000000E+00 0.  1.
</event>
<event>
12    1  0.8449700E-002  0.2228020E+03  0.7818608E-02  0.1131936E+00
         21   -1    0    0  501  502  0.00000000000E+00  0.00000000000E+00  0.53923106103E+03  0.53923106103E+03  0.00000000000E+00 0. -1.
         21   -1    0    0  502  503 -0.00000000000E+00 -0.00000000000E+00 -0.19867579936E+03  0.19867579936E+03  0.00000000000E+00 0.  1.
         -6    2    1    2    0  503 -0.95905030586E+02 -0.10416540307E+03 -0.10047764547E+03  0.24379070776E+03  0.17114305671E+03 0.  0.
        -24    2    3    3    0    0 -0.76686990603E+02 -0.13495922259E+03 -0.10879821740E+03  0.20625520059E+03  0.81297413052E+02 0.  0.
          6    2    1    2  501    0  0.95905030586E+02  0.10416540307E+03  0.44103290714E+03  0.49411615263E+03  0.17202482675E+03 0.  0.
         24    2    5    5    0    0  0.21730294595E+02 -0.69856766261E+01  0.11427856464E+03  0.14106241122E+03  0.79485899015E+02 0.  0.
          5    1    5    5  501    0  0.74174735991E+02  0.11115107970E+03  0.32675434251E+03  0.35305374141E+03  0.47000000000E+01 0. -1.
        -11    1    6    6    0    0 -0.15814115986E+01 -0.35113636681E+02  0.91478652612E+02  0.97999041972E+02  0.00000000000E+00 0.  1.
         12    1    6    6    0    0  0.23311706194E+02  0.28127960055E+02  0.22799912024E+02  0.43063369246E+02  0.00000000000E+00 0. -1.
         -5    1    3    3    0  503 -0.19218039983E+02  0.30793819518E+02  0.83205719275E+01  0.37535507170E+02  0.47000000000E+01 0.  1.
         13    1    4    4    0    0  0.16559460563E+02 -0.26679917135E+02 -0.28148896237E+02  0.42171009850E+02  0.00000000000E+00 0. -1.
        -14    1    4    4    0    0 -0.93246451166E+02 -0.10827930546E+03 -0.80649321162E+02  0.16408419074E+03  0.00000000000E+00 0.  1.
</event>
<event>
12    1  0.8449700E-002  0.1944776E+03  0.7818608E-02  0.1154759E+00
         21   -1    0    0  503  502  0.00000000000E+00  0.00000000000E+00  0.82618129103E+02  0.82618129103E+02  0.00000000000E+00 0. -1.
         21   -1    0    0  501  503 -0.00000000000E+00 -0.00000000000E+00 -0.11441788273E+04  0.11441788273E+04  0.00000000000E+00 0. -1.
          6    2    1    2  501    0 -0.87013460780E+02 -0.20729182784E+02 -0.10075754889E+04  0.10261724567E+04  0.17268614255E+03 0.  0.
         24    2    3    3    0    0 -0.88737376141E+02 -0.20469801666E+02 -0.38624872286E+03  0.40482546888E+03  0.80014059010E+02 0.  0.
         -6    2    1    2    0  502  0.87013460780E+02  0.20729182784E+02 -0.53985209293E+02  0.20062449963E+03  0.17127389075E+03 0.  0.
        -24    2    5    5    0    0  0.29591617518E+02  0.10439512581E+02  0.34980687348E+02  0.94134283356E+02  0.81565725432E+02 0.  0.
          5    1    3    3  501    0  0.17239153611E+01 -0.25938111782E+00 -0.62132676602E+03  0.62134698787E+03  0.47000000000E+01 0. -1.
        -13    1    4    4    0    0 -0.66921545290E+01  0.35353782057E+00  0.23598907325E+01  0.71048578803E+01  0.00000000000E+00 0.  1.
         14    1    4    4    0    0 -0.82045221612E+02 -0.20823339486E+02 -0.38860861359E+03  0.39772061100E+03  0.00000000000E+00 0. -1.
         -5    1    5    5    0  502  0.57421843262E+02  0.10289670203E+02 -0.88965896642E+02  0.10649021627E+03  0.47000000000E+01 0.  1.
         11    1    6    6    0    0 -0.81691305856E+01  0.37228476046E+02  0.28043013228E+02  0.47319179136E+02  0.00000000000E+00 0. -1.
        -12    1    6    6    0    0  0.37760748103E+02 -0.26788963465E+02  0.69376741200E+01  0.46815104219E+02  0.00000000000E+00 0.  1.
</event>
<event>
12    1  0.8449700E-002  0.1896174E+03  0.7818608E-02  0.1158877E+00
         21   -1    0    0  503  502  0.00000000000E+00  0.00000000000E+00  0.36311778370E+02  0.36311778370E+02  0.00000000000E+00 0.  1.
         21   -1    0    0  501  503 -0.00000000000E+00 -0.00000000000E+00 -0.11649801646E+04  0.11649801646E+04  0.00000000000E+00 0.  1.
          6    2    1    2  501    0 -0.74435865801E+02 -0.30054589130E+02 -0.79846250366E+03  0.82066870936E+03  0.17178703189E+03 0.  0.
         24    2    3    3    0    0 -0.68472027148E+02  0.43253956992E+02 -0.43062842184E+03  0.44552378796E+03  0.80568508996E+02 0.  0.
         -6    2    1    2    0  502  0.74435865801E+02  0.30054589130E+02 -0.33020588253E+03  0.38062323357E+03  0.17144720654E+03 0.  0.
        -24    2    5    5    0    0 -0.10690249657E+02  0.39992149599E+02 -0.23742891402E+03  0.25423151498E+03  0.80916750630E+02 0.  0.
          5    1    3    3  501    0 -0.59638386534E+01 -0.73308546122E+02 -0.36783408182E+03  0.37514492140E+03  0.47000000000E+01 0. -1.
        -13    1    4    4    0    0 -0.46587974428E+02  0.58771950437E+01 -0.35719934850E+03  0.36027261255E+03  0.00000000000E+00 0.  1.
         14    1    4    4    0    0 -0.21884052720E+02  0.37376761948E+02 -0.73429073344E+02  0.85251175413E+02  0.00000000000E+00 0. -1.
         -5    1    5    5    0  502  0.85126115458E+02 -0.99375604692E+01 -0.92776968515E+02  0.12639171859E+03  0.47000000000E+01 0.  1.
         13    1    6    6    0    0  0.34918733911E+02  0.24279645974E+02 -0.10471907976E+03  0.11302612465E+03  0.00000000000E+00 0. -1.
        -14    1    6    6    0    0 -0.45608983568E+02  0.15712503625E+02 -0.13270983425E+03  0.14120539034E+03  0.00000000000E+00 0.  1.
</event>
<event>
12    1  0.8449700E-002  0.2614976E+03  0.7818608E-02  0.1106441E+00
         21   -1    0    0  501  502  0.00000000000E+00  0.00000000000E+00  0.18221275452E+03  0.18221275452E+03  0.00000000000E+00 0. -1.
         21   -1    0    0  502  503 -0.00000000000E+00 -0.00000000000E+00 -0.37889574300E+03  0.37889574300E+03  0.00000000000E+00 0.  1.
         -6    2    1    2    0  503  0.80424267105E+02  0.17739848072E+03 -0.13231637083E+03  0.29306756216E+03  0.17447833762E+03 0.  0.
        -24    2    3    3    0    0  0.90273460103E+02  0.20188623718E+03 -0.12038524831E+03  0.26372308221E+03  0.78421334599E+02 0.  0.
          6    2    1    2  501    0 -0.80424267105E+02 -0.17739848072E+03 -0.64366617657E+02  0.26804093537E+03  0.17252419500E+03 0.  0.
         24    2    5    5    0    0 -0.10240053524E+03 -0.18070785495E+03 -0.27180768543E+02  0.22446587721E+03  0.80653192106E+02 0.  0.
          5    1    5    5  501    0  0.21976268131E+02  0.33093742264E+01 -0.37185849115E+02  0.43575058154E+02  0.47000000000E+01 0. -1.
        -13    1    6    6    0    0 -0.40050739195E+02 -0.20885111437E+02 -0.27556558050E+02  0.52911373838E+02  0.00000000000E+00 0.  1.
         14    1    6    6    0    0 -0.62349796040E+02 -0.15982274351E+03  0.37578950743E+00  0.17155450337E+03  0.00000000000E+00 0. -1.
         -5    1    3    3    0  503 -0.98491929983E+01 -0.24487756453E+02 -0.11931122522E+02  0.29344479949E+02  0.47000000000E+01 0.  1.
         11    1    4    4    0    0  0.80726052657E+02  0.13641305047E+03 -0.11783151944E+03  0.19750818436E+03  0.00000000000E+00 0. -1.
        -12    1    4    4    0    0  0.95474074456E+01  0.65473186703E+02 -0.25537288705E+01  0.66214897848E+02  0.00000000000E+00 0.  1.
</event>
<event>
12    1  0.8449700E-002  0.1742364E+03  0.7818608E-02  0.1176028E+00
         21   -1    0    0  503  502  0.00000000000E+00  0.00000000000E+00  0.12321354469E+03  0.12321354469E+03  0.00000000000E+00 0. -1.
         21   -1    0    0  501  503 -0.00000000000E+00 -0.00000000000E+00 -0.37683982245E+03  0.37683982245E+03  0.00000000000E+00 0.  1.
          6    2    1    2  501    0 -0.81169083580E+01  0.24593851831E+02 -0.28357140908E+03  0.33282285377E+03  0.17230080149E+03 0.  0.
         24    2    3    3    0    0 -0.68871112955E+02  0.39292812440E+02 -0.20888532565E+03  0.23531780838E+03  0.73852801962E+02 0.  0.
         -6    2    1    2    0  502  0.81169083580E+01 -0.24593851831E+02  0.29945131313E+02  0.16723051337E+03  0.16247643510E+03 0.  0.
        -24    2    5    5    0    0  0.53257810233E+02 -0.40737641720E+01 -0.18221054141E+02  0.97942372675E+02  0.80048183277E+02 0.  0.
          5    1    3    3  501    0  0.60754204598E+02 -0.14698960609E+02 -0.74686083428E+02  0.97505045393E+02  0.47000000000E+01 0. -1.
        -11    1    4    4    0    0 -0.37472145451E+02  0.51049174674E+02 -0.79390880017E+02  0.10155339359E+03  0.00000000000E+00 0.  1.
         12    1    4    4    0    0 -0.31398967504E+02 -0.11756362234E+02 -0.12949444563E+03  0.13376441479E+03  0.00000000000E+00 0. -1.
         -5    1    5    5    0  502 -0.45140901875E+02 -0.20520087659E+02  0.48166185454E+02  0.69288140694E+02  0.47000000000E+01 0.  1.
         11    1    6    6    0    0  0.38791077040E+02 -0.12101933751E+02  0.27669089144E+02  0.49160786736E+02  0.00000000000E+00 0. -1.
        -12    1    6    6    0    0  0.14466733192E+02  0.80281695793E+01 -0.45890143285E+02  0.48781585939E+02  0.00000000000E+00 0.  1.
</event>
<event>
12    1  0.8449700E-002  0.1985631E+03  0.7818608E-02  0.1155047E+00
         21   -1    0    0  503  502  0.00000000000E+00  0.00000000000E+00  0.25421358467E+02  0.25421358467E+02  0.00000000000E+00 0.  1.
         21   -1    0    0  501  503 -0.00000000000E+00 -0.00000000000E+00 -0.14141770426E+04  0.14141770426E+04  0.00000000000E+00 0. -1.
          6    2    1    2  501    0 -0.83816992057E+02  0.53061658120E+02 -0.75790090305E+03  0.78348012148E+03  0.17200725042E+03 0.  0.
         24    2    3    3    0    0 -0.11166949566E+03  0.58562624883E+02 -0.45034951793E+03  0.47458537066E+03  0.80727495057E+02 0.  0.
         -6    2    1    2    0  502  0.83816992057E+02 -0.53061658120E+02 -0.63085478112E+03  0.65611827962E+03  0.15057428157E+03 0.  0.
        -24    2    5    5    0    0  0.10060618296E+03 -0.58060304815E+02 -0.61755334635E+03  0.63362646851E+03  0.81349634078E+02 0.  0.
          5    1    3    3  501    0  0.27852503601E+02 -0.55009667628E+01 -0.30755138512E+03  0.30889475082E+03  0.47000000000E+01 0. -1.
        -13    1    4    4    0    0 -0.75824093522E+02  0.66739389869E+02 -0.39797688386E+03  0.41059595639E+03  0.00000000000E+00 0.  1.
         14    1    4    4    0    0 -0.35845402136E+02 -0.81767649860E+01 -0.52372634070E+02  0.63989414276E+02  0.00000000000E+00 0. -1.
         -5    1    5    5    0  502 -0.16789190906E+02  0.49986466953E+01 -0.13301434772E+02  0.22491811111E+02  0.47000000000E+01 0.  1.
         11    1    6    6    0    0 -0.42091608519E+01 -0.25590224406E+02 -0.20866868694E+03  0.21027410094E+03  0.00000000000E+00 0. -1.
        -12    1    6    6    0    0  0.10481534382E+03 -0.32470080409E+02 -0.40888465941E+03  0.42335236757E+03  0.00000000000E+00 0.  1.
</event>
<event>
12    1  0.8449700E-002  0.2395802E+03  0.7818608E-02  0.1120679E+00
         21   -1    0    0  501  502  0.00000000000E+00  0.00000000000E+00  0.23846828563E+03  0.23846828563E+03  0.00000000000E+00 0.  1.
         21   -1    0    0  502  503 -0.00000000000E+00 -0.00000000000E+00 -0.35775325525E+03  0.35775325525E+03  0.00000000000E+00 0.  1.
         -6    2    1    2    0  503 -0.12285810543E+03 -0.10500882214E+03 -0.23246710397E+03  0.33125201838E+03  0.17194760381E+03 0.  0.
        -24    2    3    3    0    0 -0.14948415458E+03 -0.55671452647E+02 -0.17950415280E+03  0.25398438791E+03  0.82713392616E+02 0.  0.
          6    2    1    2  501    0  0.12285810543E+03  0.10500882214E+03  0.11318213435E+03  0.26496952249E+03  0.17685498443E+03 0.  0.
         24    2    5    5    0    0  0.61330248723E+02  0.13501120290E+03  0.95688168560E+02  0.19416027987E+03  0.80947911402E+02 0.  0.
          5    1    5    5  501    0  0.61527856706E+02 -0.30002380760E+02  0.17493965794E+02  0.70809242626E+02  0.47000000000E+01 0. -1.
        -13    1    6    6    0    0  0.73621116890E+02  0.11913216433E+03  0.58247877292E+02  0.15167516817E+03  0.00000000000E+00 0.  1.
         14    1    6    6    0    0 -0.12290868167E+02  0.15879038571E+02  0.37440291268E+02  0.42485111703E+02  0.00000000000E+00 0. -1.
         -5    1    3    3    0  503  0.26626049155E+02 -0.49337369490E+02 -0.52962951177E+02  0.77267630474E+02  0.47000000000E+01 0.  1.
         11    1    4    4    0    0 -0.12396408776E+03 -0.64684090865E+02 -0.10542451933E+03  0.17511555026E+03  0.00000000000E+00 0. -1.
        -12    1    4    4    0    0 -0.25520066826E+02  0.90126382178E+01 -0.74079633464E+02  0.78868837652E+02  0.00000000000E+00 0.  1.
</event>
<event>
12    1  0.8449700E-002  0.2066207E+03  0.7818608E-02  0.1144561E+00
         21   -1    0    0  501  502  0.00000000000E+00  0.00000000000E+00  0.87827019824E+03  0.87827019824E+03  0.00000000000E+00 0. -1.
         21   -1    0    0  502  503 -0.00000000000E+00 -0.00000000000E+00 -0.10770890519E+03  0.10770890519E+03  0.00000000000E+00 0.  1.
         -6    2    1    2    0  503 -0.10177474585E+03  0.52238027374E+02  0.75089421321E+03  0.77842449346E+03  0.17033984323E+03 0.  0.
        -24    2    3    3    0    0 -0.44630129881E+02  0.78110336567E+02  0.63924621402E+03  0.65027516946E+03  0.78287934646E+02 0.  0.
          6    2    1    2  501    0  0.10177474585E+03 -0.52238027374E+02  0.19667079844E+02  0.20755460997E+03  0.17206165085E+03 0.  0.
         24    2    5    5    0    0  0.78857508999E+02 -0.38023803721E+02 -0.53168881690E+02  0.12974451299E+03  0.79639137967E+02 0.  0.
          5    1    5    5  501    0  0.22917236855E+02 -0.14214223653E+02  0.72835961534E+02  0.77810096978E+02  0.47000000000E+01 0. -1.
        -11    1    6    6    0    0  0.38846513490E+02  0.22602116224E+02 -0.27576617614E+02  0.52729281306E+02  0.00000000000E+00 0.  1.
         12    1    6    6    0    0  0.40010995510E+02 -0.60625919945E+02 -0.25592264076E+02  0.77015231684E+02  0.00000000000E+00 0. -1.
         -5    1    3    3    0  503 -0.57144615974E+02 -0.25872309193E+02  0.11164799919E+03  0.12814932400E+03  0.47000000000E+01 0.  1.
         13    1    4    4    0    0 -0.33856604014E+02  0.21912176943E+02  0.46773332895E+03  0.46946872115E+03  0.00000000000E+00 0. -1.
        -14    1    4    4    0    0 -0.10773525867E+02  0.56198159623E+02  0.17151288507E+03  0.18080644831E+03  0.00000000000E+00 0.  1.
</event>
<event>
12    1  0.8449700E-002  0.2281557E+03  0.7818608E-02  0.1128906E+00
         21   -1    0    0  503  502  0.00000000000E+00  0.00000000000E+00  0.10401754450E+03  0.10401754450E+03  0.00000000000E+00 0.  1.
         21   -1    0    0  501  503 -0.00000000000E+00 -0.00000000000E+00 -0.71176589079E+03  0.71176589079E+03  0.00000000000E+00 0. -1.
          6    2    1    2  501    0  0.14196761408E+02 -0.14934941979E+03 -0.73118422005E+02  0.23450538875E+03  0.16474124101E+03 0.  0.
         24    2    3    3    0    0  0.37228886959E+02 -0.16974351700E+03 -0.61578677824E+02  0.20131421968E+03  0.80849427306E+02 0.  0.
         -6    2    1    2    0  502 -0.14196761408E+02  0.14934941979E+03 -0.53462992429E+03  0.58127804654E+03  0.17189594008E+03 0.  0.
        -24    2    5    5    0    0  0.13117269228E+02  0.62353096696E+02 -0.43251410636E+03  0.44429576019E+03  0.79185218984E+02 0.  0.
          5    1    3    3  501    0 -0.23032125550E+02  0.20394097207E+02 -0.11539744181E+02  0.33191169067E+02  0.47000000000E+01 0. -1.
        -11    1    4    4    0    0  0.83209231032E+01 -0.68006129895E+02 -0.66440313197E+02  0.95437868178E+02  0.00000000000E+00 0.  1.
         12    1    4    4    0    0  0.28907963855E+02 -0.10173738710E+03  0.48616353737E+01  0.10587635150E+03  0.00000000000E+00 0. -1.
         -5    1    5    5    0  502 -0.27314030636E+02  0.86996323094E+02 -0.10211581793E+03  0.13698228635E+03  0.47000000000E+01 0.  1.
         13    1    6    6    0    0  0.36515943806E+02  0.27385594355E+01 -0.18806162933E+03  0.19159355492E+03  0.00000000000E+00 0. -1.
        -14    1    6    6    0    0 -0.23398674578E+02  0.59614537261E+02 -0.24445247703E+03  0.25270220527E+03  0.00000000000E+00 0.  1.
</event>
<event>
12    1  0.8449700E-002  0.2632223E+03  0.7818608E-02  0.1105238E+00
         21   -1    0    0  503  502  0.00000000000E+00  0.00000000000E+00  0.72888885882E+03  0.72888885882E+03  0.00000000000E+00 0. -1.
         21   -1    0    0  501  503 -0.00000000000E+00 -0.00000000000E+00 -0.16070195184E+03  0.16070195184E+03  0.00000000000E+00 0.  1.
          6    2    1    2  501    0  0.17928625892E+03 -0.87500834453E+02  0.56848868522E+03  0.62647055155E+03  0.17171490345E+03 0.  0.
         24    2    3    3    0    0  0.10993232297E+03 -0.69960993072E+02  0.21344064320E+03  0.26425677957E+03  0.85411247473E+02 0.  0.
         -6    2    1    2    0  502 -0.17928625892E+03  0.87500834453E+02 -0.30177823540E+00  0.26312025911E+03  0.17155821466E+03 0.  0.
        -24    2    5    5    0    0 -0.74638358509E+02  0.53644914624E+02  0.62816365360E+02  0.13622110065E+03  0.78496057726E+02 0.  0.
          5    1    3    3  501    0  0.69353935957E+02 -0.17539841382E+02  0.35504804202E+03  0.36221377198E+03  0.47000000000E+01 0. -1.
        -11    1    4    4    0    0  0.69999848995E+02 -0.32288531063E+02  0.18909113113E+03  0.20420084223E+03  0.00000000000E+00 0.  1.
         12    1    4    4    0    0  0.39932473972E+02 -0.37672462008E+02  0.24349512072E+02  0.60055937337E+02  0.00000000000E+00 0. -1.
         -5    1    5    5    0  502 -0.10464790042E+03  0.33855919829E+02 -0.63118143595E+02  0.12689915847E+03  0.47000000000E+01 0.  1.
         13    1    6    6    0    0 -0.86965128845E+02  0.45488005379E+02  0.69234879763E+02  0.12010645630E+03  0.00000000000E+00 0. -1.
        -14    1    6    6    0    0  0.12326770336E+02  0.81569092456E+01 -0.64185144038E+01  0.16114644350E+02  0.00000000000E+00 0.  1.
</event>
<event>
12    1  0.8449700E-002  0.1844409E+03  0.7818608E-02  0.1165069E+00
         21   -1    0    0  503  502  0.00000000000E+00  0.00000000000E+00  0.61627947229E+02  0.61627947229E+02  0.00000000000E+00 0. -1.
         21   -1    0    0  501  503 -0.00000000000E+00 -0.00000000000E+00 -0.54128777025E+03  0.54128777025E+03  0.00000000000E+00 0. -1.
          6    2    1    2  501    0 -0.45976242146E+02 -0.19248164219E+02 -0.28027664266E+03  0.33551968293E+03  0.17757858695E+03 0.  0.
         24    2    3    3    0    0 -0.60012696097E+02 -0.34230439265E+02 -0.95594209138E+02  0.14964020085E+03  0.92090663070E+02 0.  0.
         -6    2    1    2    0  502  0.45976242146E+02  0.19248164219E+02 -0.19938318036E+03  0.26739603455E+03  0.17106338011E+03 0.  0.
        -24    2    5    5    0    0  0.37332479692E+02  0.64137526134E+02 -0.19218032652E+03  0.22088000994E+03  0.79670349504E+02 0.  0.
          5    1    3    3  501    0  0.14036453950E+02  0.14982275045E+02 -0.18468243353E+03  0.18587948208E+03  0.47000000000E+01 0. -1.
        -13    1    4    4    0    0 -0.50370249542E+00 -0.51894681702E+02 -0.33091130089E+02  0.61549448379E+02  0.00000000000E+00 0.  1.
         14    1    4    4    0    0 -0.59508993601E+02  0.17664242438E+02 -0.62503079049E+02  0.88090752471E+02  0.00000000000E+00 0. -1.
         -5    1    5    5    0  502  0.86437624540E+01 -0.44889361915E+02 -0.72028538400E+01  0.46516024614E+02  0.47000000000E+01 0.  1.
         11    1    6    6    0    0  0.29250631546E+02 -0.81830497304E+01 -0.28065741627E+02  0.41355139969E+02  0.00000000000E+00 0. -1.
        -12    1    6    6    0    0  0.80818481460E+01  0.72320575865E+02 -0.16411458489E+03  0.17952486997E+03  0.00000000000E+00 0.  1.
</event>
<event>
12    1  0.8449700E-002  0.3296151E+03  0.7818608E-02  0.1071450E+00
         21   -1    0    0  501  502  0.00000000000E+00  0.00000000000E+00  0.19327973018E+03  0.19327973018E+03  0.00000000000E+00 0. -1.
         21   -1    0    0  502  503 -0.00000000000E+00 -0.00000000000E+00 -0.11197030859E+04  0.11197030859E+04  0.00000000000E+00 0.  1.
         -6    2    1    2    0  503 -0.24289632073E+03  0.13885414654E+03 -0.92693603265E+03  0.98336729910E+03  0.17181891539E+03 0.  0.
        -24    2    3    3    0    0 -0.14687922203E+03  0.10636217384E+03 -0.78105313646E+03  0.80566271016E+03  0.78498297265E+02 0.  0.
          6    2    1    2  501    0  0.24289632073E+03 -0.13885414654E+03  0.51267692501E+00  0.32961551698E+03  0.17426138287E+03 0.  0.
         24    2    5    5    0    0  0.21222420519E+03 -0.46551469981E+02 -0.98800380725E+01  0.23168359524E+03  0.79834331725E+02 0.  0.
          5    1    5    5  501    0  0.30672115537E+02 -0.92302676556E+02  0.10392714998E+02  0.97931921741E+02  0.47000000000E+01 0. -1.
        -13    1    6    6    0    0  0.88800765766E+01  0.14498179260E+02 -0.92853797830E+01  0.19371918841E+02  0.00000000000E+00 0.  1.
         14    1    6    6    0    0  0.20334412862E+03 -0.61049649241E+02 -0.59465828951E+00  0.21231167639E+03  0.00000000000E+00 0. -1.
         -5    1    3    3    0  503 -0.96017098697E+02  0.32491972698E+02 -0.14588289619E+03  0.17770458895E+03  0.47000000000E+01 0.  1.
         13    1    4    4    0    0 -0.39450129664E+01  0.30867866576E+02 -0.72350867510E+02  0.78759357181E+02  0.00000000000E+00 0. -1.
        -14    1    4    4    0    0 -0.14293420907E+03  0.75494307264E+02 -0.70870226895E+03  0.72690335298E+03  0.00000000000E+00 0.  1.
</event>
<event>
12    1  0.8449700E-002  0.2146108E+03  0.7818608E-02  0.1144467E+00
         21   -1    0    0  503  502  0.00000000000E+00  0.00000000000E+00  0.17830429796E+03  0.17830429796E+03  0.00000000000E+00 0.  1.
         21   -1    0    0  501  503 -0.00000000000E+00 -0.00000000000E+00 -0.27254416696E+03  0.27254416696E+03  0.00000000000E+00 0.  1.
          6    2    1    2  501    0 -0.19382813881E+02 -0.90320218509E+02  0.46475775397E+02  0.21958549507E+03  0.19371204558E+03 0.  0.
         24    2    3    3    0    0 -0.12151281638E+02 -0.14074181741E+03  0.25972394614E+02  0.16447550217E+03  0.80135589601E+02 0.  0.
         -6    2    1    2    0  502  0.19382813881E+02  0.90320218509E+02 -0.14071564439E+03  0.23126296985E+03  0.15858194507E+03 0.  0.
        -24    2    5    5    0    0 -0.18102621507E+02  0.10361063516E+03 -0.73151668564E+02  0.15272142752E+03  0.83125201884E+02 0.  0.
          5    1    3    3  501    0 -0.72315322430E+01  0.50421598898E+02  0.20503380783E+02  0.55109992900E+02  0.47000000000E+01 0. -1.
        -11    1    4    4    0    0  0.24964022194E+01 -0.71629497387E+02  0.52677589872E+02  0.88949116886E+02  0.00000000000E+00 0.  1.
         12    1    4    4    0    0 -0.14647683857E+02 -0.69112320019E+02 -0.26705195258E+02  0.75526385287E+02  0.00000000000E+00 0. -1.
         -5    1    5    5    0  502  0.37485435388E+02 -0.13290416648E+02 -0.67563975826E+02  0.78541542322E+02  0.47000000000E+01 0.  1.
         11    1    6    6    0    0 -0.37385796432E+02  0.89065437570E+02 -0.82293134019E+02  0.12689566522E+03  0.00000000000E+00 0. -1.
        -12    1    6    6    0    0  0.19283174925E+02  0.14545197587E+02  0.91414654557E+01  0.25825762306E+02  0.00000000000E+00 0.  1.
</event>
<event>
12    1  0.8449700E-002  0.1913672E+03  0.7818608E-02  0.1157369E+00
         21   -1    0    0  501  502  0.00000000000E+00  0.00000000000E+00  0.90284221543E+02  0.90284221543E+02  0.00000000000E+00 0.  1.
         21   -1    0    0  502  503 -0.00000000000E+00 -0.00000000000E+00 -0.53282016020E+03  0.53282016020E+03  0.00000000000E+00 0.  1.
         -6    2    1    2    0  503 -0.21803636577E+02 -0.81111841283E+02 -0.37398758132E+03  0.41983046613E+03  0.17127866167E+03 0.  0.
        -24    2    3    3    0    0  0.53081314754E+02 -0.35838100525E+02 -0.21920021135E+03  0.24195779414E+03  0.79955275397E+02 0.  0.
          6    2    1    2  501    0  0.21803636577E+02  0.81111841283E+02 -0.68548357342E+02  0.20327391562E+03  0.17195021987E+03 0.  0.
         24    2    5    5    0    0 -0.43965070098E+02  0.83665859761E+02 -0.48321408143E+02  0.13425750263E+03  0.82202281289E+02 0.  0.
          5    1    5    5  501    0  0.65768706675E+02 -0.25540184774E+01 -0.20226949199E+02  0.69016412990E+02  0.47000000000E+01 0. -1.
        -11    1    6    6    0    0 -0.37854448472E+01  0.38407457377E+02 -0.61227820112E+02  0.72376158578E+02  0.00000000000E+00 0.  1.
         12    1    6    6    0    0 -0.40179625251E+02  0.45258402384E+02  0.12906411969E+02  0.61881344051E+02  0.00000000000E+00 0. -1.
         -5    1    3    3    0  503 -0.74884951331E+02 -0.45273740758E+02 -0.15478736997E+03  0.17787267199E+03  0.47000000000E+01 0.  1.
         13    1    4    4    0    0  0.49117078912E+02  0.14069184154E+02 -0.12980483088E+03  0.13949811290E+03  0.00000000000E+00 0. -1.
        -14    1    4    4    0    0  0.39642358426E+01 -0.49907284679E+02 -0.89395380471E+02  0.10245968124E+03  0.00000000000E+00 0.  1.
</event>
<event>
12    1  0.8449700E-002  0.2808175E+03  0.7818608E-02  0.1095279E+00
         21   -1    0    0  503  502  0.00000000000E+00  0.00000000000E+00  0.16699597040E+04  0.16699597040E+04  0.00000000000E+00 0. -1.
         21   -1    0    0  501  503 -0.00000000000E+00 -0.00000000000E+00 -0.54436830581E+02  0.54436830581E+02  0.00000000000E+00 0. -1.
          6    2    1    2  501    0 -0.20667361371E+03 -0.79000975525E+02  0.49259659337E+03  0.56688977246E+03  0.17250354658E+03 0.  0.
         24    2    3    3    0    0 -0.10564069172E+03 -0.31941361625E+02  0.39894996188E+03  0.42123936849E+03  0.78110992557E+02 0.  0.
         -6    2    1    2    0  502  0.20667361371E+03  0.79000975525E+02  0.11229262800E+04  0.11575067621E+04  0.17292581413E+03 0.  0.
        -24    2    5    5    0    0  0.17164814047E+03  0.11103768960E+03  0.10286898574E+04  0.10518860815E+04  0.80430423664E+02 0.  0.
          5    1    3    3  501    0 -0.10103292199E+03 -0.47059613900E+02  0.93646631498E+02  0.14565040397E+03  0.47000000000E+01 0. -1.
        -13    1    4    4    0    0 -0.85507028391E+02 -0.47432603293E+02  0.22342062602E+03  0.24388128237E+03  0.00000000000E+00 0.  1.
         14    1    4    4    0    0 -0.20133663334E+02  0.15491241668E+02  0.17552933586E+03  0.17735808612E+03  0.00000000000E+00 0. -1.
         -5    1    5    5    0  502  0.35025473237E+02 -0.32036714077E+02  0.94236422569E+02  0.10562068056E+03  0.47000000000E+01 0.  1.
         13    1    6    6    0    0  0.26846788398E+01 -0.10836119082E+02  0.62766971893E+02  0.63752033206E+02  0.00000000000E+00 0. -1.
        -14    1    6    6    0    0  0.16896346163E+03  0.12187380868E+03  0.96592288555E+03  0.98813404831E+03  0.00000000000E+00 0.  1.
</event>
<event>
12    1  0.8449700E-002  0.2086383E+03  0.7818608E-02  0.1146298E+00
         21   -1    0    0  501  502  0.00000000000E+00  0.00000000000E+00  0.81160420577E+03  0.81160420577E+03  0.00000000000E+00 0. -1.
         21   -1    0    0  502  503 -0.00000000000E+00 -0.00000000000E+00 -0.50189389455E+02  0.50189389455E+02  0.00000000000E+00 0. -1.
         -6    2    1    2    0  503 -0.49912479690E+02 -0.10777600172E+03  0.30529506324E+03  0.36022090334E+03  0.14982356754E+03 0.  0.
        -24    2    3    3    0    0 -0.80857823594E+02 -0.11226842491E+03  0.25797530546E+03  0.30330828917E+03  0.79388117396E+02 0.  0.
          6    2    1    2  501    0  0.49912479690E+02  0.10777600172E+03  0.45611975308E+03  0.50157269189E+03  0.17153137883E+03 0.  0.
         24    2    5    5    0    0  0.11040892531E+02  0.91434300805E+02  0.15823089298E+03  0.20067750342E+03  0.82172454089E+02 0.  0.
          5    1    5    5  501    0  0.38871587159E+02  0.16341700912E+02  0.29788886010E+03  0.30089518847E+03  0.47000000000E+01 0. -1.
        -13    1    6    6    0    0  0.17651485125E+02 -0.97497056938E+01  0.40907184627E+02  0.45607339786E+02  0.00000000000E+00 0.  1.
         14    1    6    6    0    0 -0.66105925936E+01  0.10118400650E+03  0.11732370836E+03  0.15507016363E+03  0.00000000000E+00 0. -1.
         -5    1    3    3    0  503  0.30945343903E+02  0.44924231949E+01  0.47319757780E+02  0.56912614172E+02  0.47000000000E+01 0.  1.
         11    1    4    4    0    0 -0.47773531788E+02 -0.85817843499E+02  0.23592716176E+03  0.25555554828E+03  0.00000000000E+00 0. -1.
        -12    1    4    4    0    0 -0.33084291806E+02 -0.26450581413E+02  0.22048143695E+02  0.47752740882E+02  0.00000000000E+00 0.  1.
</event>
<event>
12    1  0.8449700E-002  0.2077113E+03  0.7818608E-02  0.1143652E+00
         21   -1    0    0  501  502  0.00000000000E+00  0.00000000000E+00  0.55860762332E+03  0.55860762332E+03  0.00000000000E+00 0. -1.
         21   -1    0    0  502  503 -0.00000000000E+00 -0.00000000000E+00 -0.21559978264E+03  0.21559978264E+03  0.00000000000E+00 0.  1.
         -6    2    1    2    0  503  0.80687985262E+02  0.84152802900E+02 -0.13895347623E+03  0.24990410018E+03  0.17190621143E+03 0.  0.
        -24    2    3    3    0    0  0.65692877540E+02  0.12134711295E+03 -0.80921294493E+02  0.17920690028E+03  0.80784783380E+02 0.  0.
          6    2    1    2  501    0 -0.80687985262E+02 -0.84152802900E+02  0.48196131691E+03  0.52430330579E+03  0.17033790024E+03 0.  0.
         24    2    5    5    0    0 -0.11586116962E+03 -0.38756769428E+02  0.27971748330E+03  0.31401157750E+03  0.73725860711E+02 0.  0.
          5    1    5    5  501    0  0.35173184358E+02 -0.45396033471E+02  0.20224383361E+03  0.21029172828E+03  0.47000000000E+01 0. -1.
        -11    1    6    6    0    0 -0.59984491106E+02  0.75521087239E+01  0.18537922845E+03  0.19498879932E+03  0.00000000000E+00 0.  1.
         12    1    6    6    0    0 -0.55876678515E+02 -0.46308878152E+02  0.94338254854E+02  0.11902277818E+03  0.00000000000E+00 0. -1.
         -5    1    3    3    0  503  0.14995107723E+02 -0.37194310049E+02 -0.58032181738E+02  0.70697199894E+02  0.47000000000E+01 0.  1.
         13    1    4    4    0    0  0.75418332098E+02  0.56380052782E+02 -0.49698835687E+02  0.10647351519E+03  0.00000000000E+00 0. -1.
        -14    1    4    4    0    0 -0.97254545586E+01  0.64967060166E+02 -0.31222458806E+02  0.72733385092E+02  0.00000000000E+00 0.  1.
</event>
<event>
12    1  0.8449700E-002  0.1876599E+03  0.7818608E-02  0.1160681E+00
         21   -1    0    0  501  502  0.00000000000E+00  0.00000000000E+00  0.75874425499E+03  0.75874425499E+03  0.00000000000E+00 0.  1.
         21   -1    0    0  502  503 -0.00000000000E+00 -0.00000000000E+00 -0.51519682903E+02  0.51519682903E+02  0.00000000000E+00 0.  1.
         -6    2    1    2    0  503  0.49767594332E+02 -0.55553832693E+02  0.22450014710E+03  0.29234588058E+03  0.17176366343E+03 0.  0.
        -24    2    3    3    0    0  0.60531601681E+02  0.11375653792E+02  0.19057172770E+03  0.21639426666E+03  0.81947635358E+02 0.  0.
          6    2    1    2  501    0 -0.49767594332E+02  0.55553832693E+02  0.48272442499E+03  0.51791805731E+03  0.17220105062E+03 0.  0.
         24    2    5    5    0    0  0.21128305827E+02  0.27048464847E+02  0.37986410678E+03  0.38969512755E+03  0.79922012333E+02 0.  0.
          5    1    5    5  501    0 -0.70895900159E+02  0.28505367846E+02  0.10286031821E+03  0.12822292976E+03  0.47000000000E+01 0. -1.
        -13    1    6    6    0    0 -0.20276018774E+02  0.77495487290E+00  0.25095930955E+03  0.25177826066E+03  0.00000000000E+00 0.  1.
         14    1    6    6    0    0  0.41404324601E+02  0.26273509975E+02  0.12890479723E+03  0.13791686689E+03  0.00000000000E+00 0. -1.
         -5    1    3    3    0  503 -0.10764007349E+02 -0.66929486486E+02  0.33928419397E+02  0.75951613928E+02  0.47000000000E+01 0.  1.
         11    1    4    4    0    0  0.63288183282E+02  0.15736843858E+02  0.19736694611E+03  0.20786234342E+03  0.00000000000E+00 0. -1.
        -12    1    4    4    0    0 -0.27565816009E+01 -0.43611900660E+01 -0.67952184037E+01  0.85319232338E+01  0.00000000000E+00 0.  1.
</event>
<event>
12    1  0.8449700E-002  0.1795881E+03  0.7818608E-02  0.1168778E+00
         21   -1    0    0  503  502  0.00000000000E+00  0.00000000000E+00  0.37354076451E+03  0.37354076451E+03  0.00000000000E+00 0.  1.
         21   -1    0    0  501  503 -0.00000000000E+00 -0.00000000000E+00 -0.14886923319E+03  0.14886923319E+03  0.00000000000E+00 0.  1.
          6    2    1    2  501    0 -0.37655787341E+02  0.24812385144E+02 -0.58043359401E+02  0.18873506249E+03  0.17383405727E+03 0.  0.
         24    2    3    3    0    0 -0.38977061344E+02  0.81664368505E+02 -0.24840643565E+02  0.12271685201E+03  0.79082790791E+02 0.  0.
         -6    2    1    2    0  502  0.37655787341E+02 -0.24812385144E+02  0.28271489073E+03  0.33367493521E+03  0.17139906701E+03 0.  0.
        -24    2    5    5    0    0  0.52414324529E+01  0.77629425597E+01  0.27565739901E+03  0.28694442518E+03  0.79135109936E+02 0.  0.
          5    1    3    3  501    0  0.13212740028E+01 -0.56851983362E+02 -0.33202715836E+02  0.66018210488E+02  0.47000000000E+01 0. -1.
        -11    1    4    4    0    0 -0.27424543907E+02 -0.34676563797E+01 -0.24296468045E+02  0.36802834249E+02  0.00000000000E+00 0.  1.
         12    1    4    4    0    0 -0.11552517436E+02  0.85132024885E+02 -0.54417551925E+00  0.85914017757E+02  0.00000000000E+00 0. -1.
         -5    1    5    5    0  502  0.32414354888E+02 -0.32575327703E+02  0.70574917163E+01  0.46730510024E+02  0.47000000000E+01 0.  1.
         11    1    6    6    0    0 -0.11213476540E+02  0.37302037541E+02  0.87572037006E+02  0.95843861182E+02  0.00000000000E+00 0. -1.
        -12    1    6    6    0    0  0.16454908992E+02 -0.29539094982E+02  0.18808536200E+03  0.19110056400E+03  0.00000000000E+00 0.  1.
</event>
<event>
12    1  0.8449700E-002  0.1915775E+03  0.7818608E-02  0.1157098E+00
         21   -1    0    0  503  502  0.00000000000E+00  0.00000000000E+00  0.17429952947E+04  0.17429952947E+04  0.00000000000E+00 0. -1.
         21   -1    0    0  501  503 -0.00000000000E+00 -0.00000000000E+00 -0.42804373902E+02  0.42804373902E+02  0.00000000000E+00 0.  1.
          6    2    1    2  501    0 -0.83795309600E+02 -0.19140198612E+00  0.21352589364E+03  0.28687149662E+03  0.17227959186E+03 0.  0.
         24    2    3    3    0    0  0.14786840616E+02  0.25504335096E+02  0.64189888927E+02  0.10603443308E+03  0.79081207594E+02 0.  0.
         -6    2    1    2    0  502  0.83795309600E+02  0.19140198612E+00  0.14866650271E+04  0.14989281720E+04  0.17202055471E+03 0.  0.
        -24    2    5    5    0    0  0.26312073579E+02  0.23904107050E+02  0.12824673218E+04  0.12854207770E+04  0.79501013292E+02 0.  0.
          5    1    3    3  501    0 -0.98582150216E+02 -0.25695737082E+02  0.14933600472E+03  0.18083706354E+03  0.47000000000E+01 0. -1.
        -13    1    4    4    0    0  0.14038317479E+02 -0.54077486730E+01 -0.14863988885E+02  0.21148434196E+02  0.00000000000E+00 0.  1.
         14    1    4    4    0    0  0.74852313709E+00  0.30912083769E+02  0.79053877813E+02  0.84885998887E+02  0.00000000000E+00 0. -1.
         -5    1    5    5    0  502  0.57483236021E+02 -0.23712705064E+02  0.20419770538E+03  0.21350739492E+03  0.47000000000E+01 0.  1.
         11    1    6    6    0    0  0.54746559158E+02  0.18953255422E+02  0.90399820811E+03  0.90585273190E+03  0.00000000000E+00 0. -1.
        -12    1    6    6    0    0 -0.28434485579E+02  0.49508516280E+01  0.37846911364E+03  0.37956804513E+03  0.00000000000E+00 0.  1.
</event>
<event>
12    1  0.8449700E-002  0.4061830E+03  0.7818608E-02  0.1041686E+00
         21   -1    0    0  503  502  0.00000000000E+00  0.00000000000E+00  0.33671627296E+03  0.33671627296E+03  0.00000000000E+00 0. -1.
         21   -1    0    0  501  503 -0.00000000000E+00 -0.00000000000E+00 -0.76578258669E+03  0.76578258669E+03  0.00000000000E+00 0. -1.
          6    2    1    2  501    0 -0.36719515975E+03 -0.20104274668E+02 -0.54563040040E+03  0.68021846375E+03  0.17247654152E+03 0.  0.
         24    2    3    3    0    0 -0.29056784061E+03  0.40163939254E+02 -0.36503316180E+03  0.47493462064E+03  0.79188841757E+02 0.  0.
         -6    2    1    2    0  502  0.36719515975E+03  0.20104274668E+02  0.11656408667E+03  0.42228039590E+03  0.17174713754E+03 0.  0.
        -24    2    5    5    0    0  0.14915608642E+03  0.24154824913E+02 -0.76341313277E+01  0.17127296212E+03  0.80281715915E+02 0.  0.
          5    1    3    3  501    0 -0.76627319139E+02 -0.60268213923E+02 -0.18059723861E+03  0.20528384310E+03  0.47000000000E+01 0. -1.
        -13    1    4    4    0    0 -0.26799954984E+03  0.47352739013E+02 -0.35899327179E+03  0.45049107627E+03  0.00000000000E+00 0.  1.
         14    1    4    4    0    0 -0.22568290767E+02 -0.71887997582E+01 -0.60398900059E+01  0.24443544371E+02  0.00000000000E+00 0. -1.
         -5    1    5    5    0  502  0.21803907333E+03 -0.40505502450E+01  0.12419821800E+03  0.25100743377E+03  0.47000000000E+01 0.  1.
         13    1    6    6    0    0  0.12531256719E+03  0.24985835806E+02  0.25643125901E+02  0.13032690203E+03  0.00000000000E+00 0. -1.
        -14    1    6    6    0    0  0.23843519228E+02 -0.83101089315E+00 -0.33277257229E+02  0.40946060091E+02  0.00000000000E+00 0.  1.
</event>
<event>
12    1  0.8449700E-002  0.2137228E+03  0.7818608E-02  0.1138654E+00
         21   -1    0    0  503  502  0.00000000000E+00  0.00000000000E+00  0.68142950454E+02  0.68142950454E+02  0.00000000000E+00 0.  1.
         21   -1    0    0  501  503 -0.00000000000E+00 -0.00000000000E+00 -0.10959016684E+04  0.10959016684E+04  0.00000000000E+00 0. -1.
          6    2    1    2  501    0 -0.11388527780E+03  0.55123406702E+02 -0.87658693012E+03  0.90226161180E+03  0.17222927629E+03 0.  0.
         24    2    3    3    0    0 -0.18345548769E+02 -0.80604116204E+01 -0.22461145241E+03  0.24028415883E+03  0.82973749052E+02 0.  0.
         -6    2    1    2    0  502  0.11388527780E+03 -0.55123406702E+02 -0.15117178778E+03  0.26178300701E+03  0.17224687768E+03 0.  0.
        -24    2    5    5    0    0  0.59016052464E+02 -0.89240037648E+02 -0.14351762867E+03  0.19655071019E+03  0.81167685499E+02 0.  0.
          5    1    3    3  501    0 -0.95539729033E+02  0.63183818322E+02 -0.65197547771E+03  0.66197745298E+03  0.47000000000E+01 0. -1.
        -13    1    4    4    0    0 -0.46527568316E+02 -0.91576645199E+01 -0.80415474394E+02  0.93355910123E+02  0.00000000000E+00 0.  1.
         14    1    4    4    0    0  0.28182019547E+02  0.10972528995E+01 -0.14419597802E+03  0.14692824870E+03  0.00000000000E+00 0. -1.
         -5    1    5    5    0  502  0.54869225338E+02  0.34116630946E+02 -0.76541591113E+01  0.65232296817E+02  0.47000000000E+01 0.  1.
         13    1    6    6    0    0  0.79540894742E+02 -0.67023077484E+02 -0.10932889418E+03  0.15090279638E+03  0.00000000000E+00 0. -1.
        -14    1    6    6    0    0 -0.20524842278E+02 -0.22216960164E+02 -0.34188734495E+02  0.45647913816E+02  0.00000000000E+00 0.  1.
</event>
<event>
12    1  0.8449700E-002  0.2415590E+03  0.7818608E-02  0.1118808E+00
         21   -1    0    0  503  502  0.00000000000E+00  0.00000000000E+00  0.36683540205E+02  0.36683540205E+02  0.00000000000E+00 0. -1.
         21   -1    0    0  501  503 -0.00000000000E+00 -0.00000000000E+00 -0.21172862306E+04  0.21172862306E+04  0.00000000000E+00 0. -1.
          6    2    1    2  501    0  0.65741436286E+02 -0.15422689816E+03 -0.15779423501E+04  0.15962797490E+04  0.17349093374E+03 0.  0.
         24    2    3    3    0    0 -0.11204620760E+02 -0.12731339288E+03 -0.12069384820E+04  0.12163968820E+04  0.81158065825E+02 0.  0.
         -6    2    1    2    0  502 -0.65741436286E+02  0.15422689816E+03 -0.50266034030E+03  0.55769002186E+03  0.17390477341E+03 0.  0.
        -24    2    5    5    0    0 -0.39911220977E+02  0.23991079785E+02 -0.97555709909E+02  0.13135632630E+03  0.74624998853E+02 0.  0.
          5    1    3    3  501    0  0.76946057046E+02 -0.26913505280E+02 -0.37100386814E+03  0.37988286699E+03  0.47000000000E+01 0. -1.
        -13    1    4    4    0    0 -0.34533057971E+02 -0.27738872562E+02 -0.23894481844E+03  0.24301564436E+03  0.00000000000E+00 0.  1.
         14    1    4    4    0    0  0.23328437211E+02 -0.99574520318E+02 -0.96799366354E+03  0.97338123761E+03  0.00000000000E+00 0. -1.
         -5    1    5    5    0  502 -0.25830215309E+02  0.13023581838E+03 -0.40510463039E+03  0.42633369557E+03  0.47000000000E+01 0.  1.
         13    1    6    6    0    0 -0.29106189439E+01  0.44903160142E+02 -0.43423049640E+02  0.62532605362E+02  0.00000000000E+00 0. -1.
        -14    1    6    6    0    0 -0.37000602033E+02 -0.20912080358E+02 -0.54132660269E+02  0.68823720936E+02  0.00000000000E+00 0.  1.
</event>
<event>
12    1  0.8449700E-002  0.2472886E+03  0.7818608E-02  0.1115088E+00
         21   -1    0    0  501  502  0.00000000000E+00  0.00000000000E+00  0.17352126510E+03  0.17352126510E+03  0.00000000000E+00 0.  1.
         21   -1    0    0  502  503 -0.00000000000E+00 -0.00000000000E+00 -0.38151063356E+03  0.38151063356E+03  0.00000000000E+00 0. -1.
         -6    2    1    2    0  503 -0.17003503759E+03 -0.52981130378E+02 -0.26613879541E+02  0.24835828655E+03  0.17103983668E+03 0.  0.
        -24    2    3    3    0    0 -0.95262382271E+01  0.62030057932E+01 -0.12597298115E+02  0.76648091159E+02  0.74746314042E+02 0.  0.
          6    2    1    2  501    0  0.17003503759E+03  0.52981130378E+02 -0.18137548892E+03  0.30667361211E+03  0.17155967532E+03 0.  0.
         24    2    5    5    0    0  0.15397034949E+03  0.54359752153E+02 -0.57983572983E+02  0.18214397820E+03  0.56146975700E+02 0.  0.
          5    1    5    5  501    0  0.16064688095E+02 -0.13786217750E+01 -0.12339191594E+03  0.12452963391E+03  0.47000000000E+01 0. -1.
        -13    1    6    6    0    0  0.44169945002E+02 -0.97188556767E+01 -0.10453866072E+02  0.46418999483E+02  0.00000000000E+00 0.  1.
         14    1    6    6    0    0  0.10980040449E+03  0.64078607829E+02 -0.47529706911E+02  0.13572497871E+03  0.00000000000E+00 0. -1.
         -5    1    3    3    0  503 -0.16050879936E+03 -0.59184136171E+02 -0.14016581426E+02  0.17171019539E+03  0.47000000000E+01 0.  1.
         13    1    4    4    0    0 -0.16616730986E+02  0.32572693466E+02  0.13401066947E+02  0.38944636391E+02  0.00000000000E+00 0. -1.
        -14    1    4    4    0    0  0.70904927584E+01 -0.26369687673E+02 -0.25998365062E+02  0.37703454768E+02  0.00000000000E+00 0.  1.
</event>
<event>
12    1  0.8449700E-002  0.2015465E+03  0.7818608E-02  0.1148734E+00
         21   -1    0    0  503  502  0.00000000000E+00  0.00000000000E+00  0.11431587658E+03  0.11431587658E+03  0.00000000000E+00 0.  1.
         21   -1    0    0  501  503 -0.00000000000E+00 -0.00000000000E+00 -0.36967168691E+03  0.36967168691E+03  0.00000000000E+00 0.  1.
          6    2    1    2  501    0  0.33252425449E+02  0.97026732400E+02 -0.76521829147E+02  0.21558431178E+03  0.17349667014E+03 0.  0.
         24    2    3    3    0    0  0.24510820252E+02  0.79467094799E+01 -0.92013471540E+02  0.12462417145E+03  0.80004841498E+02 0.  0.
         -6    2    1    2    0  502 -0.33252425449E+02 -0.97026732400E+02 -0.17883398118E+03  0.26840325172E+03  0.17186856056E+03 0.  0.
        -24    2    5    5    0    0 -0.69024743679E+02 -0.10814933411E+03 -0.17686586915E+03  0.23059671147E+03  0.73706268141E+02 0.  0.
          5    1    3    3  501    0  0.87416051976E+01  0.89080022920E+02  0.15491642393E+02  0.90960140330E+02  0.47000000000E+01 0. -1.
        -11    1    4    4    0    0  0.32804609540E+02  0.39483770755E+02 -0.59335849615E+02  0.78459248082E+02  0.00000000000E+00 0.  1.
         12    1    4    4    0    0 -0.82937892889E+01 -0.31537061275E+02 -0.32677621925E+02  0.46164923365E+02  0.00000000000E+00 0. -1.
         -5    1    5    5    0  502  0.35772318230E+02  0.11122601711E+02 -0.19681120348E+01  0.37806540246E+02  0.47000000000E+01 0.  1.
         13    1    6    6    0    0  0.73052061064E+01 -0.45815902172E+02 -0.79591767734E+02  0.92126610809E+02  0.00000000000E+00 0. -1.
        -14    1    6    6    0    0 -0.76329949786E+02 -0.62333431939E+02 -0.97274101416E+02  0.13847010066E+03  0.00000000000E+00 0.  1.
</event>
<event>
12    1  0.8449700E-002  0.2859239E+03  0.7818608E-02  0.1092694E+00
         21   -1    0    0  501  502  0.00000000000E+00  0.00000000000E+00  0.32268914368E+03  0.32268914368E+03  0.00000000000E+00 0. -1.
         21   -1    0    0  502  503 -0.00000000000E+00 -0.00000000000E+00 -0.29583392630E+03  0.29583392630E+03  0.00000000000E+00 0. -1.
         -6    2    1    2    0  503  0.22640408533E+03  0.58410230282E+01 -0.10559376081E+03  0.30341162377E+03  0.17209196294E+03 0.  0.
        -24    2    3    3    0    0  0.23950987515E+03 -0.66738436989E+01 -0.70740755158E+02  0.26384894414E+03  0.84867487317E+02 0.  0.
          6    2    1    2  501    0 -0.22640408533E+03 -0.58410230282E+01  0.13244897819E+03  0.31511144622E+03  0.17452668651E+03 0.  0.
         24    2    5    5    0    0 -0.85825589925E+02 -0.18582874066E+02  0.12747098099E+03  0.17379075206E+03  0.79012780066E+02 0.  0.
          5    1    5    5  501    0 -0.14057849541E+03  0.12741851038E+02  0.49779972035E+01  0.14132069415E+03  0.47000000000E+01 0. -1.
        -11    1    6    6    0    0 -0.24514980972E+02  0.16679443525E+02  0.87855203479E+02  0.92723917662E+02  0.00000000000E+00 0.  1.
         12    1    6    6    0    0 -0.61310608952E+02 -0.35262317591E+02  0.39615777510E+02  0.81066834400E+02  0.00000000000E+00 0. -1.
         -5    1    3    3    0  503 -0.13105789812E+02  0.12514866727E+02 -0.34853005655E+02  0.39562679623E+02  0.47000000000E+01 0.  1.
         13    1    4    4    0    0  0.10844915585E+03  0.31049319253E+02 -0.58082134606E+02  0.12688110179E+03  0.00000000000E+00 0. -1.
        -14    1    4    4    0    0  0.13106071929E+03 -0.37723162951E+02 -0.12658620553E+02  0.13696784235E+03  0.00000000000E+00 0.  1.
</event>
<event>
12    1  0.8449700E-002  0.1985449E+03  0.7818608E-02  0.1151099E+00
         21   -1    0    0  501  502  0.00000000000E+00  0.00000000000E+00  0.15473670888E+03  0.15473670888E+03  0.00000000000E+00 0. -1.
         21   -1    0    0  502  503 -0.00000000000E+00 -0.00000000000E+00 -0.33841492211E+03  0.33841492211E+03  0.00000000000E+00 0.  1.
         -6    2    1    2    0  503 -0.63448485350E+02  0.77542754807E+02 -0.21509652519E+03  0.29272269309E+03  0.17141024119E+03 0.  0.
        -24    2    3    3    0    0 -0.48556691253E+02  0.15856288516E+01 -0.41102259933E+02  0.10223031829E+03  0.80008597797E+02 0.  0.
          6    2    1    2  501    0  0.63448485350E+02 -0.77542754807E+02  0.31418311965E+02  0.20042893790E+03  0.17072217110E+03 0.  0.
         24    2    5    5    0    0 -0.10656433849E+02 -0.87427157464E+02 -0.84738422130E+00  0.11886665731E+03  0.79821655674E+02 0.  0.
          5    1    5    5  501    0  0.74104919199E+02  0.98844026564E+01  0.32265696186E+02  0.81562280595E+02  0.47000000000E+01 0. -1.
        -13    1    6    6    0    0  0.83117169510E+01  0.12065060923E+02  0.88545999168E+01  0.17118828039E+02  0.00000000000E+00 0.  1.
         14    1    6    6    0    0 -0.18968150800E+02 -0.99492218387E+02 -0.97019841381E+01  0.10174782927E+03  0.00000000000E+00 0. -1.
         -5    1    3    3    0  503 -0.14891794097E+02  0.75957125956E+02 -0.17399426526E+03  0.19049237480E+03  0.47000000000E+01 0.  1.
         11    1    4    4    0    0 -0.22016463096E+01  0.35451587221E+02 -0.98197320545E+01  0.36852264796E+02  0.00000000000E+00 0. -1.
        -12    1    4    4    0    0 -0.46355044943E+02 -0.33865958369E+02 -0.31282527878E+02  0.65378053492E+02  0.00000000000E+00 0.  1.
</event>
<event>
12    1  0.8449700E-002  0.1774199E+03  0.7818608E-02  0.1170617E+00
         21   -1    0    0  501  502  0.00000000000E+00  0.00000000000E+00  0.58851189257E+02  0.58851189257E+02  0.00000000000E+00 0. -1.
         21   -1    0    0  502  503 -0.00000000000E+00 -0.00000000000E+00 -0.58557663523E+03  0.58557663523E+03  0.00000000000E+00 0. -1.
         -6    2    1    2    0  503  0.39723896725E+02  0.19408887920E+01 -0.36225485271E+03  0.40336883449E+03  0.17290483887E+03 0.  0.
        -24    2    3    3    0    0  0.70211483333E+02 -0.57742203000E+01 -0.35588326570E+03  0.37093886430E+03  0.77328831804E+02 0.  0.
          6    2    1    2  501    0 -0.39723896725E+02 -0.19408887920E+01 -0.16447059326E+03  0.24105898999E+03  0.17168897923E+03 0.  0.
         24    2    5    5    0    0  0.30828989310E+02 -0.17739837281E+02 -0.13834712496E+03  0.16404053703E+03  0.80648883408E+02 0.  0.
          5    1    5    5  501    0 -0.70552886034E+02  0.15798948489E+02 -0.26123468298E+02  0.77018452965E+02  0.47000000000E+01 0. -1.
        -13    1    6    6    0    0  0.44653362974E+02  0.17775744713E+02 -0.93946872283E+02  0.10552684368E+03  0.00000000000E+00 0.  1.
         14    1    6    6    0    0 -0.13824373664E+02 -0.35515581994E+02 -0.44400252679E+02  0.58513693350E+02  0.00000000000E+00 0. -1.
         -5    1    3    3    0  503 -0.30487586608E+02  0.77151090920E+01 -0.63715870053E+01  0.32429970189E+02  0.47000000000E+01 0.  1.
         13    1    4    4    0    0  0.12775402865E+02 -0.18945765553E+02 -0.23852741582E+03  0.23961945048E+03  0.00000000000E+00 0. -1.
        -14    1    4    4    0    0  0.57436080468E+02  0.13171545253E+02 -0.11735584988E+03  0.13131941382E+03  0.00000000000E+00 0.  1.
</event>
<event>
12    1  0.8449700E-002  0.2007593E+03  0.7818608E-02  0.1149331E+00
         21   -1    0    0  503  502  0.00000000000E+00  0.00000000000E+00  0.73154863440E+02  0.73154863440E+02  0.00000000000E+00 0. -1.
         21   -1    0    0  501  503 -0.00000000000E+00 -0.00000000000E+00 -0.72609178347E+03  0.72609178347E+03  0.00000000000E+00 0. -1.
          6    2    1    2  501    0  0.97974331345E+02 -0.33219572394E+02 -0.12784499703E+03  0.23708488722E+03  0.17076999411E+03 0.  0.
         24    2    3    3    0    0  0.24959673395E+02 -0.73439542405E+02 -0.98187099717E+02  0.14848202532E+03  0.79936559892E+02 0.  0.
         -6    2    1    2    0  502 -0.97974331345E+02  0.33219572394E+02 -0.52509192300E+03  0.56216175969E+03  0.17205175637E+03 0.  0.
        -24    2    5    5    0    0 -0.11487283986E+03  0.17695082220E+02 -0.25697077955E+03  0.29301940526E+03  0.79482734257E+02 0.  0.
          5    1    3    3  501    0  0.73014657950E+02  0.40219970011E+02 -0.29657897315E+02  0.88602861898E+02  0.47000000000E+01 0. -1.
        -11    1    4    4    0    0 -0.93970637817E+01  0.10546722098E+02  0.86075798016E+00  0.14151998411E+02  0.00000000000E+00 0.  1.
         12    1    4    4    0    0  0.34356737177E+02 -0.83986264503E+02 -0.99047857697E+02  0.13433002691E+03  0.00000000000E+00 0. -1.
         -5    1    5    5    0  502  0.16898508516E+02  0.15524490174E+02 -0.26812114344E+03  0.26914235443E+03  0.47000000000E+01 0.  1.
         13    1    6    6    0    0 -0.61681063645E+02  0.48737915190E+02 -0.15743360434E+03  0.17596953647E+03  0.00000000000E+00 0. -1.
        -14    1    6    6    0    0 -0.53191776217E+02 -0.31042832970E+02 -0.99537175213E+02  0.11704986880E+03  0.00000000000E+00 0.  1.
</event>
<event>
12    1  0.8449700E-002  0.3226552E+03  0.7818608E-02  0.1074750E+00
         21   -1    0    0  503  502  0.00000000000E+00  0.00000000000E+00  0.18766711409E+04  0.18766711409E+04  0.00000000000E+00 0.  1.
         21   -1    0    0  501  503 -0.00000000000E+00 -0.00000000000E+00 -0.55734237043E+02  0.55734237043E+02  0.00000000000E+00 0. -1.
          6    2    1    2  501    0  0.84024063830E+01  0.26947168377E+03  0.10253077272E+04  0.10748778153E+04  0.17725911443E+03 0.  0.
         24    2    3    3    0    0  0.61853304096E+01  0.99685518617E+02  0.64853512807E+03  0.66158380526E+03  0.84379251651E+02 0.  0.
         -6    2    1    2    0  502 -0.84024063830E+01 -0.26947168377E+03  0.79562917675E+03  0.85752756270E+03  0.17216894353E+03 0.  0.
        -24    2    5    5    0    0  0.11837769799E+02 -0.24995270676E+03  0.53881068585E+03  0.59913158274E+03  0.77622225131E+02 0.  0.
          5    1    3    3  501    0  0.22170759734E+01  0.16978616515E+03  0.37677259908E+03  0.41329401002E+03  0.47000000000E+01 0. -1.
        -13    1    4    4    0    0  0.12187104380E+02  0.11312397879E+03  0.60561722156E+03  0.61621244644E+03  0.00000000000E+00 0.  1.
         14    1    4    4    0    0 -0.60017739707E+01 -0.13438460173E+02  0.42917906510E+02  0.45371358827E+02  0.00000000000E+00 0. -1.
         -5    1    5    5    0  502 -0.20240176182E+02 -0.19518977002E+02  0.25681849090E+03  0.25839597996E+03  0.47000000000E+01 0.  1.
         13    1    6    6    0    0  0.30200957233E+02 -0.16226328479E+03  0.27732755264E+03  0.32272595629E+03  0.00000000000E+00 0. -1.
        -14    1    6    6    0    0 -0.18363187434E+02 -0.87689421971E+02  0.26148313321E+03  0.27640562645E+03  0.00000000000E+00 0.  1.
</event>
<event>
12    1  0.8449700E-002  0.1736613E+03  0.7818608E-02  0.1174673E+00
         21   -1    0    0  501  502  0.00000000000E+00  0.00000000000E+00  0.35684982727E+02  0.35684982727E+02  0.00000000000E+00 0. -1.
         21   -1    0    0  502  503 -0.00000000000E+00 -0.00000000000E+00 -0.91106068644E+03  0.91106068644E+03  0.00000000000E+00 0. -1.
         -6    2    1    2    0  503  0.17870110004E+02  0.13089141417E+02 -0.57275506971E+03  0.59783667127E+03  0.16991070946E+03 0.  0.
        -24    2    3    3    0    0 -0.27186124394E+02 -0.74894861613E+00 -0.51991367983E+03  0.52687288136E+03  0.80902115916E+02 0.  0.
          6    2    1    2  501    0 -0.17870110004E+02 -0.13089141417E+02 -0.30262063401E+03  0.34890899790E+03  0.17224277701E+03 0.  0.
         24    2    5    5    0    0 -0.73296034911E+01  0.36614261014E+02 -0.78051788290E+02  0.11861616918E+03  0.81138072070E+02 0.  0.
          5    1    5    5  501    0 -0.10540506513E+02 -0.49703402431E+02 -0.22456884572E+03  0.23029282871E+03  0.47000000000E+01 0. -1.
        -11    1    6    6    0    0 -0.21134407936E+02 -0.35395916083E+01 -0.72732642797E+02  0.75823672001E+02  0.00000000000E+00 0.  1.
         12    1    6    6    0    0  0.13804804445E+02  0.40153852623E+02 -0.53191454936E+01  0.42792497181E+02  0.00000000000E+00 0. -1.
         -5    1    3    3    0  503  0.45056234398E+02  0.13838090033E+02 -0.52841389880E+02  0.70963789910E+02  0.47000000000E+01 0.  1.
         13    1    4    4    0    0 -0.25899020317E+02  0.27225704781E+02 -0.44989686641E+03  0.45146338573E+03  0.00000000000E+00 0. -1.
        -14    1    4    4    0    0 -0.12871040766E+01 -0.27974653397E+02 -0.70016813422E+02  0.75409495631E+02  0.00000000000E+00 0.  1.
</event>
<event>
12    1  0.8449700E-002  0.1977520E+03  0.7818608E-02  0.1152104E+00
         21   -1    0    0  503  502  0.00000000000E+00  0.00000000000E+00  0.49288345058E+02  0.49288345058E+02  0.00000000000E+00 0. -1.
         21   -1    0    0  501  503 -0.00000000000E+00 -0.00000000000E+00 -0.97247207600E+03  0.97247207600E+03  0.00000000000E+00 0. -1.
          6    2    1    2  501    0  0.64365478619E+02  0.71977122433E+02 -0.68391930253E+03  0.71135213394E+03  0.17015470931E+03 0.  0.
         24    2    3    3    0    0  0.47222566719E+02 -0.25130563747E+02 -0.36320886949E+03  0.37579132872E+03  0.80230441981E+02 0.  0.
         -6    2    1    2    0  502 -0.64365478619E+02 -0.71977122433E+02 -0.23926442841E+03  0.31040828712E+03  0.17257525030E+03 0.  0.
        -24    2    5    5    0    0 -0.77051624571E+01 -0.53785896944E+02 -0.43668125169E+02  0.10590568089E+03  0.79729642227E+02 0.  0.
          5    1    3    3  501    0  0.17142911900E+02  0.97107686179E+02 -0.32071043303E+03  0.33556080522E+03  0.47000000000E+01 0. -1.
        -11    1    4    4    0    0 -0.64846922463E+01 -0.30236560988E+02 -0.23004281548E+03  0.23211203718E+03  0.00000000000E+00 0.  1.
         12    1    4    4    0    0  0.53707258965E+02  0.51059972418E+01 -0.13316605402E+03  0.14367929153E+03  0.00000000000E+00 0. -1.
         -5    1    5    5    0  502 -0.56660316162E+02 -0.18191225489E+02 -0.19559630324E+03  0.20450260623E+03  0.47000000000E+01 0.  1.
         11    1    6    6    0    0  0.28656997335E+02 -0.16572321334E+02 -0.42489430232E+02  0.53862946560E+02  0.00000000000E+00 0. -1.
        -12    1    6    6    0    0 -0.36362159792E+02 -0.37213575610E+02 -0.11786949369E+01  0.52042734327E+02  0.00000000000E+00 0.  1.
</event>
<event>
12    1  0.8449700E-002  0.2129227E+03  0.7818608E-02  0.1139497E+00
         21   -1    0    0  503  502  0.00000000000E+00  0.00000000000E+00  0.15632869290E+04  0.15632869290E+04  0.00000000000E+00 0. -1.
         21   -1    0    0  501  503 -0.00000000000E+00 -0.00000000000E+00 -0.34294543298E+02  0.34294543298E+02  0.00000000000E+00 0. -1.
          6    2    1    2  501    0 -0.71149951425E+02  0.10132187101E+03  0.10847021579E+04  0.11054025714E+04  0.17322712380E+03 0.  0.
         24    2    3    3    0    0 -0.69341716213E+02  0.15309332561E+02  0.82194846474E+03  0.82888309696E+03  0.80032871203E+02 0.  0.
         -6    2    1    2    0  502  0.71149951425E+02 -0.10132187101E+03  0.44429022776E+03  0.49217890084E+03  0.17180752839E+03 0.  0.
        -24    2    5    5    0    0  0.94711629988E+02 -0.38062442708E+02  0.20993115278E+03  0.24824617652E+03  0.84475042758E+02 0.  0.
          5    1    3    3  501    0 -0.18082352116E+01  0.86012538454E+02  0.26275369319E+03  0.27651947449E+03  0.47000000000E+01 0. -1.
        -13    1    4    4    0    0 -0.18772544823E+01 -0.13993306946E+02  0.42145099414E+03  0.42168741644E+03  0.00000000000E+00 0.  1.
         14    1    4    4    0    0 -0.67464461731E+02  0.29302639508E+02  0.40049747059E+03  0.40719568052E+03  0.00000000000E+00 0. -1.
         -5    1    5    5    0  502 -0.23561678563E+02 -0.63259428307E+02  0.23435907498E+03  0.24393272432E+03  0.47000000000E+01 0.  1.
         11    1    6    6    0    0  0.40315995704E+00 -0.37706638940E+02  0.69808011795E+02  0.79341739765E+02  0.00000000000E+00 0. -1.
        -12    1    6    6    0    0  0.94308470031E+02 -0.35580376833E+00  0.14012314098E+03  0.16890443675E+03  0.00000000000E+00 0.  1.
</event>
<event>
12    1  0.8449700E-002  0.2331494E+03  0.7818608E-02  0.1124570E+00
         21   -1    0    0  503  502  0.00000000000E+00  0.00000000000E+00  0.15625119716E+04  0.15625119716E+04  0.00000000000E+00 0.  1.
         21   -1    0    0  501  503 -0.00000000000E+00 -0.00000000000E+00 -0.42930086886E+02  0.42930086886E+02  0.00000000000E+00 0.  1.
          6    2    1    2  501    0 -0.12034170371E+03 -0.10060163526E+03  0.11107222816E+04  0.11347778209E+04  0.17150481409E+03 0.  0.
         24    2    3    3    0    0 -0.12341401664E+03 -0.12053054226E+03  0.76035586748E+03  0.78380016549E+03  0.80268443906E+02 0.  0.
         -6    2    1    2    0  502  0.12034170371E+03  0.10060163526E+03  0.40885960309E+03  0.47066423758E+03  0.17249879661E+03 0.  0.
        -24    2    5    5    0    0  0.96094836200E+02  0.47826383046E+02  0.38517079058E+03  0.40776441510E+03  0.79960614345E+02 0.  0.
          5    1    3    3  501    0  0.30723129361E+01  0.19928907009E+02  0.35036641414E+03  0.35097765542E+03  0.47000000000E+01 0. -1.
        -13    1    4    4    0    0 -0.25014638724E+02 -0.16054569536E+02  0.30300780286E+03  0.30446216505E+03  0.00000000000E+00 0.  1.
         14    1    4    4    0    0 -0.98399377921E+02 -0.10447597273E+03  0.45734806462E+03  0.47933800044E+03  0.00000000000E+00 0. -1.
         -5    1    5    5    0  502  0.24246867509E+02  0.52775252209E+02  0.23688812507E+02  0.62899822478E+02  0.47000000000E+01 0.  1.
         11    1    6    6    0    0  0.98811683368E+02  0.14106115448E+02  0.29719288057E+03  0.31350652230E+03  0.00000000000E+00 0. -1.
        -12    1    6    6    0    0 -0.27168471687E+01  0.33720267598E+02  0.87977910017E+02  0.94257892806E+02  0.00000000000E+00 0.  1.
</event>
<event>
12    1  0.8449700E-002  0.2092806E+03  0.7818608E-02  0.1142869E+00
         21   -1    0    0  501  502  0.00000000000E+00  0.00000000000E+00  0.45925515329E+02  0.45925515329E+02  0.00000000000E+00 0. -1.
         21   -1    0    0  502  503 -0.00000000000E+00 -0.00000000000E+00 -0.15621293647E+04  0.15621293647E+04  0.00000000000E+00 0. -1.
         -6    2    1    2    0  503  0.11829407157E+03  0.11531102811E+02 -0.12626615047E+04  0.12792964898E+04  0.16780637547E+03 0.  0.
        -24    2    3    3    0    0  0.95895546007E+02 -0.10005312768E+02 -0.12185543626E+04  0.12251389315E+04  0.82429391976E+02 0.  0.
          6    2    1    2  501    0 -0.11829407157E+03 -0.11531102811E+02 -0.25354234466E+03  0.32875839023E+03  0.17225534798E+03 0.  0.
         24    2    5    5    0    0 -0.12627043229E+03  0.11244661573E+02 -0.26261602016E+03  0.30255191468E+03  0.80621476975E+02 0.  0.
          5    1    5    5  501    0  0.79763607225E+01 -0.22775764384E+02  0.90736754918E+01  0.26206475546E+02  0.47000000000E+01 0. -1.
        -11    1    6    6    0    0 -0.10052189235E+03 -0.25588071030E+02 -0.16209961830E+03  0.19244658083E+03  0.00000000000E+00 0.  1.
         12    1    6    6    0    0 -0.25748539942E+02  0.36832732603E+02 -0.10051640185E+03  0.11010533385E+03  0.00000000000E+00 0. -1.
         -5    1    3    3    0  503  0.22398525563E+02  0.21536415579E+02 -0.44107142072E+02  0.54157558338E+02  0.47000000000E+01 0.  1.
         13    1    4    4    0    0 -0.38095829940E+00  0.16595210569E+02 -0.42487325825E+03  0.42519740324E+03  0.00000000000E+00 0. -1.
        -14    1    4    4    0    0  0.96276504306E+02 -0.26600523337E+02 -0.79368110437E+03  0.79994152821E+03  0.00000000000E+00 0.  1.
</event>
<event>
12    1  0.8449700E-002  0.3328106E+03  0.7818608E-02  0.1070029E+00
         21   -1    0    0  501  502  0.00000000000E+00  0.00000000000E+00  0.10976870730E+03  0.10976870730E+03  0.00000000000E+00 0.  1.
         21   -1    0    0  502  503 -0.00000000000E+00 -0.00000000000E+00 -0.13577411973E+04  0.13577411973E+04  0.00000000000E+00 0. -1.
         -6    2    1    2    0  503 -0.45941712702E+01 -0.28460473818E+03 -0.99690651292E+03  0.10506201912E+04  0.17017410884E+03 0.  0.
        -24    2    3    3    0    0 -0.75127353322E+02 -0.11268031700E+03 -0.46506388716E+03  0.48722725114E+03  0.52583286886E+02 0.  0.
          6    2    1    2  501    0  0.45941712702E+01  0.28460473818E+03 -0.25106597711E+03  0.41688971339E+03  0.17245853087E+03 0.  0.
         24    2    5    5    0    0 -0.32811214422E+01  0.20567428339E+03 -0.92214906117E+02  0.23927273874E+03  0.80219561143E+02 0.  0.
          5    1    5    5  501    0  0.78752927124E+01  0.78930454789E+02 -0.15885107099E+03  0.17761697465E+03  0.47000000000E+01 0. -1.
        -11    1    6    6    0    0  0.11004157689E+02  0.19655989780E+03 -0.99786295309E+02  0.22071291227E+03  0.00000000000E+00 0.  1.
         12    1    6    6    0    0 -0.14285279131E+02  0.91143855883E+01  0.75713891926E+01  0.18559826476E+02  0.00000000000E+00 0. -1.
         -5    1    3    3    0  503  0.70533182052E+02 -0.17192442118E+03 -0.53184262577E+03  0.56339294010E+03  0.47000000000E+01 0.  1.
         11    1    4    4    0    0 -0.52400074512E+02 -0.52021358996E+02 -0.17357194255E+03  0.18862451814E+03  0.00000000000E+00 0. -1.
        -12    1    4    4    0    0 -0.22727278810E+02 -0.60658958003E+02 -0.29149194460E+03  0.29860273300E+03  0.00000000000E+00 0.  1.
</event>
<event>
12    1  0.8449700E-002  0.1836520E+03  0.7818608E-02  0.1164507E+00
         21   -1    0    0  503  502  0.00000000000E+00  0.00000000000E+00  0.13528101931E+03  0.13528101931E+03  0.00000000000E+00 0.  1.
         21   -1    0    0  501  503 -0.00000000000E+00 -0.00000000000E+00 -0.25440408669E+03  0.25440408669E+03  0.00000000000E+00 0.  1.
          6    2    1    2  501    0  0.67637449132E+02 -0.21074114353E+02 -0.89826605179E+02  0.20371104913E+03  0.16855393712E+03 0.  0.
         24    2    3    3    0    0  0.79676306993E+02 -0.42345624668E+02 -0.10432297763E+02  0.12050673854E+03  0.79193278585E+02 0.  0.
         -6    2    1    2    0  502 -0.67637449132E+02  0.21074114353E+02 -0.29296462198E+02  0.18597405688E+03  0.16943767088E+03 0.  0.
        -24    2    5    5    0    0  0.12370184380E+02 -0.11828576822E+02  0.22902842362E+02  0.84827302589E+02  0.79863598623E+02 0.  0.
          5    1    3    3  501    0 -0.12038857861E+02  0.21271510315E+02 -0.79394307416E+02  0.83204310583E+02  0.47000000000E+01 0. -1.
        -13    1    4    4    0    0  0.55734788282E+02  0.90087683219E+01  0.14974445083E+02  0.58410260546E+02  0.00000000000E+00 0.  1.
         14    1    4    4    0    0  0.23941518711E+02 -0.51354392990E+02 -0.25406742846E+02  0.62096477997E+02  0.00000000000E+00 0. -1.
         -5    1    5    5    0  502 -0.80007633512E+02  0.32902691175E+02 -0.52199304560E+02  0.10114675429E+03  0.47000000000E+01 0.  1.
         13    1    6    6    0    0  0.97503510977E+01  0.29145300586E+02 -0.98857718177E+01  0.32283840807E+02  0.00000000000E+00 0. -1.
        -14    1    6    6    0    0  0.26198332822E+01 -0.40973877408E+02  0.32788614180E+02  0.52543461783E+02  0.00000000000E+00 0.  1.
</event>
<event>
12    1  0.8449700E-002  0.2030008E+03  0.7818608E-02  0.1147253E+00
         21   -1    0    0  503  502  0.00000000000E+00  0.00000000000E+00  0.22946535814E+03  0.22946535814E+03  0.00000000000E+00 0.  1.
         21   -1    0    0  501  503 -0.00000000000E+00 -0.00000000000E+00 -0.20467446783E+03  0.20467446783E+03  0.00000000000E+00 0. -1.
          6    2    1    2  501    0 -0.72932249765E+02 -0.80027683482E+02 -0.63737796369E+02  0.21267501968E+03  0.17159433013E+03 0.  0.
         24    2    3    3    0    0 -0.43027475887E+02  0.15707735921E+02 -0.64859834925E+02  0.11226130050E+03  0.79358079329E+02 0.  0.
         -6    2    1    2    0  502  0.72932249765E+02  0.80027683482E+02  0.88528686683E+02  0.22146480628E+03  0.17171426521E+03 0.  0.
        -24    2    5    5    0    0  0.15798662841E+02  0.13994858803E+00 -0.90471215839E+01  0.82938905096E+02  0.80915970218E+02 0.  0.
          5    1    3    3  501    0 -0.29904773879E+02 -0.95735419403E+02  0.11220385562E+01  0.10041371918E+03  0.47000000000E+01 0. -1.
        -13    1    4    4    0    0 -0.44809425128E+01  0.57694123204E+00  0.18574417687E+02  0.19115980211E+02  0.00000000000E+00 0.  1.
         14    1    4    4    0    0 -0.38546533374E+02  0.15130794689E+02 -0.83434252613E+02  0.93145320291E+02  0.00000000000E+00 0. -1.
         -5    1    5    5    0  502  0.57133586924E+02  0.79887734894E+02  0.97575808267E+02  0.13852590119E+03  0.47000000000E+01 0.  1.
         13    1    6    6    0    0 -0.74559128599E+01  0.37609143074E+02 -0.38011723814E+01  0.38529043471E+02  0.00000000000E+00 0. -1.
        -14    1    6    6    0    0  0.23254575701E+02 -0.37469194486E+02 -0.52459492025E+01  0.44409861624E+02  0.00000000000E+00 0.  1.
</event>
<event>
12    1  0.8449700E-002  0.1881142E+03  0.7818608E-02  0.1160698E+00
         21   -1    0    0  503  502  0.00000000000E+00  0.00000000000E+00  0.76081426973E+03  0.76081426973E+03  0.00000000000E+00 0.  1.
         21   -1    0    0  501  503 -0.00000000000E+00 -0.00000000000E+00 -0.66023719572E+02  0.66023719572E+02  0.00000000000E+00 0.  1.
          6    2    1    2  501    0 -0.52679964047E+02 -0.44148836433E+02  0.11796232228E+03  0.22011091597E+03  0.17265401091E+03 0.  0.
         24    2    3    3    0    0 -0.41376681986E+02  0.18420903446E+02  0.12661046702E+03  0.15577106097E+03  0.78632395251E+02 0.  0.
         -6    2    1    2    0  502  0.52679964047E+02  0.44148836433E+02  0.57682822788E+03  0.60672707333E+03  0.17510750602E+03 0.  0.
        -24    2    5    5    0    0  0.49893773221E+02  0.46817811024E+01  0.13178233264E+03  0.15990121219E+03  0.75435447789E+02 0.  0.
          5    1    3    3  501    0 -0.11303282061E+02 -0.62569739878E+02 -0.86481447369E+01  0.64339854998E+02  0.47000000000E+01 0. -1.
        -11    1    4    4    0    0 -0.17133250524E+02  0.18074850902E+01 -0.72724218482E+01  0.18700358162E+02  0.00000000000E+00 0.  1.
         12    1    4    4    0    0 -0.24243431463E+02  0.16613418355E+02  0.13388288886E+03  0.13707070281E+03  0.00000000000E+00 0. -1.
         -5    1    5    5    0  502  0.27861908260E+01  0.39467055330E+02  0.44504589524E+03  0.44682586115E+03  0.47000000000E+01 0.  1.
         13    1    6    6    0    0  0.58395472744E+02  0.26050853435E+02  0.74520703624E+02  0.98193754742E+02  0.00000000000E+00 0. -1.
        -14    1    6    6    0    0 -0.85016995226E+01 -0.21369072332E+02  0.57261629014E+02  0.61707457446E+02  0.00000000000E+00 0.  1.
</event>
<event>
12    1  0.8449700E-002  0.1803348E+03  0.7818608E-02  0.1168476E+00
         21   -1    0    0  501  502  0.00000000000E+00  0.00000000000E+00  0.64718937083E+03  0.64718937083E+03  0.00000000000E+00 0. -1.
         21   -1    0    0  502  503 -0.00000000000E+00 -0.00000000000E+00 -0.52818109527E+02  0.52818109527E+02  0.00000000000E+00 0. -1.
         -6    2    1    2    0  503 -0.51465629544E+02 -0.10835893822E+02  0.20773060784E+03  0.27508663273E+03  0.17249499255E+03 0.  0.
        -24    2    3    3    0    0 -0.86364390026E+02 -0.49162474982E+02  0.14923533443E+03  0.19678824630E+03  0.81109013236E+02 0.  0.
          6    2    1    2  501    0  0.51465629544E+02  0.10835893822E+02  0.38664065346E+03  0.42492084763E+03  0.16822783425E+03 0.  0.
         24    2    5    5    0    0  0.36200297151E+02  0.35797175001E+02  0.10321339570E+03  0.13994857463E+03  0.79628507696E+02 0.  0.
          5    1    5    5  501    0  0.15265332393E+02 -0.24961281179E+02  0.28342725777E+03  0.28497227299E+03  0.47000000000E+01 0. -1.
        -11    1    6    6    0    0 -0.19744029285E+02  0.71301387431E+01  0.23814886587E+01  0.21126690682E+02  0.00000000000E+00 0.  1.
         12    1    6    6    0    0  0.55944326436E+02  0.28667036258E+02  0.10083190704E+03  0.11882188395E+03  0.00000000000E+00 0. -1.
         -5    1    3    3    0  503  0.34898760482E+02  0.38326581160E+02  0.58495273406E+02  0.78298386430E+02  0.47000000000E+01 0.  1.
         13    1    4    4    0    0 -0.26815374017E+02  0.10033309042E+01  0.10254757771E+03  0.10600036156E+03  0.00000000000E+00 0. -1.
        -14    1    4    4    0    0 -0.59549016009E+02 -0.50165805886E+02  0.46687756720E+02  0.90787884739E+02  0.00000000000E+00 0.  1.
</event>
<event>
12    1  0.8449700E-002  0.1847984E+03  0.7818608E-02  0.1163490E+00
         21   -1    0    0  503  502  0.00000000000E+00  0.00000000000E+00  0.24415576396E+03  0.24415576396E+03  0.00000000000E+00 0. -1.
         21   -1    0    0  501  503 -0.00000000000E+00 -0.00000000000E+00 -0.14573459303E+03  0.14573459303E+03  0.00000000000E+00 0. -1.
          6    2    1    2  501    0 -0.80804902406E+01  0.64989353449E+02  0.73524062519E+01  0.18387099321E+03  0.17165539282E+03 0.  0.
         24    2    3    3    0    0 -0.14956316874E+02 -0.26081064155E+02  0.30529216737E+02  0.89529313671E+02  0.78610124093E+02 0.  0.
         -6    2    1    2    0  502  0.80804902406E+01 -0.64989353449E+02  0.91068764684E+02  0.20601936378E+03  0.17280494196E+03 0.  0.
        -24    2    5    5    0    0  0.55059575312E+02 -0.58696845430E+01  0.17467531835E+02  0.10046652790E+03  0.81990234353E+02 0.  0.
          5    1    3    3  501    0  0.68758266337E+01  0.91070417603E+02 -0.23176810485E+02  0.94341679541E+02  0.47000000000E+01 0. -1.
        -13    1    4    4    0    0  0.30539700208E+02  0.68795394039E+00  0.52265154798E+01  0.30991338039E+02  0.00000000000E+00 0.  1.
         14    1    4    4    0    0 -0.45496017082E+02 -0.26769018095E+02  0.25302701257E+02  0.58537975632E+02  0.00000000000E+00 0. -1.
         -5    1    5    5    0  502 -0.46979085072E+02 -0.59119668906E+02  0.73601232849E+02  0.10555283588E+03  0.47000000000E+01 0.  1.
         11    1    6    6    0    0  0.50072187860E+02 -0.65222643896E+01 -0.25940122466E+02  0.56768423295E+02  0.00000000000E+00 0. -1.
        -12    1    6    6    0    0  0.49873874526E+01  0.65257984666E+00  0.43407654300E+02  0.43698104603E+02  0.00000000000E+00 0.  1.
</event>
<event>
12    1  0.8449700E-002  0.1886032E+03  0.7818608E-02  0.1160009E+00
         21   -1    0    0  503  502  0.00000000000E+00  0.00000000000E+00  0.15285381622E+03  0.15285381622E+03  0.00000000000E+00 0.  1.
         21   -1    0    0  501  503 -0.00000000000E+00 -0.00000000000E+00 -0.54234656239E+03  0.54234656239E+03  0.00000000000E+00 0.  1.
          6    2    1    2  501    0 -0.48055188632E+02 -0.56394516511E+02 -0.45830556159E+03  0.49559577274E+03  0.17344030537E+03 0.  0.
         24    2    3    3    0    0 -0.24709173906E+02 -0.10332574102E+03 -0.36330026128E+03  0.38698788479E+03  0.80534409401E+02 0.  0.
         -6    2    1    2    0  502  0.48055188632E+02  0.56394516511E+02  0.68812815422E+02  0.19960460587E+03  0.17209634648E+03 0.  0.
        -24    2    5    5    0    0  0.37258553952E+02  0.70746785372E+02 -0.15033286321E+02  0.11372787026E+03  0.79465220652E+02 0.  0.
          5    1    3    3  501    0 -0.23346014725E+02  0.46931224509E+02 -0.95005300309E+02  0.10860788795E+03  0.47000000000E+01 0. -1.
        -13    1    4    4    0    0 -0.63895295426E+01 -0.77842699802E+02 -0.33732267709E+03  0.34624687794E+03  0.00000000000E+00 0.  1.
         14    1    4    4    0    0 -0.18319644364E+02 -0.25483041218E+02 -0.25977584185E+02  0.40741006853E+02  0.00000000000E+00 0. -1.
         -5    1    5    5    0  502  0.10796634680E+02 -0.14352268861E+02  0.83846101743E+02  0.85876735612E+02  0.47000000000E+01 0.  1.
         13    1    6    6    0    0  0.14756894903E+02 -0.11633380263E+02 -0.20928598862E+02  0.28126637442E+02  0.00000000000E+00 0. -1.
        -14    1    6    6    0    0  0.22501659049E+02  0.82380165634E+02  0.58953125407E+01  0.85601232817E+02  0.00000000000E+00 0.  1.
</event>
<event>
12    1  0.8449700E-002  0.2595449E+03  0.7818608E-02  0.1107790E+00
         21   -1    0    0  501  502  0.00000000000E+00  0.00000000000E+00  0.48225840680E+03  0.48225840680E+03  0.00000000000E+00 0.  1.
         21   -1    0    0  502  503 -0.00000000000E+00 -0.00000000000E+00 -0.15397620437E+03  0.15397620437E+03  0.00000000000E+00 0. -1.
         -6    2    1    2    0  503 -0.96458135499E+02  0.16862538491E+03  0.26614908574E+03  0.37175109017E+03  0.17211869411E+03 0.  0.
        -24    2    3    3    0    0 -0.44809257033E+02  0.92406664474E+02  0.55688423487E+02  0.14198451221E+03  0.80694114047E+02 0.  0.
          6    2    1    2  501    0  0.96458135499E+02 -0.16862538491E+03  0.62133116694E+02  0.26448352100E+03  0.16838146083E+03 0.  0.
         24    2    5    5    0    0  0.41511038642E+02 -0.14838111808E+02  0.38595599750E+01  0.91025727192E+02  0.79545275890E+02 0.  0.
          5    1    5    5  501    0  0.54947096857E+02 -0.15378727310E+03  0.58273556719E+02  0.17345779381E+03  0.47000000000E+01 0. -1.
        -13    1    6    6    0    0 -0.21857389065E+02 -0.16627747571E+02 -0.65998601414E+00  0.27471130803E+02  0.00000000000E+00 0.  1.
         14    1    6    6    0    0  0.63368427707E+02  0.17896357628E+01  0.45195459892E+01  0.63554596389E+02  0.00000000000E+00 0. -1.
         -5    1    3    3    0  503 -0.51648878466E+02  0.76218720432E+02  0.21046066225E+03  0.22976657796E+03  0.47000000000E+01 0.  1.
         13    1    4    4    0    0 -0.92858140840E+01  0.69278214364E+02  0.68332441014E+02  0.97749781707E+02  0.00000000000E+00 0. -1.
        -14    1    4    4    0    0 -0.35523442949E+02  0.23128450110E+02 -0.12644017527E+02  0.44234730503E+02  0.00000000000E+00 0.  1.
</event>
<event>
12    1  0.8449700E-002  0.1852795E+03  0.7818608E-02  0.1163258E+00
         21   -1    0    0  501  502  0.00000000000E+00  0.00000000000E+00  0.24862872852E+03  0.24862872852E+03  0.00000000000E+00 0. -1.
         21   -1    0    0  502  503 -0.00000000000E+00 -0.00000000000E+00 -0.44748670938E+03  0.44748670938E+03  0.00000000000E+00 0.  1.
         -6    2    1    2    0  503 -0.28601646605E+01 -0.65895147208E+02 -0.38937964939E+03  0.43035803312E+03  0.17100050980E+03 0.  0.
        -24    2    3    3    0    0  0.12885989355E+02 -0.10293079855E+03 -0.22014722826E+03  0.25634285219E+03  0.80536064862E+02 0.  0.
          6    2    1    2  501    0  0.28601646605E+01  0.65895147208E+02  0.19052166853E+03  0.26575740478E+03  0.17314196790E+03 0.  0.
         24    2    5    5    0    0  0.42808065276E+02  0.21534428569E+01  0.43069777969E+02  0.10015852294E+03  0.79621329893E+02 0.  0.
          5    1    5    5  501    0 -0.39947900615E+02  0.63741704352E+02  0.14745189056E+03  0.16559888184E+03  0.47000000000E+01 0. -1.
        -11    1    6    6    0    0  0.97553124115E+01 -0.55134394656E+01 -0.23168243313E+02  0.25735804499E+02  0.00000000000E+00 0.  1.
         12    1    6    6    0    0  0.33052752864E+02  0.76668823225E+01  0.66238021283E+02  0.74422718439E+02  0.00000000000E+00 0. -1.
         -5    1    3    3    0  503 -0.15746154016E+02  0.37035651345E+02 -0.16923242112E+03  0.17401518094E+03  0.47000000000E+01 0.  1.
         13    1    4    4    0    0 -0.17258635733E+02 -0.20312357124E+02 -0.98836472154E+01  0.28427782917E+02  0.00000000000E+00 0. -1.
        -14    1    4    4    0    0  0.30144625088E+02 -0.82618441429E+02 -0.21026358105E+03  0.22791506927E+03  0.00000000000E+00 0.  1.
</event>
<event>
12    1  0.8449700E-002  0.2302872E+03  0.7818608E-02  0.1126745E+00
         21   -1    0    0  501  502  0.00000000000E+00  0.00000000000E+00  0.90624074806E+02  0.90624074806E+02  0.00000000000E+00 0.  1.
         21   -1    0    0  502  503 -0.00000000000E+00 -0.00000000000E+00 -0.62133892821E+03  0.62133892821E+03  0.00000000000E+00 0. -1.
         -6    2    1    2    0  503  0.12412488843E+03  0.88738147806E+02 -0.35726145807E+03  0.42505053660E+03  0.17248409329E+03 0.  0.
        -24    2    3    3    0    0  0.98052210391E+02  0.12978906700E+03 -0.27872578780E+03  0.33255781250E+03  0.80294433169E+02 0.  0.
          6    2    1    2  501    0 -0.12412488843E+03 -0.88738147806E+02 -0.17345339534E+03  0.28691246642E+03  0.17015062805E+03 0.  0.
         24    2    5    5    0    0 -0.78816193545E+02  0.33250042251E+00 -0.39286604559E+02  0.11955274618E+03  0.80853688234E+02 0.  0.
          5    1    5    5  501    0 -0.45308694888E+02 -0.89070648229E+02 -0.13416679078E+03  0.16735972023E+03  0.47000000000E+01 0. -1.
        -11    1    6    6    0    0 -0.39670327211E+00 -0.24936438372E+02  0.58392343110E+01  0.25614058435E+02  0.00000000000E+00 0.  1.
         12    1    6    6    0    0 -0.78419490272E+02  0.25268938794E+02 -0.45125838870E+02  0.93938687750E+02  0.00000000000E+00 0. -1.
         -5    1    3    3    0  503  0.26072678042E+02 -0.41050919190E+02 -0.78535670267E+02  0.92492724097E+02  0.47000000000E+01 0.  1.
         11    1    4    4    0    0 -0.12231519952E+02  0.23239423510E+02 -0.26052647345E+02  0.36992179162E+02  0.00000000000E+00 0. -1.
        -12    1    4    4    0    0  0.11028373034E+03  0.10654964349E+03 -0.25267314045E+03  0.29556563334E+03  0.00000000000E+00 0.  1.
</event>
<event>
12    1  0.8449700E-002  0.2444221E+03  0.7818608E-02  0.1116955E+00
         21   -1    0    0  503  502  0.00000000000E+00  0.00000000000E+00  0.53297488463E+03  0.53297488463E+03  0.00000000000E+00 0. -1.
         21   -1    0    0  501  503 -0.00000000000E+00 -0.00000000000E+00 -0.53691685546E+03  0.53691685546E+03  0.00000000000E+00 0. -1.
          6    2    1    2  501    0  0.14606262553E+03  0.91734968874E+02 -0.47792821019E+03  0.53680308489E+03  0.17318366772E+03 0.  0.
         24    2    3    3    0    0  0.62288284578E+02  0.78743519625E+01 -0.10874874627E+03  0.14903213465E+03  0.80264883537E+02 0.  0.
         -6    2    1    2    0  502 -0.14606262553E+03 -0.91734968874E+02  0.47398623936E+03  0.53308865520E+03  0.17254264431E+03 0.  0.
        -24    2    5    5    0    0 -0.16657223800E+03 -0.99837851280E+02  0.46334280729E+03  0.50815527289E+03  0.76297557477E+02 0.  0.
          5    1    3    3  501    0  0.83774340949E+02  0.83860616912E+02 -0.36917946392E+03  0.38777095025E+03  0.47000000000E+01 0. -1.
        -13    1    4    4    0    0  0.57241792455E+01 -0.27874651027E+01 -0.87413601593E+02  0.87645159211E+02  0.00000000000E+00 0.  1.
         14    1    4    4    0    0  0.56564105332E+02  0.10661817065E+02 -0.21335144673E+02  0.61386975437E+02  0.00000000000E+00 0. -1.
         -5    1    5    5    0  502  0.20509612475E+02  0.81028824051E+01  0.10643432075E+02  0.24933382311E+02  0.47000000000E+01 0.  1.
         13    1    6    6    0    0 -0.10198883915E+03 -0.91053874949E+02  0.24830898349E+03  0.28346054881E+03  0.00000000000E+00 0. -1.
        -14    1    6    6    0    0 -0.64583398856E+02 -0.87839763303E+01  0.21503382381E+03  0.22469472408E+03  0.00000000000E+00 0.  1.
</event>
<event>
12    1  0.8449700E-002  0.1778253E+03  0.7818608E-02  0.1170067E+00
         21   -1    0    0  503  502  0.00000000000E+00  0.00000000000E+00  0.43497420484E+02  0.43497420484E+02  0.00000000000E+00 0. -1.
         21   -1    0    0  501  503 -0.00000000000E+00 -0.00000000000E+00 -0.12220491954E+04  0.12220491954E+04  0.00000000000E+00 0. -1.
          6    2    1    2  501    0  0.49084539434E+02 -0.88813686104E+01 -0.99241687944E+03  0.10081208055E+04  0.17008270121E+03 0.  0.
         24    2    3    3    0    0  0.46682854103E+02 -0.34028572616E+02 -0.96713407296E+03  0.97207277834E+03  0.78993282554E+02 0.  0.
         -6    2    1    2    0  502 -0.49084539434E+02  0.88813686104E+01 -0.18613489545E+03  0.25742581032E+03  0.17068590391E+03 0.  0.
        -24    2    5    5    0    0  0.31743253237E+02 -0.21439389948E+02 -0.95110430376E+02  0.13188687727E+03  0.82951026895E+02 0.  0.
          5    1    3    3  501    0  0.24016853312E+01  0.25147204006E+02 -0.25282806483E+02  0.36048027206E+02  0.47000000000E+01 0. -1.
        -13    1    4    4    0    0 -0.36676561571E+01  0.19421125054E+02 -0.10700746264E+03  0.10881741065E+03  0.00000000000E+00 0.  1.
         14    1    4    4    0    0  0.50350510260E+02 -0.53449697671E+02 -0.86012661032E+03  0.86325536769E+03  0.00000000000E+00 0. -1.
         -5    1    5    5    0  502 -0.80827792672E+02  0.30320758558E+02 -0.91024465078E+02  0.12553893305E+03  0.47000000000E+01 0.  1.
         11    1    6    6    0    0  0.34152716656E+02 -0.41036483569E+02 -0.24820886785E+02  0.58876798992E+02  0.00000000000E+00 0. -1.
        -12    1    6    6    0    0 -0.24094634187E+01  0.19597093621E+02 -0.70289543591E+02  0.73010078281E+02  0.00000000000E+00 0.  1.
</event>
<event>
12    1  0.8449700E-002  0.2054437E+03  0.7818608E-02  0.1145912E+00
         21   -1    0    0  503  502  0.00000000000E+00  0.00000000000E+00  0.16569145658E+03  0.16569145658E+03  0.00000000000E+00 0. -1.
         21   -1    0    0  501  503 -0.00000000000E+00 -0.00000000000E+00 -0.29070099364E+03  0.29070099364E+03  0.00000000000E+00 0. -1.
          6    2    1    2  501    0  0.71077990324E+02  0.81404840716E+02  0.22679072440E+02  0.20337260818E+03  0.17078421658E+03 0.  0.
         24    2    3    3    0    0  0.63928573554E+02 -0.80197951532E+01  0.27904762175E+02  0.11338773449E+03  0.89033268782E+02 0.  0.
         -6    2    1    2    0  502 -0.71077990324E+02 -0.81404840716E+02 -0.14768860949E+03  0.25301984203E+03  0.17472345660E+03 0.  0.
        -24    2    5    5    0    0  0.55412521075E+01 -0.53584299007E+01 -0.11547600660E+03  0.14026654189E+03  0.79250087863E+02 0.  0.
          5    1    3    3  501    0  0.71494167707E+01  0.89424635870E+02 -0.52256897354E+01  0.89984873694E+02  0.47000000000E+01 0. -1.
        -13    1    4    4    0    0 -0.13523717127E+02 -0.15225543194E+02 -0.14305069020E+02  0.24886604633E+02  0.00000000000E+00 0.  1.
         14    1    4    4    0    0  0.77452290681E+02  0.72057480410E+01  0.42209831195E+02  0.88501129858E+02  0.00000000000E+00 0. -1.
         -5    1    5    5    0  502 -0.76619242432E+02 -0.76046410816E+02 -0.32212602894E+02  0.11275330015E+03  0.47000000000E+01 0.  1.
         11    1    6    6    0    0 -0.80255048666E+01 -0.14016002729E+02  0.63703073341E+01  0.17361966375E+02  0.00000000000E+00 0. -1.
        -12    1    6    6    0    0  0.13566756974E+02  0.86575728288E+01 -0.12184631393E+03  0.12290457551E+03  0.00000000000E+00 0.  1.
</event>
<event>
12    1  0.8449700E-002  0.2126734E+03  0.7818608E-02  0.1139552E+00
         21   -1    0    0  501  502  0.00000000000E+00  0.00000000000E+00  0.55623974432E+02  0.55623974432E+02  0.00000000000E+00 0. -1.
         21   -1    0    0  502  503 -0.00000000000E+00 -0.00000000000E+00 -0.90162930961E+03  0.90162930961E+03  0.00000000000E+00 0.  1.
         -6    2    1    2    0  503  0.12526615641E+03 -0.27604288110E+01 -0.27123951374E+03  0.34440277806E+03  0.17129848165E+03 0.  0.
        -24    2    3    3    0    0  0.62721826520E+02  0.65421175643E+02 -0.10924890546E+03  0.15779202929E+03  0.68913303638E+02 0.  0.
          6    2    1    2  501    0 -0.12526615641E+03  0.27604288110E+01 -0.57476582144E+03  0.61285050598E+03  0.17184517240E+03 0.  0.
         24    2    5    5    0    0 -0.14631271536E+03  0.36312693356E+02 -0.49715596350E+03  0.52559174053E+03  0.79728309191E+02 0.  0.
          5    1    5    5  501    0  0.21046558952E+02 -0.33552264545E+02 -0.77609857933E+02  0.87258765452E+02  0.47000000000E+01 0. -1.
        -11    1    6    6    0    0 -0.38383360720E+01  0.93397058620E+01 -0.13655664290E+03  0.13692946962E+03  0.00000000000E+00 0.  1.
         12    1    6    6    0    0 -0.14247437929E+03  0.26972987494E+02 -0.36059932061E+03  0.38866227091E+03  0.00000000000E+00 0. -1.
         -5    1    3    3    0  503  0.62544329890E+02 -0.68181604454E+02 -0.16199060827E+03  0.18661074877E+03  0.47000000000E+01 0.  1.
         13    1    4    4    0    0  0.13092249222E+02  0.34727844354E+02 -0.88315576220E+02  0.95797031093E+02  0.00000000000E+00 0. -1.
        -14    1    4    4    0    0  0.49629577298E+02  0.30693331289E+02 -0.20933329245E+02  0.61994998199E+02  0.00000000000E+00 0.  1.
</event>
<event>
12    1  0.8449700E-002  0.2255034E+03  0.7818608E-02  0.1129849E+00
         21   -1    0    0  501  502  0.00000000000E+00  0.00000000000E+00  0.21840111818E+03  0.21840111818E+03  0.00000000000E+00 0. -1.
         21   -1    0    0  502  503 -0.00000000000E+00 -0.00000000000E+00 -0.55656294887E+03  0.55656294887E+03  0.00000000000E+00 0. -1.
         -6    2    1    2    0  503 -0.22693482399E+02 -0.14380469438E+03 -0.46460416949E+03  0.51643081704E+03  0.17218876333E+03 0.  0.
        -24    2    3    3    0    0  0.92576651344E+01 -0.14785476936E+03 -0.45072903136E+03  0.48104878214E+03  0.79401095035E+02 0.  0.
          6    2    1    2  501    0  0.22693482399E+02  0.14380469438E+03  0.12644233879E+03  0.25853325001E+03  0.17221205548E+03 0.  0.
         24    2    5    5    0    0 -0.52035277970E+02  0.71962980771E+02  0.88626277616E+02  0.14808976255E+03  0.78674137635E+02 0.  0.
          5    1    5    5  501    0  0.74728760368E+02  0.71841713605E+02  0.37816061175E+02  0.11044348746E+03  0.47000000000E+01 0. -1.
        -13    1    6    6    0    0  0.78533279550E+01 -0.10908543889E+01  0.42005865974E+02  0.42747602266E+02  0.00000000000E+00 0.  1.
         14    1    6    6    0    0 -0.59888605925E+02  0.73053835160E+02  0.46620411642E+02  0.10534216028E+03  0.00000000000E+00 0. -1.
         -5    1    3    3    0  503 -0.31951147533E+02  0.40500749888E+01 -0.13875138125E+02  0.35382034906E+02  0.47000000000E+01 0.  1.
         11    1    4    4    0    0 -0.19101871366E+02 -0.84592846452E+02 -0.15813769735E+03  0.18035621000E+03  0.00000000000E+00 0. -1.
        -12    1    4    4    0    0  0.28359536500E+02 -0.63261922913E+02 -0.29259133401E+03  0.30069257214E+03  0.00000000000E+00 0.  1.
</event>
<event>
12    1  0.8449700E-002  0.2178716E+03  0.7818608E-02  0.1135791E+00
         21   -1    0    0  501  502  0.00000000000E+00  0.00000000000E+00  0.10286162571E+03  0.10286162571E+03  0.00000000000E+00 0. -1.
         21   -1    0    0  502  503 -0.00000000000E+00 -0.00000000000E+00 -0.68334427278E+03  0.68334427278E+03  0.00000000000E+00 0.  1.
         -6    2    1    2    0  503 -0.76770141646E+02  0.10665334005E+03 -0.51671839912E+03  0.56077261319E+03  0.17377983233E+03 0.  0.
        -24    2    3    3    0    0 -0.10984686600E+03  0.41596253788E+02 -0.38108563051E+03  0.40667903095E+03  0.79780913361E+02 0.  0.
          6    2    1    2  501    0  0.76770141646E+02 -0.10665334005E+03 -0.63764247942E+02  0.22543328530E+03  0.17171399830E+03 0.  0.
         24    2    5    5    0    0 -0.20544722326E+02 -0.69656207137E+02 -0.59719082427E+02  0.12113839588E+03  0.76381079747E+02 0.  0.
          5    1    5    5  501    0  0.97314863973E+02 -0.36997132912E+02 -0.40451655153E+01  0.10429488941E+03  0.47000000000E+01 0. -1.
        -11    1    6    6    0    0 -0.19837542491E+02  0.20977941748E+01 -0.43083921037E+02  0.47477922074E+02  0.00000000000E+00 0.  1.
         12    1    6    6    0    0 -0.70717983544E+00 -0.71754001312E+02 -0.16635161389E+02  0.73660473811E+02  0.00000000000E+00 0. -1.
         -5    1    3    3    0  503  0.33076724353E+02  0.65057086261E+02 -0.13563276861E+03  0.15409358224E+03  0.47000000000E+01 0.  1.
         13    1    4    4    0    0 -0.98287936244E+02  0.59047456741E+02 -0.26531725932E+03  0.28903350783E+03  0.00000000000E+00 0. -1.
        -14    1    4    4    0    0 -0.11558929756E+02 -0.17451202953E+02 -0.11576837119E+03  0.11764552312E+03  0.00000000000E+00 0.  1.
</event>
<event>
12    1  0.8449700E-002  0.1985408E+03  0.7818608E-02  0.1152614E+00
         21   -1    0    0  503  502  0.00000000000E+00  0.00000000000E+00  0.13412195932E+03  0.13412195932E+03  0.00000000000E+00 0. -1.
         21   -1    0    0  501  503 -0.00000000000E+00 -0.00000000000E+00 -0.29322147666E+03  0.29322147666E+03  0.00000000000E+00 0. -1.
          6    2    1    2  501    0  0.32738030503E+02 -0.93194296652E+02 -0.12120950948E+03  0.23261601272E+03  0.17222516835E+03 0.  0.
         24    2    3    3    0    0  0.73496581778E+02 -0.22894745823E+02 -0.92345773209E+02  0.14625345358E+03  0.83285136346E+02 0.  0.
         -6    2    1    2    0  502 -0.32738030503E+02  0.93194296652E+02 -0.37890007862E+02  0.19472742326E+03  0.16348137846E+03 0.  0.
        -24    2    5    5    0    0  0.14486484302E+02  0.13934922176E+02  0.21767809867E+02  0.84757661701E+02  0.79410222182E+02 0.  0.
          5    1    3    3  501    0 -0.40758551275E+02 -0.70299550829E+02 -0.28863736272E+02  0.86362559135E+02  0.47000000000E+01 0. -1.
        -11    1    4    4    0    0  0.51823551123E+02 -0.37636077846E+02 -0.10017326970E+03  0.11889843889E+03  0.00000000000E+00 0.  1.
         12    1    4    4    0    0  0.21673030655E+02  0.14741332022E+02  0.78274964965E+01  0.27355014695E+02  0.00000000000E+00 0. -1.
         -5    1    5    5    0  502 -0.47224514805E+02  0.79259374476E+02 -0.59657817729E+02  0.10996976156E+03  0.47000000000E+01 0.  1.
         13    1    6    6    0    0  0.14929912075E+02 -0.45643667468E+01 -0.27780445922E+02  0.31866736481E+02  0.00000000000E+00 0. -1.
        -14    1    6    6    0    0 -0.44342777315E+00  0.18499288923E+02  0.49548255789E+02  0.52890925219E+02  0.00000000000E+00 0.  1.
</event>
<event>
12    1  0.8449700E-002  0.2673967E+03  0.7818608E-02  0.1102837E+00
         21   -1    0    0  503  502  0.00000000000E+00  0.00000000000E+00  0.13947880307E+04  0.13947880307E+04  0.00000000000E+00 0. -1.
         21   -1    0    0  501  503 -0.00000000000E+00 -0.00000000000E+00 -0.81264301823E+02  0.81264301823E+02  0.00000000000E+00 0.  1.
          6    2    1    2  501    0 -0.16580573550E+03 -0.11973650493E+03  0.20745683781E+03  0.33812221174E+03  0.17163891743E+03 0.  0.
         24    2    3    3    0    0 -0.17999875779E+03 -0.65858880653E+02  0.13968820527E+03  0.25026483962E+03  0.79892116556E+02 0.  0.
         -6    2    1    2    0  502  0.16580573550E+03  0.11973650493E+03  0.11060668910E+04  0.11379301207E+04  0.17225742290E+03 0.  0.
        -24    2    5    5    0    0  0.84527464189E+02  0.81198725006E+02  0.36689291972E+03  0.39328821505E+03  0.79542946956E+02 0.  0.
          5    1    3    3  501    0  0.14193022293E+02 -0.53877624275E+02  0.67768632538E+02  0.87857372118E+02  0.47000000000E+01 0. -1.
        -13    1    4    4    0    0 -0.11362388873E+03 -0.71959786369E+02  0.62578757238E+02  0.14833981192E+03  0.00000000000E+00 0.  1.
         14    1    4    4    0    0 -0.66374869066E+02  0.61009057161E+01  0.77109448036E+02  0.10192502769E+03  0.00000000000E+00 0. -1.
         -5    1    5    5    0  502  0.81278271312E+02  0.38537779922E+02  0.73917397130E+03  0.74464190569E+03  0.47000000000E+01 0.  1.
         11    1    6    6    0    0  0.12270504213E+02  0.44043458847E+02  0.22659367884E+03  0.23116030549E+03  0.00000000000E+00 0. -1.
        -12    1    6    6    0    0  0.72256959977E+02  0.37155266159E+02  0.14029924088E+03  0.16212790956E+03  0.00000000000E+00 0.  1.
</event>
<event>
12    1  0.8449700E-002  0.1811623E+03  0.7818608E-02  0.1166740E+00
         21   -1    0    0  503  502  0.00000000000E+00  0.00000000000E+00  0.71875489353E+03  0.71875489353E+03  0.00000000000E+00 0.  1.
         21   -1    0    0  501  503 -0.00000000000E+00 -0.00000000000E+00 -0.62463661920E+02  0.62463661920E+02  0.00000000000E+00 0.  1.
          6    2    1    2  501    0  0.29055015690E+01 -0.54434915345E+02  0.53124932295E+03  0.56128924200E+03  0.17276622383E+03 0.  0.
         24    2    3    3    0    0 -0.20340702797E+01  0.63307189148E+01  0.46353618999E+03  0.47005317428E+03  0.77717255319E+02 0.  0.
         -6    2    1    2    0  502 -0.29055015690E+01  0.54434915345E+02  0.12504190865E+03  0.21992931345E+03  0.17251615010E+03 0.  0.
        -24    2    5    5    0    0 -0.50113340614E+02  0.32444950126E+02  0.13335776229E+03  0.16698233942E+03  0.80838030770E+02 0.  0.
          5    1    3    3  501    0  0.49395718487E+01 -0.60765634259E+02  0.67713132962E+02  0.91236067717E+02  0.47000000000E+01 0. -1.
        -13    1    4    4    0    0 -0.14155499661E+02 -0.10270417478E+02  0.43234082688E+03  0.43269440745E+03  0.00000000000E+00 0.  1.
         14    1    4    4    0    0  0.12121429381E+02  0.16601136393E+02  0.31195363108E+02  0.37358766832E+02  0.00000000000E+00 0. -1.
         -5    1    5    5    0  502  0.47207839045E+02  0.21989965219E+02 -0.83158536328E+01  0.52946974034E+02  0.47000000000E+01 0.  1.
         13    1    6    6    0    0  0.72340344410E+01  0.41307332592E+01  0.88432986938E+02  0.88824475176E+02  0.00000000000E+00 0. -1.
        -14    1    6    6    0    0 -0.57347375055E+02  0.28314216866E+02  0.44924775349E+02  0.78157864241E+02  0.00000000000E+00 0.  1.
</event>
<event>
12    1  0.8449700E-002  0.1788342E+03  0.7818608E-02  0.1169259E+00
         21   -1    0    0  501  502  0.00000000000E+00  0.00000000000E+00  0.98776057938E+02  0.98776057938E+02  0.00000000000E+00 0. -1.
         21   -1    0    0  502  503 -0.00000000000E+00 -0.00000000000E+00 -0.71001824599E+03  0.71001824599E+03  0.00000000000E+00 0. -1.
         -6    2    1    2    0  503  0.38268732861E+02 -0.13545957889E+02 -0.60429107063E+03  0.62982504567E+03  0.17281175082E+03 0.  0.
        -24    2    3    3    0    0 -0.12522631108E+01 -0.48062269346E+02 -0.53414913957E+03  0.54210238399E+03  0.79045186630E+02 0.  0.
          6    2    1    2  501    0 -0.38268732861E+02  0.13545957889E+02 -0.69511174191E+01  0.17896925825E+03  0.17416569259E+03 0.  0.
         24    2    5    5    0    0 -0.36320812853E+02 -0.32547162086E+02 -0.59050499840E+02  0.10922109878E+03  0.77870197643E+02 0.  0.
          5    1    5    5  501    0 -0.19479200081E+01  0.46093119975E+02  0.52099382421E+02  0.69748159474E+02  0.47000000000E+01 0. -1.
        -13    1    6    6    0    0 -0.17068483682E+02 -0.57434635879E+02 -0.44027297916E+02  0.74353705324E+02  0.00000000000E+00 0.  1.
         14    1    6    6    0    0 -0.19252329171E+02  0.24887473792E+02 -0.15023201925E+02  0.34867393455E+02  0.00000000000E+00 0. -1.
         -5    1    3    3    0  503  0.39520995972E+02  0.34516311457E+02 -0.70141931062E+02  0.87722661681E+02  0.47000000000E+01 0.  1.
         11    1    4    4    0    0  0.32319875497E+02 -0.32011756860E+02 -0.40945650005E+03  0.41197566962E+03  0.00000000000E+00 0. -1.
        -12    1    4    4    0    0 -0.33572138608E+02 -0.16050512486E+02 -0.12469263952E+03  0.13012671437E+03  0.00000000000E+00 0.  1.
</event>
<event>
12    1  0.8449700E-002  0.2017095E+03  0.7818608E-02  0.1148691E+00
         21   -1    0    0  503  502  0.00000000000E+00  0.00000000000E+00  0.28156675952E+03  0.28156675952E+03  0.00000000000E+00 0.  1.
         21   -1    0    0  501  503 -0.00000000000E+00 -0.00000000000E+00 -0.16684964618E+03  0.16684964618E+03  0.00000000000E+00 0.  1.
          6    2    1    2  501    0  0.61884091113E+02  0.87375133560E+02 -0.26854431061E+02  0.20348926074E+03  0.17094637777E+03 0.  0.
         24    2    3    3    0    0  0.73359749787E+02  0.94165882960E+02  0.28434798536E+02  0.14642093390E+03  0.79885453702E+02 0.  0.
         -6    2    1    2    0  502 -0.61884091113E+02 -0.87375133560E+02  0.14157154440E+03  0.24492714496E+03  0.16876833072E+03 0.  0.
        -24    2    5    5    0    0 -0.48894449020E+01  0.16369174411E+02  0.68413876937E+02  0.10569566345E+03  0.78735367988E+02 0.  0.
          5    1    3    3  501    0 -0.11475658674E+02 -0.67907494005E+01 -0.55289229597E+02  0.57068326845E+02  0.47000000000E+01 0. -1.
        -13    1    4    4    0    0  0.64204906026E+02  0.96440853325E+02 -0.63394455898E+00  0.11585987240E+03  0.00000000000E+00 0.  1.
         14    1    4    4    0    0  0.91548437612E+01 -0.22749703651E+01  0.29068743095E+02  0.30561061493E+02  0.00000000000E+00 0. -1.
         -5    1    5    5    0  502 -0.56994646211E+02 -0.10374430797E+03  0.73157667468E+02  0.13923148151E+03  0.47000000000E+01 0.  1.
         11    1    6    6    0    0  0.22840258835E+02 -0.37697334258E+01  0.67557714163E+02  0.71413815587E+02  0.00000000000E+00 0. -1.
        -12    1    6    6    0    0 -0.27729703737E+02  0.20138907837E+02  0.85616277421E+00  0.34281847863E+02  0.00000000000E+00 0.  1.
</event>
<event>
12    1  0.8449700E-002  0.1970508E+03  0.7818608E-02  0.1153353E+00
         21   -1    0    0  501  502  0.00000000000E+00  0.00000000000E+00  0.34741742160E+03  0.34741742160E+03  0.00000000000E+00 0. -1.
         21   -1    0    0  502  503 -0.00000000000E+00 -0.00000000000E+00 -0.12112430213E+03  0.12112430213E+03  0.00000000000E+00 0.  1.
         -6    2    1    2    0  503 -0.64747844006E+02 -0.57202600285E+02  0.18883063487E+03  0.27292125572E+03  0.17710048666E+03 0.  0.
        -24    2    3    3    0    0 -0.97662791864E+02 -0.81977096986E+02  0.15565314298E+03  0.21981753224E+03  0.88507520668E+02 0.  0.
          6    2    1    2  501    0  0.64747844006E+02  0.57202600285E+02  0.37462484598E+02  0.19562046802E+03  0.17146285012E+03 0.  0.
         24    2    5    5    0    0  0.50388288978E+02 -0.32724366077E+02  0.15255823517E+02  0.10176802055E+03  0.80710136005E+02 0.  0.
          5    1    5    5  501    0  0.14359555027E+02  0.89926966362E+02  0.22206661081E+02  0.93852447470E+02  0.47000000000E+01 0. -1.
        -13    1    6    6    0    0  0.52540249366E+02  0.59069943518E+01 -0.12280110679E+02  0.54278646852E+02  0.00000000000E+00 0.  1.
         14    1    6    6    0    0 -0.21519603882E+01 -0.38631360429E+02  0.27535934196E+02  0.47489373697E+02  0.00000000000E+00 0. -1.
         -5    1    3    3    0  503  0.32914947859E+02  0.24774496701E+02  0.33177491891E+02  0.53103723481E+02  0.47000000000E+01 0.  1.
         11    1    4    4    0    0 -0.23055619638E+02  0.79349175257E+01 -0.98811332388E+00  0.24402886734E+02  0.00000000000E+00 0. -1.
        -12    1    4    4    0    0 -0.74607172227E+02 -0.89912014512E+02  0.15664125630E+03  0.19541464550E+03  0.00000000000E+00 0.  1.
</event>
<event>
12    1  0.8449700E-002  0.1882948E+03  0.7818608E-02  0.1160095E+00
         21   -1    0    0  501  502  0.00000000000E+00  0.00000000000E+00  0.53664772819E+03  0.53664772819E+03  0.00000000000E+00 0. -1.
         21   -1    0    0  502  503 -0.00000000000E+00 -0.00000000000E+00 -0.69064734911E+02  0.69064734911E+02  0.00000000000E+00 0.  1.
         -6    2    1    2    0  503 -0.14553828667E+02 -0.72081467606E+02  0.16953402653E+03  0.25337073804E+03  0.17334183812E+03 0.  0.
        -24    2    3    3    0    0 -0.24644086902E+02 -0.11264836326E+03  0.15311567815E+03  0.20821391688E+03  0.81311988808E+02 0.  0.
          6    2    1    2  501    0  0.14553828667E+02  0.72081467606E+02  0.29804896675E+03  0.35234172505E+03  0.17292759391E+03 0.  0.
         24    2    5    5    0    0  0.31235068624E+02  0.97517679989E+02  0.29375960824E+03  0.32126515408E+03  0.80195164269E+02 0.  0.
          5    1    5    5  501    0 -0.16681239957E+02 -0.25436212383E+02  0.42893585069E+01  0.31076570971E+02  0.47000000000E+01 0. -1.
        -11    1    6    6    0    0 -0.15813483372E+02  0.64419288947E+02  0.10743132472E+03  0.12625925937E+03  0.00000000000E+00 0.  1.
         12    1    6    6    0    0  0.47048551996E+02  0.33098391042E+02  0.18632828352E+03  0.19500589471E+03  0.00000000000E+00 0. -1.
         -5    1    3    3    0  503  0.10090258235E+02  0.40566895651E+02  0.16418348380E+02  0.45156821163E+02  0.47000000000E+01 0.  1.
         11    1    4    4    0    0 -0.13292223742E+02 -0.69720677400E+01  0.74544568201E+02  0.76040683774E+02  0.00000000000E+00 0. -1.
        -12    1    4    4    0    0 -0.11351863160E+02 -0.10567629552E+03  0.78571109949E+02  0.13217323311E+03  0.00000000000E+00 0.  1.
</event>
<event>
12    1  0.8449700E-002  0.1726473E+03  0.7818608E-02  0.1175404E+00
         21   -1    0    0  501  502  0.00000000000E+00  0.00000000000E+00  0.18403718930E+03  0.18403718930E+03  0.00000000000E+00 0.  1.
         21   -1    0    0  502  503 -0.00000000000E+00 -0.00000000000E+00 -0.21710530753E+03  0.21710530753E+03  0.00000000000E+00 0.  1.
         -6    2    1    2    0  503  0.48429795146E+01 -0.14854573629E+01 -0.11861918176E+03  0.20946977866E+03  0.17257293200E+03 0.  0.
        -24    2    3    3    0    0 -0.16385649368E+02  0.71668094520E-01 -0.15089722515E+03  0.17052056289E+03  0.77709685158E+02 0.  0.
          6    2    1    2  501    0 -0.48429795146E+01  0.14854573629E+01  0.85551063530E+02  0.19167271817E+03  0.17144615886E+03 0.  0.
         24    2    5    5    0    0 -0.24692778148E+02 -0.61924431851E+02  0.63057593705E+02  0.12136713702E+03  0.79431437560E+02 0.  0.
          5    1    5    5  501    0  0.19849798633E+02  0.63409889214E+02  0.22493469825E+02  0.70305581149E+02  0.47000000000E+01 0. -1.
        -13    1    6    6    0    0  0.24595633394E+02 -0.34147472358E+02  0.45842033903E+02  0.62229310802E+02  0.00000000000E+00 0.  1.
         14    1    6    6    0    0 -0.49288411542E+02 -0.27776959493E+02  0.17215559802E+02  0.59137826223E+02  0.00000000000E+00 0. -1.
         -5    1    3    3    0  503  0.21228628883E+02 -0.15571254574E+01  0.32278043396E+02  0.38949215774E+02  0.47000000000E+01 0.  1.
         13    1    4    4    0    0  0.25732752904E+02  0.33028211840E+01 -0.19372145062E+02  0.32378437332E+02  0.00000000000E+00 0. -1.
        -14    1    4    4    0    0 -0.42118402272E+02 -0.32311530895E+01 -0.13152508009E+03  0.13814212555E+03  0.00000000000E+00 0.  1.
</event>
<event>
12    1  0.8449700E-002  0.2254450E+03  0.7818608E-02  0.1129941E+00
         21   -1    0    0  501  502  0.00000000000E+00  0.00000000000E+00  0.73643811546E+02  0.73643811546E+02  0.00000000000E+00 0.  1.
         21   -1    0    0  502  503 -0.00000000000E+00 -0.00000000000E+00 -0.82984878912E+03  0.82984878912E+03  0.00000000000E+00 0.  1.
         -6    2    1    2    0  503  0.72718066520E+02  0.12530922881E+03 -0.56384514257E+03  0.60713509735E+03  0.17234082979E+03 0.  0.
        -24    2    3    3    0    0  0.11141877370E+03  0.83325300316E+02 -0.47784438542E+03  0.50379771197E+03  0.78228058265E+02 0.  0.
          6    2    1    2  501    0 -0.72718066520E+02 -0.12530922881E+03 -0.19235983501E+03  0.29635750332E+03  0.17272852580E+03 0.  0.
         24    2    5    5    0    0 -0.11358955827E+03 -0.10230013118E+03 -0.12273141090E+03  0.21227358776E+03  0.81419728896E+02 0.  0.
          5    1    5    5  501    0  0.40871491746E+02 -0.23009097623E+02 -0.69628424111E+02  0.84083915556E+02  0.47000000000E+01 0. -1.
        -13    1    6    6    0    0 -0.96918804137E+02 -0.89305042651E+02 -0.13431259151E+03  0.18817151080E+03  0.00000000000E+00 0.  1.
         14    1    6    6    0    0 -0.16670754130E+02 -0.12995088531E+02  0.11581180620E+02  0.24102076959E+02  0.00000000000E+00 0. -1.
         -5    1    3    3    0  503 -0.38700707181E+02  0.41983928489E+02 -0.86000757151E+02  0.10333738538E+03  0.47000000000E+01 0.  1.
         13    1    4    4    0    0 -0.58366195311E+01 -0.86603724617E+01 -0.36897701375E+02  0.38347210400E+02  0.00000000000E+00 0. -1.
        -14    1    4    4    0    0  0.11725539323E+03  0.91985672778E+02 -0.44094668404E+03  0.46545050157E+03  0.00000000000E+00 0.  1.
</event>
<event>
12    1  0.8449700E-002  0.1884142E+03  0.7818608E-02  0.1161418E+00
         21   -1    0    0  503  502  0.00000000000E+00  0.00000000000E+00  0.19421896945E+03  0.19421896945E+03  0.00000000000E+00 0. -1.
         21   -1    0    0  501  503 -0.00000000000E+00 -0.00000000000E+00 -0.24094752378E+03  0.24094752378E+03  0.00000000000E+00 0. -1.
          6    2    1    2  501    0  0.36702736916E+02 -0.48617402065E+02  0.89459435408E+02  0.20268622591E+03  0.17137086365E+03 0.  0.
         24    2    3    3    0    0 -0.26823449603E+02  0.35273362123E+01  0.93474601521E+02  0.12026740729E+03  0.70673959680E+02 0.  0.
         -6    2    1    2    0  502 -0.36702736916E+02  0.48617402065E+02 -0.13618798974E+03  0.23248026732E+03  0.17829515827E+03 0.  0.
        -24    2    5    5    0    0 -0.78088705961E+02  0.41507137516E+01 -0.12724836828E+03  0.17090030601E+03  0.83064390330E+02 0.  0.
          5    1    3    3  501    0  0.63526186519E+02 -0.52144738277E+02 -0.40151661137E+01  0.82418818619E+02  0.47000000000E+01 0. -1.
        -13    1    4    4    0    0  0.18534348167E+02 -0.94275415420E+01  0.73212803943E+01  0.22045447333E+02  0.00000000000E+00 0.  1.
         14    1    4    4    0    0 -0.45357797770E+02  0.12954877754E+02  0.86153321127E+02  0.98221959955E+02  0.00000000000E+00 0. -1.
         -5    1    5    5    0  502  0.41385969045E+02  0.44466688313E+02 -0.89396214607E+01  0.61579961312E+02  0.47000000000E+01 0.  1.
         11    1    6    6    0    0 -0.65230853855E+02 -0.34083144254E+02 -0.86282555225E+02  0.11340813178E+03  0.00000000000E+00 0. -1.
        -12    1    6    6    0    0 -0.12857852106E+02  0.38233858005E+02 -0.40965813056E+02  0.57492174233E+02  0.00000000000E+00 0.  1.
</event>
<event>
12    1  0.8449700E-002  0.1956400E+03  0.7818608E-02  0.1154101E+00
         21   -1    0    0  503  502  0.00000000000E+00  0.00000000000E+00  0.31037382536E+03  0.31037382536E+03  0.00000000000E+00 0.  1.
         21   -1    0    0  501  503 -0.00000000000E+00 -0.00000000000E+00 -0.12650607524E+03  0.12650607524E+03  0.00000000000E+00 0.  1.
          6    2    1    2  501    0 -0.55413953329E+02 -0.65354738193E+02  0.13469430470E+03  0.23515471161E+03  0.17266509389E+03 0.  0.
         24    2    3    3    0    0 -0.20132076236E+02 -0.82313359623E+02  0.27990086884E+02  0.12139933463E+03  0.82301663528E+02 0.  0.
         -6    2    1    2    0  502  0.55413953329E+02  0.65354738193E+02  0.49173445425E+02  0.20172518899E+03  0.17587801485E+03 0.  0.
        -24    2    5    5    0    0  0.30272000164E+02  0.10321712860E+03  0.70831942096E+02  0.15115979673E+03  0.79132486978E+02 0.  0.
          5    1    3    3  501    0 -0.35281877093E+02  0.16958621430E+02  0.10670421782E+03  0.11375537698E+03  0.47000000000E+01 0. -1.
        -13    1    4    4    0    0 -0.13610854223E+02 -0.23365835412E+02 -0.28646217011E+02  0.39393189338E+02  0.00000000000E+00 0.  1.
         14    1    4    4    0    0 -0.65212220127E+01 -0.58947524211E+02  0.56636303895E+02  0.82006145294E+02  0.00000000000E+00 0. -1.
         -5    1    5    5    0  502  0.25141953165E+02 -0.37862390406E+02 -0.21658496671E+02  0.50565392259E+02  0.47000000000E+01 0.  1.
         13    1    6    6    0    0  0.66613313997E+01  0.95655939743E+02  0.79847049248E+02  0.12477973961E+03  0.00000000000E+00 0. -1.
        -14    1    6    6    0    0  0.23610668764E+02  0.75611888565E+01 -0.90151071526E+01  0.26380057115E+02  0.00000000000E+00 0.  1.
</event>
<event>
12    1  0.8449700E-002  0.1939040E+03  0.7818608E-02  0.1155011E+00
         21   -1    0    0  503  502  0.00000000000E+00  0.00000000000E+00  0.90015201298E+02  0.90015201298E+02  0.00000000000E+00 0. -1.
         21   -1    0    0  501  503 -0.00000000000E+00 -0.00000000000E+00 -0.53417060690E+03  0.53417060690E+03  0.00000000000E+00 0. -1.
          6    2    1    2  501    0 -0.26245074710E+02  0.86257160630E+02 -0.76241845597E+02  0.20835445575E+03  0.17166729014E+03 0.  0.
         24    2    3    3    0    0 -0.73690642126E+02  0.44577465824E+02 -0.11252028574E+02  0.11761281623E+03  0.79301356849E+02 0.  0.
         -6    2    1    2    0  502  0.26245074710E+02 -0.86257160630E+02 -0.36791356001E+03  0.41583135245E+03  0.17154073666E+03 0.  0.
        -24    2    5    5    0    0  0.55496758408E+02 -0.57619577088E+02 -0.35574227455E+03  0.37286622263E+03  0.77953500382E+02 0.  0.
          5    1    3    3  501    0  0.47445567415E+02  0.41679694805E+02 -0.64989817024E+02  0.90741639522E+02  0.47000000000E+01 0. -1.
        -11    1    4    4    0    0 -0.15369324415E+02 -0.58561641107E+01 -0.33537544432E+02  0.37353415876E+02  0.00000000000E+00 0.  1.
         12    1    4    4    0    0 -0.58321317711E+02  0.50433629935E+02  0.22285515859E+02  0.80259400353E+02  0.00000000000E+00 0. -1.
         -5    1    5    5    0  502 -0.29251683698E+02 -0.28637583541E+02 -0.12171285457E+02  0.42965129814E+02  0.47000000000E+01 0.  1.
         11    1    6    6    0    0  0.46074074734E+02 -0.77235978773E+02 -0.28737598609E+03  0.30111986677E+03  0.00000000000E+00 0. -1.
        -12    1    6    6    0    0  0.94226836743E+01  0.19616401684E+02 -0.68366288456E+02  0.71746355865E+02  0.00000000000E+00 0.  1.
</event>
<event>
12    1  0.8449700E-002  0.1916726E+03  0.7818608E-02  0.1157003E+00
         21   -1    0    0  503  502  0.00000000000E+00  0.00000000000E+00  0.12622001611E+04  0.12622001611E+04  0.00000000000E+00 0.  1.
         21   -1    0    0  501  503 -0.00000000000E+00 -0.00000000000E+00 -0.47955433282E+02  0.47955433282E+02  0.00000000000E+00 0. -1.
          6    2    1    2  501    0 -0.82314407410E+02 -0.18496458582E+02  0.10183013150E+04  0.10361833632E+04  0.17210640182E+03 0.  0.
         24    2    3    3    0    0 -0.62427579971E+02 -0.75379786369E+02  0.55591249957E+03  0.56986082949E+03  0.78251791474E+02 0.  0.
         -6    2    1    2    0  502  0.82314407410E+02  0.18496458582E+02  0.19594341286E+03  0.27397223115E+03  0.17189875436E+03 0.  0.
        -24    2    5    5    0    0  0.98756103640E+02 -0.38197368713E+02  0.12871204189E+03  0.18438056485E+03  0.78851734178E+02 0.  0.
          5    1    3    3  501    0 -0.19886827439E+02  0.56883327787E+02  0.46238881539E+03  0.46632253375E+03  0.47000000000E+01 0. -1.
        -13    1    4    4    0    0 -0.31610676350E+01  0.10358592754E+02  0.16298395550E+03  0.16334338843E+03  0.00000000000E+00 0.  1.
         14    1    4    4    0    0 -0.59266512336E+02 -0.85738379123E+02  0.39292854407E+03  0.40651744106E+03  0.00000000000E+00 0. -1.
         -5    1    5    5    0  502 -0.16441696229E+02  0.56693827295E+02  0.67231370964E+02  0.89591666297E+02  0.47000000000E+01 0.  1.
         11    1    6    6    0    0 -0.13348504025E+02 -0.48037628830E+01  0.21175990383E+02  0.25488845918E+02  0.00000000000E+00 0. -1.
        -12    1    6    6    0    0  0.11210460767E+03 -0.33393605830E+02  0.10753605151E+03  0.15889171893E+03  0.00000000000E+00 0.  1.
</event>
<event>
12    1  0.8449700E-002  0.2172792E+03  0.7818608E-02  0.1136036E+00
         21   -1    0    0  501  502  0.00000000000E+00  0.00000000000E+00  0.11870124554E+04  0.11870124554E+04  0.00000000000E+00 0.  1.
         21   -1    0    0  502  503 -0.00000000000E+00 -0.00000000000E+00 -0.39736989647E+02  0.39736989647E+02  0.00000000000E+00 0.  1.
         -6    2    1    2    0  503 -0.10048060692E+02  0.13108707939E+03  0.54883284380E+03  0.59027769873E+03  0.17298984154E+03 0.  0.
        -24    2    3    3    0    0  0.65425294060E+01  0.11349463126E+03  0.21318754659E+03  0.25372963760E+03  0.77498148104E+02 0.  0.
          6    2    1    2  501    0  0.10048060692E+02 -0.13108707939E+03  0.59844262200E+03  0.63647174636E+03  0.17227282487E+03 0.  0.
         24    2    5    5    0    0  0.46536219764E+02 -0.10143048532E+03  0.53579260188E+03  0.55799872969E+03  0.10878927800E+03 0.  0.
          5    1    5    5  501    0 -0.36488159072E+02 -0.29656594073E+02  0.62650020120E+02  0.78473016671E+02  0.47000000000E+01 0. -1.
        -11    1    6    6    0    0 -0.33647474117E+02 -0.50606653876E+02  0.19756142960E+03  0.20669713205E+03  0.00000000000E+00 0.  1.
         12    1    6    6    0    0  0.80183693881E+02 -0.50823831441E+02  0.33823117227E+03  0.35130159764E+03  0.00000000000E+00 0. -1.
         -5    1    3    3    0  503 -0.16590590098E+02  0.17592448130E+02  0.33564529721E+03  0.33654806113E+03  0.47000000000E+01 0.  1.
         13    1    4    4    0    0  0.37180366793E+02  0.83496277219E+02  0.16915247687E+03  0.19226691971E+03  0.00000000000E+00 0. -1.
        -14    1    4    4    0    0 -0.30637837387E+02  0.29998354042E+02  0.44035069723E+02  0.61462717890E+02  0.00000000000E+00 0.  1.
</event>
<event>
12    1  0.8449700E-002  0.2146257E+03  0.7818608E-02  0.1138084E+00
         21   -1    0    0  501  502  0.00000000000E+00  0.00000000000E+00  0.16196788133E+03  0.16196788133E+03  0.00000000000E+00 0.  1.
         21   -1    0    0  502  503 -0.00000000000E+00 -0.00000000000E+00 -0.40667733105E+03  0.40667733105E+03  0.00000000000E+00 0.  1.
         -6    2    1    2    0  503  0.33841578752E+02 -0.12485357148E+03 -0.27896001178E+03  0.35196997018E+03  0.17126151048E+03 0.  0.
        -24    2    3    3    0    0  0.19868142424E+02 -0.17513815633E+02 -0.58143098079E+02  0.10600395732E+03  0.84585709733E+02 0.  0.
          6    2    1    2  501    0 -0.33841578752E+02  0.12485357148E+03  0.34250562067E+02  0.21667524220E+03  0.17041535382E+03 0.  0.
         24    2    5    5    0    0 -0.48387574399E+00  0.10432348932E+02  0.52303773514E+02  0.96039588420E+02  0.79867701733E+02 0.  0.
          5    1    5    5  501    0 -0.33357703008E+02  0.11442122255E+03 -0.18053211447E+02  0.12063565378E+03  0.47000000000E+01 0. -1.
        -13    1    6    6    0    0 -0.21022873303E+01  0.27935400457E+02 -0.11183280299E+02  0.30164084090E+02  0.00000000000E+00 0.  1.
         14    1    6    6    0    0  0.16184115863E+01 -0.17503051526E+02  0.63487053813E+02  0.65875504330E+02  0.00000000000E+00 0. -1.
         -5    1    3    3    0  503  0.13973436328E+02 -0.10733975585E+03 -0.22081691370E+03  0.24596601287E+03  0.47000000000E+01 0.  1.
         13    1    4    4    0    0  0.12908078249E+01 -0.65711923652E+01 -0.77042265993E+02  0.77332771212E+02  0.00000000000E+00 0. -1.
        -14    1    4    4    0    0  0.18577334599E+02 -0.10942623268E+02  0.18899167914E+02  0.28671186104E+02  0.00000000000E+00 0.  1.
</event>
<event>
12    1  0.8449700E-002  0.1902533E+03  0.7818608E-02  0.1158525E+00
         21   -1    0    0  501  502  0.00000000000E+00  0.00000000000E+00  0.47836253339E+03  0.47836253339E+03  0.00000000000E+00 0.  1.
         21   -1    0    0  502  503 -0.00000000000E+00 -0.00000000000E+00 -0.20170131179E+03  0.20170131179E+03  0.00000000000E+00 0. -1.
         -6    2    1    2    0  503 -0.29095464501E+02 -0.69941373812E+02 -0.13117872958E+03  0.23003080525E+03  0.17311259470E+03 0.  0.
        -24    2    3    3    0    0 -0.37277517689E+02 -0.82214744249E+02 -0.26177482660E+02  0.12389441436E+03  0.80719810543E+02 0.  0.
          6    2    1    2  501    0  0.29095464501E+02  0.69941373812E+02  0.40783995118E+03  0.45003303993E+03  0.17452211729E+03 0.  0.
         24    2    5    5    0    0  0.61490915148E+02  0.70107665649E+02  0.16506030061E+03  0.20505642552E+03  0.78147408021E+02 0.  0.
          5    1    5    5  501    0 -0.32395450647E+02 -0.16629183676E+00  0.24277965058E+03  0.24497661441E+03  0.47000000000E+01 0. -1.
        -13    1    6    6    0    0  0.42170747032E+02  0.31806952043E+01  0.10457129311E+03  0.11279913151E+03  0.00000000000E+00 0.  1.
         14    1    6    6    0    0  0.19320168116E+02  0.66926970444E+02  0.60489007497E+02  0.92257294004E+02  0.00000000000E+00 0. -1.
         -5    1    3    3    0  503  0.81820531886E+01  0.12273370437E+02 -0.10500124692E+03  0.10613639089E+03  0.47000000000E+01 0.  1.
         11    1    4    4    0    0 -0.60076908301E+02 -0.37839621686E+02 -0.18934393612E+02  0.73481855868E+02  0.00000000000E+00 0. -1.
        -12    1    4    4    0    0  0.22799390612E+02 -0.44375122563E+02 -0.72430890486E+01  0.50412558492E+02  0.00000000000E+00 0.  1.
</event>
<event>
12    1  0.8449700E-002  0.2510110E+03  0.7818608E-02  0.1113392E+00
         21   -1    0    0  501  502  0.00000000000E+00  0.00000000000E+00  0.27263335552E+03  0.27263335552E+03  0.00000000000E+00 0.  1.
         21   -1    0    0  502  503 -0.00000000000E+00 -0.00000000000E+00 -0.50362375511E+03  0.50362375511E+03  0.00000000000E+00 0. -1.
         -6    2    1    2    0  503 -0.16745256252E+03  0.65224547249E+02 -0.40366207440E+03  0.47534153877E+03  0.17524812671E+03 0.  0.
        -24    2    3    3    0    0 -0.12503004598E+02  0.30842248692E+02 -0.19236841939E+03  0.21103375114E+03  0.80137793299E+02 0.  0.
          6    2    1    2  501    0  0.16745256252E+03 -0.65224547249E+02  0.17267167481E+03  0.30091557185E+03  0.16864184486E+03 0.  0.
         24    2    5    5    0    0  0.14600024284E+03 -0.10482465663E+03  0.16214375905E+03  0.25442581283E+03  0.78342938995E+02 0.  0.
          5    1    5    5  501    0  0.21452319687E+02  0.39600109381E+02  0.10527915759E+02  0.46489759014E+02  0.47000000000E+01 0. -1.
        -11    1    6    6    0    0  0.87655954014E+02 -0.94822133409E+02  0.75786451218E+02  0.14972771770E+03  0.00000000000E+00 0.  1.
         12    1    6    6    0    0  0.58344288823E+02 -0.10002523222E+02  0.86357307835E+02  0.10469809514E+03  0.00000000000E+00 0. -1.
         -5    1    3    3    0  503 -0.15494955792E+03  0.34382298557E+02 -0.21129365501E+03  0.26430778763E+03  0.47000000000E+01 0.  1.
         13    1    4    4    0    0 -0.40319938653E+02  0.12170673561E+02 -0.53007595426E+02  0.67702495676E+02  0.00000000000E+00 0. -1.
        -14    1    4    4    0    0  0.27816934055E+02  0.18671575131E+02 -0.13936082396E+03  0.14333125547E+03  0.00000000000E+00 0.  1.
</event>
<event>
12    1  0.8449700E-002  0.1789672E+03  0.7818608E-02  0.1169051E+00
         21   -1    0    0  501  502  0.00000000000E+00  0.00000000000E+00  0.54756062802E+03  0.54756062802E+03  0.00000000000E+00 0. -1.
         21   -1    0    0  502  503 -0.00000000000E+00 -0.00000000000E+00 -0.13841309164E+03  0.13841309164E+03  0.00000000000E+00 0. -1.
         -6    2    1    2    0  503 -0.26293264954E+02  0.42173386762E+02 -0.56821929030E+02  0.18681763346E+03  0.17088641321E+03 0.  0.
        -24    2    3    3    0    0  0.29666937087E+02 -0.21345738549E+02 -0.68197796577E+01  0.88387310719E+02  0.80187527654E+02 0.  0.
          6    2    1    2  501    0  0.26293264954E+02 -0.42173386762E+02  0.46596946541E+03  0.49915608620E+03  0.17192825644E+03 0.  0.
         24    2    5    5    0    0  0.65016641775E+02  0.26836454358E+01  0.17289509432E+03  0.20011373094E+03  0.76931307083E+02 0.  0.
          5    1    5    5  501    0 -0.38723376821E+02 -0.44857032198E+02  0.29307437109E+03  0.29904235526E+03  0.47000000000E+01 0. -1.
        -11    1    6    6    0    0  0.65859631566E+02  0.27930401259E+02  0.99907770234E+02  0.12287864313E+03  0.00000000000E+00 0.  1.
         12    1    6    6    0    0 -0.84298979111E+00 -0.25246755823E+02  0.72987324089E+02  0.77235087810E+02  0.00000000000E+00 0. -1.
         -5    1    3    3    0  503 -0.55960202041E+02  0.63519125312E+02 -0.50002149372E+02  0.98430322740E+02  0.47000000000E+01 0.  1.
         11    1    4    4    0    0  0.25183458921E+02 -0.39873057612E+02 -0.31862763812E+02  0.56914875422E+02  0.00000000000E+00 0. -1.
        -12    1    4    4    0    0  0.44834781665E+01  0.18527319063E+02  0.25042984155E+02  0.31472435297E+02  0.00000000000E+00 0.  1.
</event>
<event>
12    1  0.8449700E-002  0.1741830E+03  0.7818608E-02  0.1173941E+00
         21   -1    0    0  503  502  0.00000000000E+00  0.00000000000E+00  0.24548848231E+04  0.24548848231E+04  0.00000000000E+00 0.  1.
         21   -1    0    0  501  503 -0.00000000000E+00 -0.00000000000E+00 -0.21221963495E+02  0.21221963495E+02  0.00000000000E+00 0.  1.
          6    2    1    2  501    0 -0.48796203013E+01  0.14218097375E+02  0.40880527054E+03  0.44377119100E+03  0.17200335972E+03 0.  0.
         24    2    3    3    0    0 -0.49093634651E+01  0.75989891031E+02  0.25678325378E+03  0.27961108941E+03  0.80287959918E+02 0.  0.
         -6    2    1    2    0  502  0.48796203013E+01 -0.14218097375E+02  0.20248575890E+04  0.20323355956E+04  0.17353314421E+03 0.  0.
        -24    2    5    5    0    0 -0.26453326319E+02 -0.20465045847E+02  0.19339419035E+04  0.19358548732E+04  0.79272993199E+02 0.  0.
          5    1    3    3  501    0  0.29743163820E-01 -0.61771793656E+02  0.15202201676E+03  0.16416010160E+03  0.47000000000E+01 0. -1.
        -13    1    4    4    0    0  0.14582627384E+02  0.10317143606E+02  0.48211984495E+01  0.18502443841E+02  0.00000000000E+00 0.  1.
         14    1    4    4    0    0 -0.19491990849E+02  0.65672747425E+02  0.25196205533E+03  0.26110864556E+03  0.00000000000E+00 0. -1.
         -5    1    5    5    0  502  0.31332946620E+02  0.62469484724E+01  0.90915685506E+02  0.96480722323E+02  0.47000000000E+01 0.  1.
         11    1    6    6    0    0 -0.47416599164E+02 -0.21158646260E+02  0.17413931216E+04  0.17421670489E+04  0.00000000000E+00 0. -1.
        -12    1    6    6    0    0  0.20963272845E+02  0.69360041319E+00  0.19254878190E+03  0.19368782435E+03  0.00000000000E+00 0.  1.
</event>
<event>
12    1  0.8449700E-002  0.1985855E+03  0.7818608E-02  0.1151263E+00
         21   -1    0    0  501  502  0.00000000000E+00  0.00000000000E+00  0.39077464210E+03  0.39077464210E+03  0.00000000000E+00 0.  1.
         21   -1    0    0  502  503 -0.00000000000E+00 -0.00000000000E+00 -0.18050496211E+03  0.18050496211E+03  0.00000000000E+00 0.  1.
         -6    2    1    2    0  503  0.30849289999E+02 -0.92726189288E+02 -0.85226121807E+02  0.21610114430E+03  0.17287679965E+03 0.  0.
        -24    2    3    3    0    0  0.12825350759E+02 -0.82388196237E+02 -0.12713227753E+03  0.16909101376E+03  0.74005746018E+02 0.  0.
          6    2    1    2  501    0 -0.30849289999E+02  0.92726189288E+02  0.29549580179E+03  0.35517845991E+03  0.17112610740E+03 0.  0.
         24    2    5    5    0    0 -0.65217494192E+02  0.10796770792E+03  0.26527401204E+03  0.30671276147E+03  0.88272697252E+02 0.  0.
          5    1    5    5  501    0  0.34368204193E+02 -0.15241518632E+02  0.30221789751E+02  0.48465698441E+02  0.47000000000E+01 0. -1.
        -13    1    6    6    0    0 -0.11047283922E+02  0.93900231332E+02  0.13391922015E+03  0.16393185613E+03  0.00000000000E+00 0.  1.
         14    1    6    6    0    0 -0.54170210270E+02  0.14067476587E+02  0.13135479189E+03  0.14278090534E+03  0.00000000000E+00 0. -1.
         -5    1    3    3    0  503  0.18023939240E+02 -0.10337993051E+02  0.41906155722E+02  0.47010130540E+02  0.47000000000E+01 0.  1.
         13    1    4    4    0    0 -0.13795535136E+02  0.66424348501E+01 -0.35148999273E+02  0.38339155968E+02  0.00000000000E+00 0. -1.
        -14    1    4    4    0    0  0.26620885896E+02 -0.89030631087E+02 -0.91983278256E+02  0.13075185779E+03  0.00000000000E+00 0.  1.
</event>
<event>
12    1  0.8449700E-002  0.2162897E+03  0.7818608E-02  0.1136992E+00
         21   -1    0    0  503  502  0.00000000000E+00  0.00000000000E+00  0.32451133810E+03  0.32451133810E+03  0.00000000000E+00 0. -1.
         21   -1    0    0  501  503 -0.00000000000E+00 -0.00000000000E+00 -0.16973196493E+03  0.16973196493E+03  0.00000000000E+00 0. -1.
          6    2    1    2  501    0 -0.10834214009E+03  0.69394396247E+02 -0.20301823736E+02  0.21724041594E+03  0.17386095801E+03 0.  0.
         24    2    3    3    0    0 -0.37481243811E+02  0.86824270997E+02  0.31510981141E+02  0.12762053029E+03  0.79691656694E+02 0.  0.
         -6    2    1    2    0  502  0.10834214009E+03 -0.69394396247E+02  0.17508119691E+03  0.27700288709E+03  0.17182424857E+03 0.  0.
        -24    2    5    5    0    0  0.23840764868E+02 -0.20540372961E+02  0.95736913175E+01  0.84799811124E+02  0.78160497762E+02 0.  0.
          5    1    3    3  501    0 -0.70860896277E+02 -0.17429874750E+02 -0.51812804877E+02  0.89619885651E+02  0.47000000000E+01 0. -1.
        -13    1    4    4    0    0 -0.21270282586E+02 -0.27256709162E+01  0.29655126095E+02  0.36596184322E+02  0.00000000000E+00 0.  1.
         14    1    4    4    0    0 -0.16210961224E+02  0.89549941913E+02  0.18558550462E+01  0.91024345965E+02  0.00000000000E+00 0. -1.
         -5    1    5    5    0  502  0.84501375219E+02 -0.48854023286E+02  0.16550750559E+03  0.19220307597E+03  0.47000000000E+01 0.  1.
         11    1    6    6    0    0 -0.25862959053E+02  0.60425017317E+01 -0.39044691680E+01  0.26844913068E+02  0.00000000000E+00 0. -1.
        -12    1    6    6    0    0  0.49703723921E+02 -0.26582874693E+02  0.13478160486E+02  0.57954898056E+02  0.00000000000E+00 0.  1.
</event>
<event>
12    1  0.8449700E-002  0.2021294E+03  0.7818608E-02  0.1148034E+00
         21   -1    0    0  503  502  0.00000000000E+00  0.00000000000E+00  0.60546909372E+03  0.60546909372E+03  0.00000000000E+00 0.  1.
         21   -1    0    0  501  503 -0.00000000000E+00 -0.00000000000E+00 -0.98426212826E+02  0.98426212826E+02  0.00000000000E+00 0.  1.
          6    2    1    2  501    0 -0.92943498807E+02 -0.51319295474E+02  0.55931755652E+02  0.20972516814E+03  0.17200035118E+03 0.  0.
         24    2    3    3    0    0 -0.94341449410E+01 -0.63977292616E+02  0.65848709040E+02  0.12455197377E+03  0.83636383396E+02 0.  0.
         -6    2    1    2    0  502  0.92943498807E+02  0.51319295474E+02  0.45111112525E+03  0.49417013841E+03  0.17155382337E+03 0.  0.
        -24    2    5    5    0    0  0.74910217910E+02  0.59268535961E+02  0.45661575436E+03  0.47317536320E+03  0.79200234302E+02 0.  0.
          5    1    3    3  501    0 -0.83509353866E+02  0.12657997142E+02 -0.99169533882E+01  0.85173194371E+02  0.47000000000E+01 0. -1.
        -11    1    4    4    0    0  0.73412206814E+01 -0.78970496944E+02  0.35807632697E+02  0.87019649896E+02  0.00000000000E+00 0.  1.
         12    1    4    4    0    0 -0.16775365622E+02  0.14993204329E+02  0.30041076343E+02  0.37532323878E+02  0.00000000000E+00 0. -1.
         -5    1    5    5    0  502  0.18033280897E+02 -0.79492404869E+01 -0.55046291082E+01  0.20994775203E+02  0.47000000000E+01 0.  1.
         13    1    6    6    0    0 -0.15637072348E+02  0.15566409095E+00  0.47372780248E+02  0.49887098245E+02  0.00000000000E+00 0. -1.
        -14    1    6    6    0    0  0.90547290258E+02  0.59112871870E+02  0.40924297411E+03  0.42328826496E+03  0.00000000000E+00 0.  1.
</event>
<event>
12    1  0.8449700E-002  0.2460437E+03  0.7818608E-02  0.1115911E+00
         21   -1    0    0  501  502  0.00000000000E+00  0.00000000000E+00  0.21866651638E+03  0.21866651638E+03  0.00000000000E+00 0. -1.
         21   -1    0    0  502  503 -0.00000000000E+00 -0.00000000000E+00 -0.39102360667E+03  0.39102360667E+03  0.00000000000E+00 0. -1.
         -6    2    1    2    0  503  0.17520393957E+03  0.17096544623E+02 -0.25124551589E+03  0.35130885798E+03  0.17118671723E+03 0.  0.
        -24    2    3    3    0    0  0.13119966729E+03  0.72962213692E+02 -0.20633813847E+03  0.26707043737E+03  0.78831172805E+02 0.  0.
          6    2    1    2  501    0 -0.17520393957E+03 -0.17096544623E+02  0.78888425603E+02  0.25838126507E+03  0.17189759210E+03 0.  0.
         24    2    5    5    0    0 -0.62162531871E+02 -0.31793735777E+01 -0.23710315970E+02  0.10501686478E+03  0.81191588361E+02 0.  0.
          5    1    5    5  501    0 -0.11304140770E+03 -0.13917171046E+02  0.10259874157E+03  0.15336440029E+03  0.47000000000E+01 0. -1.
        -11    1    6    6    0    0  0.18417010803E+02  0.36172788181E+01 -0.14319784672E+02  0.23607778930E+02  0.00000000000E+00 0.  1.
         12    1    6    6    0    0 -0.80579542674E+02 -0.67966523958E+01 -0.93905312978E+01  0.81409085853E+02  0.00000000000E+00 0. -1.
         -5    1    3    3    0  503  0.44004272276E+02 -0.55865669068E+02 -0.44907377425E+02  0.84238420606E+02  0.47000000000E+01 0.  1.
         11    1    4    4    0    0  0.29217546877E+02  0.31013241325E+01 -0.99290200810E+02  0.10354625649E+03  0.00000000000E+00 0. -1.
        -12    1    4    4    0    0  0.10198212041E+03  0.69860889559E+02 -0.10704793766E+03  0.16352418088E+03  0.00000000000E+00 0.  1.
</event>
<event>
12    1  0.8449700E-002  0.2064675E+03  0.7818608E-02  0.1144461E+00
         21   -1    0    0  501  502  0.00000000000E+00  0.00000000000E+00  0.16840906028E+04  0.16840906028E+04  0.00000000000E+00 0. -1.
         21   -1    0    0  502  503 -0.00000000000E+00 -0.00000000000E+00 -0.37812795276E+02  0.37812795276E+02  0.00000000000E+00 0.  1.
         -6    2    1    2    0  503 -0.11227987790E+03 -0.18654656563E+02  0.32776755076E+03  0.38737630163E+03  0.17226161655E+03 0.  0.
        -24    2    3    3    0    0 -0.52061074310E+02 -0.46908738410E+02  0.29841071296E+03  0.31451676984E+03  0.70434790431E+02 0.  0.
          6    2    1    2  501    0  0.11227987790E+03  0.18654656563E+02  0.13185102568E+04  0.13345270965E+04  0.17186770138E+03 0.  0.
         24    2    5    5    0    0  0.10892940953E+03 -0.99518940798E+01  0.59791174682E+03  0.61333789596E+03  0.81977199104E+02 0.  0.
          5    1    5    5  501    0  0.33504683711E+01  0.28606550642E+02  0.72059850997E+03  0.72118920052E+03  0.47000000000E+01 0. -1.
        -13    1    6    6    0    0  0.41588233277E+02 -0.30867192826E+02  0.39797468739E+03  0.40133055770E+03  0.00000000000E+00 0.  1.
         14    1    6    6    0    0  0.67341176254E+02  0.20915298746E+02  0.19993705943E+03  0.21200733826E+03  0.00000000000E+00 0. -1.
         -5    1    3    3    0  503 -0.60218803593E+02  0.28254081848E+02  0.29356837807E+02  0.72859531794E+02  0.47000000000E+01 0.  1.
         13    1    4    4    0    0 -0.12790373992E+02 -0.35254230549E+02  0.24151125128E+03  0.24440568515E+03  0.00000000000E+00 0. -1.
        -14    1    4    4    0    0 -0.39270700318E+02 -0.11654507861E+02  0.56899461681E+02  0.70111084691E+02  0.00000000000E+00 0.  1.
</event>
<event>
12    1  0.8449700E-002  0.3558055E+03  0.7818608E-02  0.1060480E+00
         21   -1    0    0  501  502  0.00000000000E+00  0.00000000000E+00  0.71727429075E+03  0.71727429075E+03  0.00000000000E+00 0. -1.
         21   -1    0    0  502  503 -0.00000000000E+00 -0.00000000000E+00 -0.31030955073E+03  0.31030955073E+03  0.00000000000E+00 0.  1.
         -6    2    1    2    0  503  0.41054787398E+02  0.30633005769E+03  0.54189268895E+03  0.64705382473E+03  0.17177708215E+03 0.  0.
        -24    2    3    3    0    0 -0.29339064934E+02  0.24361306145E+03  0.41579732366E+03  0.48953923109E+03  0.80951466769E+02 0.  0.
          6    2    1    2  501    0 -0.41054787398E+02 -0.30633005769E+03 -0.13492794893E+03  0.38053001675E+03  0.17627802595E+03 0.  0.
         24    2    5    5    0    0 -0.24509540097E+02 -0.22517124842E+03 -0.16593541966E+03  0.29196337081E+03  0.80032729099E+02 0.  0.
          5    1    5    5  501    0 -0.16545247301E+02 -0.81158809272E+02  0.31007470737E+02  0.88566645935E+02  0.47000000000E+01 0. -1.
        -11    1    6    6    0    0 -0.18906516472E+02 -0.23056047563E+03 -0.16496567760E+03  0.28412895677E+03  0.00000000000E+00 0.  1.
         12    1    6    6    0    0 -0.56030236247E+01  0.53892272154E+01 -0.96974206577E+00  0.78344140427E+01  0.00000000000E+00 0. -1.
         -5    1    3    3    0  503  0.70393852332E+02  0.62716996240E+02  0.12609536529E+03  0.15751459364E+03  0.47000000000E+01 0.  1.
         13    1    4    4    0    0 -0.34553233365E+02  0.13400430251E+03  0.29791428574E+03  0.32848744371E+03  0.00000000000E+00 0. -1.
        -14    1    4    4    0    0  0.52141684311E+01  0.10960875894E+03  0.11788303792E+03  0.16105178738E+03  0.00000000000E+00 0.  1.
</event>
<event>
12    1  0.8449700E-002  0.3053496E+03  0.7818608E-02  0.1082751E+00
         21   -1    0    0  503  502  0.00000000000E+00  0.00000000000E+00  0.14521674425E+03  0.14521674425E+03  0.00000000000E+00 0. -1.
         21   -1    0    0  501  503 -0.00000000000E+00 -0.00000000000E+00 -0.16242188135E+04  0.16242188135E+04  0.00000000000E+00 0.  1.
          6    2    1    2  501    0 -0.21479172084E+03  0.13092655515E+03 -0.14290003912E+04  0.14612599077E+04  0.17309290409E+03 0.  0.
         24    2    3    3    0    0 -0.14989796158E+03  0.12436095655E+03 -0.12965400536E+04  0.13135367269E+04  0.80172165206E+02 0.  0.
         -6    2    1    2    0  502  0.21479172084E+03 -0.13092655515E+03 -0.50001678028E+02  0.30817565009E+03  0.17086490955E+03 0.  0.
        -24    2    5    5    0    0  0.19172975158E+03 -0.84479612800E+02 -0.90403365861E+02  0.24226996551E+03  0.81393273742E+02 0.  0.
          5    1    3    3  501    0 -0.64893759263E+02  0.65655986060E+01 -0.13246033766E+03  0.14772318074E+03  0.47000000000E+01 0. -1.
        -13    1    4    4    0    0 -0.12341649243E+01  0.38175867658E+02 -0.27602560748E+03  0.27865580206E+03  0.00000000000E+00 0.  1.
         14    1    4    4    0    0 -0.14866379666E+03  0.86185088890E+02 -0.10205144461E+04  0.10348809249E+04  0.00000000000E+00 0. -1.
         -5    1    5    5    0  502  0.23061969268E+02 -0.46446942354E+02  0.40401687833E+02  0.65905684583E+02  0.47000000000E+01 0.  1.
         11    1    6    6    0    0  0.63558378281E+00 -0.19070480743E+02  0.37145602012E+01  0.19439268505E+02  0.00000000000E+00 0. -1.
        -12    1    6    6    0    0  0.19109416779E+03 -0.65409132057E+02 -0.94117926062E+02  0.22283069700E+03  0.00000000000E+00 0.  1.
</event>
<event>
12    1  0.8449700E-002  0.2572107E+03  0.7818608E-02  0.1108966E+00
         21   -1    0    0  501  502  0.00000000000E+00  0.00000000000E+00  0.11826698789E+04  0.11826698789E+04  0.00000000000E+00 0.  1.
         21   -1    0    0  502  503 -0.00000000000E+00 -0.00000000000E+00 -0.64391164974E+02  0.64391164974E+02  0.00000000000E+00 0.  1.
         -6    2    1    2    0  503 -0.18492943545E+03  0.44872419531E+02  0.32983349538E+03  0.41772202383E+03  0.17172397731E+03 0.  0.
        -24    2    3    3    0    0 -0.14312388591E+03  0.77957807234E+02  0.31306887991E+03  0.36163736297E+03  0.78788275127E+02 0.  0.
          6    2    1    2  501    0  0.18492943545E+03 -0.44872419531E+02  0.78844521853E+03  0.82933902004E+03  0.17304599792E+03 0.  0.
         24    2    5    5    0    0  0.27585428500E+02 -0.12743374691E+02  0.16382373794E+03  0.18438669927E+03  0.78973972235E+02 0.  0.
          5    1    5    5  501    0  0.15734400695E+03 -0.32129044840E+02  0.62462148059E+03  0.64495232077E+03  0.47000000000E+01 0. -1.
        -11    1    6    6    0    0  0.48975100246E+02 -0.29550750405E+02  0.10472783122E+03  0.11933032274E+03  0.00000000000E+00 0.  1.
         12    1    6    6    0    0 -0.21389671746E+02  0.16807375713E+02  0.59095906721E+02  0.65056376528E+02  0.00000000000E+00 0. -1.
         -5    1    3    3    0  503 -0.41805549540E+02 -0.33085387702E+02  0.16764615468E+02  0.56084660858E+02  0.47000000000E+01 0.  1.
         13    1    4    4    0    0 -0.71805796801E+02 -0.40777152677E+01  0.13656333516E+03  0.15434456494E+03  0.00000000000E+00 0. -1.
        -14    1    4    4    0    0 -0.71318089111E+02  0.82035522501E+02  0.17650554475E+03  0.20729279803E+03  0.00000000000E+00 0.  1.
</event>
<event>
12    1  0.8449700E-002  0.1837210E+03  0.7818608E-02  0.1164348E+00
         21   -1    0    0  501  502  0.00000000000E+00  0.00000000000E+00  0.96628273990E+02  0.96628273990E+02  0.00000000000E+00 0. -1.
         21   -1    0    0  502  503 -0.00000000000E+00 -0.00000000000E+00 -0.89747839105E+03  0.89747839105E+03  0.00000000000E+00 0. -1.
         -6    2    1    2    0  503 -0.53882388215E+02 -0.30528161352E+02 -0.78899020980E+03  0.81000328273E+03  0.17252387220E+03 0.  0.
        -24    2    3    3    0    0 -0.49655626058E+02  0.49382474251E+01 -0.21382526627E+03  0.23371122662E+03  0.80060136562E+02 0.  0.
          6    2    1    2  501    0  0.53882388215E+02  0.30528161352E+02 -0.11859907257E+02  0.18410338231E+03  0.17296854506E+03 0.  0.
         24    2    5    5    0    0  0.11095420105E+02  0.62871775744E+02  0.39216217265E+02  0.10988953907E+03  0.80385512174E+02 0.  0.
          5    1    5    5  501    0  0.42786968110E+02 -0.32343614392E+02 -0.51076124522E+02  0.74213843238E+02  0.47000000000E+01 0. -1.
        -11    1    6    6    0    0 -0.24816584338E+02 -0.54175263096E+01  0.11787523650E+02  0.28002824202E+02  0.00000000000E+00 0.  1.
         12    1    6    6    0    0  0.35912004443E+02  0.68289302053E+02  0.27428693615E+02  0.81886714866E+02  0.00000000000E+00 0. -1.
         -5    1    3    3    0  503 -0.42267621574E+01 -0.35466408777E+02 -0.57516494353E+03  0.57629205611E+03  0.47000000000E+01 0.  1.
         13    1    4    4    0    0  0.19829737726E+02  0.14139530762E+01 -0.85053096596E+02  0.87345560861E+02  0.00000000000E+00 0. -1.
        -14    1    4    4    0    0 -0.69485363783E+02  0.35242943489E+01 -0.12877216967E+03  0.14636566576E+03  0.00000000000E+00 0.  1.
</event>
<event>
12    1  0.8449700E-002  0.1820310E+03  0.7818608E-02  0.1166071E+00
         21   -1    0    0  503  502  0.00000000000E+00  0.00000000000E+00  0.13747721580E+04  0.13747721580E+04  0.00000000000E+00 0.  1.
         21   -1    0    0  501  503 -0.00000000000E+00 -0.00000000000E+00 -0.26150000916E+02  0.26150000916E+02  0.00000000000E+00 0.  1.
          6    2    1    2  501    0 -0.29076673793E+02 -0.48250714754E+02  0.47414646019E+03  0.50788792978E+03  0.17309448018E+03 0.  0.
         24    2    3    3    0    0 -0.80426235491E+02 -0.51119928516E+02  0.38832439395E+03  0.40772542717E+03  0.79765672932E+02 0.  0.
         -6    2    1    2    0  502  0.29076673793E+02  0.48250714754E+02  0.87447569690E+03  0.89303422914E+03  0.17213019934E+03 0.  0.
        -24    2    5    5    0    0 -0.39812743049E+02  0.66471589943E+02  0.51593726449E+03  0.52745298023E+03  0.77536176616E+02 0.  0.
          5    1    3    3  501    0  0.51349561698E+02  0.28692137621E+01  0.85822066240E+02  0.10016250260E+03  0.47000000000E+01 0. -1.
        -13    1    4    4    0    0  0.77625813374E+01 -0.25129594386E+02  0.43304368790E+02  0.50665792596E+02  0.00000000000E+00 0.  1.
         14    1    4    4    0    0 -0.88188816828E+02 -0.25990334130E+02  0.34502002516E+03  0.35705963458E+03  0.00000000000E+00 0. -1.
         -5    1    5    5    0  502  0.68889416842E+02 -0.18220875189E+02  0.35853843240E+03  0.36558124891E+03  0.47000000000E+01 0.  1.
         13    1    6    6    0    0 -0.52203400809E+01  0.47230880009E+02  0.11311708328E+03  0.12269263428E+03  0.00000000000E+00 0. -1.
        -14    1    6    6    0    0 -0.34592402968E+02  0.19240709933E+02  0.40282018121E+03  0.40476034595E+03  0.00000000000E+00 0.  1.
</event>
<event>
12    1  0.8449700E-002  0.1885520E+03  0.7818608E-02  0.1160787E+00
         21   -1    0    0  501  502  0.00000000000E+00  0.00000000000E+00  0.25580906341E+03  0.25580906341E+03  0.00000000000E+00 0. -1.
         21   -1    0    0  502  503 -0.00000000000E+00 -0.00000000000E+00 -0.13753792862E+03  0.13753792862E+03  0.00000000000E+00 0. -1.
         -6    2    1    2    0  503  0.83093060583E+01 -0.74663191895E+02  0.37456918638E+02  0.19223650556E+03  0.17293992172E+03 0.  0.
        -24    2    3    3    0    0  0.90318064516E+01 -0.11896918386E+03  0.18417196572E+02  0.14377885449E+03  0.78089215850E+02 0.  0.
          6    2    1    2  501    0 -0.83093060583E+01  0.74663191895E+02  0.80814216151E+02  0.20111048647E+03  0.16813938696E+03 0.  0.
         24    2    5    5    0    0  0.18321684451E+02  0.13123393358E+01 -0.96023173038E+01  0.81583097359E+02  0.78906215987E+02 0.  0.
          5    1    5    5  501    0 -0.26630990509E+02  0.73350852559E+02  0.90416533455E+02  0.11952738912E+03  0.47000000000E+01 0. -1.
        -13    1    6    6    0    0 -0.23142657959E+02  0.16325609920E+02 -0.21900856874E+02  0.35801615724E+02  0.00000000000E+00 0.  1.
         14    1    6    6    0    0  0.41464342410E+02 -0.15013270584E+02  0.12298539570E+02  0.45781481635E+02  0.00000000000E+00 0. -1.
         -5    1    3    3    0  503 -0.72250039322E+00  0.44305991964E+02  0.19039722066E+02  0.48457651069E+02  0.47000000000E+01 0.  1.
         11    1    4    4    0    0 -0.33968758578E+02 -0.61289959768E+02  0.15546213879E+02  0.71777576538E+02  0.00000000000E+00 0. -1.
        -12    1    4    4    0    0  0.43000565030E+02 -0.57679224091E+02  0.28709826926E+01  0.72001277948E+02  0.00000000000E+00 0.  1.
</event>
<event>
12    1  0.8449700E-002  0.1849841E+03  0.7818608E-02  0.1163419E+00
         21   -1    0    0  501  502  0.00000000000E+00  0.00000000000E+00  0.15281105676E+03  0.15281105676E+03  0.00000000000E+00 0.  1.
         21   -1    0    0  502  503 -0.00000000000E+00 -0.00000000000E+00 -0.23830084242E+03  0.23830084242E+03  0.00000000000E+00 0.  1.
         -6    2    1    2    0  503  0.18194273814E+02  0.63497793908E+02  0.80717869560E+01  0.18516015923E+03  0.17278926295E+03 0.  0.
        -24    2    3    3    0    0  0.46619941533E+02  0.50700616884E+02  0.61881285185E+02  0.12279559858E+03  0.80656643089E+02 0.  0.
          6    2    1    2  501    0 -0.18194273814E+02 -0.63497793908E+02 -0.93561572624E+02  0.20595173995E+03  0.17117052867E+03 0.  0.
         24    2    5    5    0    0  0.10119361050E+02 -0.36172767518E+02  0.15963116259E+02  0.89478281763E+02  0.79628331946E+02 0.  0.
          5    1    5    5  501    0 -0.28313634865E+02 -0.27325026390E+02 -0.10952468888E+03  0.11647345818E+03  0.47000000000E+01 0. -1.
        -13    1    6    6    0    0 -0.19526319095E+02 -0.50320891748E+02  0.26722643208E+01  0.54042670921E+02  0.00000000000E+00 0.  1.
         14    1    6    6    0    0  0.29645680145E+02  0.14148124230E+02  0.13290851939E+02  0.35435610842E+02  0.00000000000E+00 0. -1.
         -5    1    3    3    0  503 -0.28425667719E+02  0.12797177025E+02 -0.53809498229E+02  0.62364560647E+02  0.47000000000E+01 0.  1.
         13    1    4    4    0    0  0.42123290873E+02 -0.11360232551E+02  0.29343964066E+02  0.52578462745E+02  0.00000000000E+00 0. -1.
        -14    1    4    4    0    0  0.44966506606E+01  0.62060849435E+02  0.32537321120E+02  0.70217135838E+02  0.00000000000E+00 0.  1.
</event>
<event>
12    1  0.8449700E-002  0.1874556E+03  0.7818608E-02  0.1160906E+00
         21   -1    0    0  503  502  0.00000000000E+00  0.00000000000E+00  0.10474111808E+04  0.10474111808E+04  0.00000000000E+00 0.  1.
         21   -1    0    0  501  503 -0.00000000000E+00 -0.00000000000E+00 -0.59851300865E+02  0.59851300865E+02  0.00000000000E+00 0.  1.
          6    2    1    2  501    0 -0.72712021648E+02  0.50987418014E+01  0.86107865971E+03  0.88112735777E+03  0.17209278645E+03 0.  0.
         24    2    3    3    0    0 -0.45229767086E+02 -0.31150152297E+02  0.79477610110E+03  0.80058310958E+03  0.79045560536E+02 0.  0.
         -6    2    1    2    0  502  0.72712021648E+02 -0.50987418014E+01  0.12648122023E+03  0.22613512389E+03  0.17270367665E+03 0.  0.
        -24    2    5    5    0    0 -0.65621632760E+00  0.46210125173E+02  0.38180142452E+02  0.10029924463E+03  0.80413984526E+02 0.  0.
          5    1    3    3  501    0 -0.27482254562E+02  0.36248894099E+02  0.66302558605E+02  0.80544248192E+02  0.47000000000E+01 0. -1.
        -11    1    4    4    0    0 -0.25007310429E+02  0.12592471378E+02  0.92232947125E+02  0.96389068081E+02  0.00000000000E+00 0.  1.
         12    1    4    4    0    0 -0.20222456657E+02 -0.43742623676E+02  0.70254315398E+03  0.70419404150E+03  0.00000000000E+00 0. -1.
         -5    1    5    5    0  502  0.73368237976E+02 -0.51308866975E+02  0.88301077775E+02  0.12583587926E+03  0.47000000000E+01 0.  1.
         11    1    6    6    0    0 -0.58945980570E+01  0.14551897619E+02  0.59655776204E+02  0.61687240537E+02  0.00000000000E+00 0. -1.
        -12    1    6    6    0    0  0.52383817294E+01  0.31658227554E+02 -0.21475633752E+02  0.38612004093E+02  0.00000000000E+00 0.  1.
</event>
<event>
12    1  0.8449700E-002  0.1781370E+03  0.7818608E-02  0.1169630E+00
         21   -1    0    0  503  502  0.00000000000E+00  0.00000000000E+00  0.21550881329E+02  0.21550881329E+02  0.00000000000E+00 0. -1.
         21   -1    0    0  501  503 -0.00000000000E+00 -0.00000000000E+00 -0.15103868772E+04  0.15103868772E+04  0.00000000000E+00 0. -1.
          6    2    1    2  501    0  0.68163485965E+01  0.46961566294E+02 -0.86649830910E+03  0.88461975442E+03  0.17170014247E+03 0.  0.
         24    2    3    3    0    0 -0.13172757122E+02 -0.41176310980E+01 -0.76261714032E+03  0.76705259922E+03  0.81205362229E+02 0.  0.
         -6    2    1    2    0  502 -0.68163485965E+01 -0.46961566294E+02 -0.62233768675E+03  0.64731800408E+03  0.17165241259E+03 0.  0.
        -24    2    5    5    0    0  0.42975364653E+01  0.40633689357E+02 -0.33424794665E+03  0.34596400029E+03  0.79371494415E+02 0.  0.
          5    1    3    3  501    0  0.19989105718E+02  0.51079197392E+02 -0.10388116878E+03  0.11756715520E+03  0.47000000000E+01 0. -1.
        -11    1    4    4    0    0 -0.34380678800E+02 -0.10570112519E+02 -0.15854748185E+03  0.16257632778E+03  0.00000000000E+00 0.  1.
         12    1    4    4    0    0  0.21207921678E+02  0.64524814207E+01 -0.60406965847E+03  0.60447627144E+03  0.00000000000E+00 0. -1.
         -5    1    5    5    0  502 -0.11113885062E+02 -0.87595255651E+02 -0.28808974009E+03  0.30135400379E+03  0.47000000000E+01 0.  1.
         11    1    6    6    0    0 -0.26870671037E+02 -0.10254061110E+02 -0.87630119788E+02  0.92229152795E+02  0.00000000000E+00 0. -1.
        -12    1    6    6    0    0  0.31168207503E+02  0.50887750467E+02 -0.24661782686E+03  0.25373484750E+03  0.00000000000E+00 0.  1.
</event>
<event>
12    1  0.8449700E-002  0.1762262E+03  0.7818608E-02  0.1171540E+00
         21   -1    0    0  501  502  0.00000000000E+00  0.00000000000E+00  0.11859411660E+03  0.11859411660E+03  0.00000000000E+00 0.  1.
         21   -1    0    0  502  503 -0.00000000000E+00 -0.00000000000E+00 -0.26223501304E+03  0.26223501304E+03  0.00000000000E+00 0.  1.
         -6    2    1    2    0  503  0.33828919399E+02 -0.22545890701E+02 -0.80698643118E+02  0.19369974304E+03  0.17133186066E+03 0.  0.
        -24    2    3    3    0    0 -0.30102821156E+02 -0.17379140504E+02  0.31490774822E+01  0.88028114832E+02  0.80813476263E+02 0.  0.
          6    2    1    2  501    0 -0.33828919399E+02  0.22545890701E+02 -0.62942253322E+02  0.18712938661E+03  0.17147293403E+03 0.  0.
         24    2    5    5    0    0 -0.24190811304E+02 -0.20477864794E+02 -0.10005391110E+03  0.12930809462E+03  0.75533170919E+02 0.  0.
          5    1    5    5  501    0 -0.96381080948E+01  0.43023755495E+02  0.37111657777E+02  0.57821291991E+02  0.47000000000E+01 0. -1.
        -13    1    6    6    0    0  0.75705665515E+01  0.25066898142E+02 -0.36393201908E+02  0.44834451100E+02  0.00000000000E+00 0.  1.
         14    1    6    6    0    0 -0.31761377856E+02 -0.45544762936E+02 -0.63660709191E+02  0.84473643517E+02  0.00000000000E+00 0. -1.
         -5    1    3    3    0  503  0.63931740555E+02 -0.51667501965E+01 -0.83847720600E+02  0.10567162821E+03  0.47000000000E+01 0.  1.
         13    1    4    4    0    0 -0.20989534487E+02  0.25964139068E+02  0.21902852764E+02  0.39930339777E+02  0.00000000000E+00 0. -1.
        -14    1    4    4    0    0 -0.91132866693E+01 -0.43343279572E+02 -0.18753775282E+02  0.48097775055E+02  0.00000000000E+00 0.  1.
</event>
<event>
12    1  0.8449700E-002  0.1926466E+03  0.7818608E-02  0.1157721E+00
         21   -1    0    0  503  502  0.00000000000E+00  0.00000000000E+00  0.51839003476E+02  0.51839003476E+02  0.00000000000E+00 0. -1.
         21   -1    0    0  501  503 -0.00000000000E+00 -0.00000000000E+00 -0.12543126864E+04  0.12543126864E+04  0.00000000000E+00 0. -1.
          6    2    1    2  501    0 -0.29804976396E+01  0.66932633132E+02 -0.10331678066E+04  0.10496810589E+04  0.17293278448E+03 0.  0.
         24    2    3    3    0    0 -0.14110048298E+02  0.10294894950E+03 -0.54774643489E+03  0.56277548272E+03  0.76762668986E+02 0.  0.
         -6    2    1    2    0  502  0.29804976396E+01 -0.66932633132E+02 -0.16930587630E+03  0.25647063101E+03  0.18062071885E+03 0.  0.
        -24    2    5    5    0    0 -0.27251304289E+02 -0.94814659087E+02 -0.65650996844E+02  0.14485614605E+03  0.83311442778E+02 0.  0.
          5    1    3    3  501    0  0.11129550659E+02 -0.36016316370E+02 -0.48542137173E+03  0.48690557614E+03  0.47000000000E+01 0. -1.
        -13    1    4    4    0    0  0.12218621587E+02 -0.44716270941E+01 -0.22326193730E+02  0.25840841489E+02  0.00000000000E+00 0.  1.
         14    1    4    4    0    0 -0.26328669886E+02  0.10742057660E+03 -0.52542024116E+03  0.53693464124E+03  0.00000000000E+00 0. -1.
         -5    1    5    5    0  502  0.30231801929E+02  0.27882025954E+02 -0.10365487946E+03  0.11161448497E+03  0.47000000000E+01 0.  1.
         11    1    6    6    0    0  0.22001062454E+02 -0.59517184676E+02 -0.53628341965E+02  0.83080329097E+02  0.00000000000E+00 0. -1.
        -12    1    6    6    0    0 -0.49252366743E+02 -0.35297474410E+02 -0.12022654879E+02  0.61775816950E+02  0.00000000000E+00 0.  1.
</event>
<event>
12    1  0.8449700E-002  0.2025513E+03  0.7818608E-02  0.1148655E+00
         21   -1    0    0  503  502  0.00000000000E+00  0.00000000000E+00  0.54590817911E+03  0.54590817911E+03  0.00000000000E+00 0.  1.
         21   -1    0    0  501  503 -0.00000000000E+00 -0.00000000000E+00 -0.73358600169E+02  0.73358600169E+02  0.00000000000E+00 0.  1.
          6    2    1    2  501    0 -0.10029538540E+03  0.43180966586E+02  0.23131651927E+03  0.30746441501E+03  0.17059681767E+03 0.  0.
         24    2    3    3    0    0 -0.74109090507E+02 -0.33429313460E+02  0.17420140048E+03  0.20827225885E+03  0.80134446906E+02 0.  0.
         -6    2    1    2    0  502  0.10029538540E+03 -0.43180966586E+02  0.24123305967E+03  0.31180236427E+03  0.16463160414E+03 0.  0.
        -24    2    5    5    0    0  0.39172755926E+02 -0.63842462637E+02  0.69715354347E+02  0.12849037205E+03  0.77712162729E+02 0.  0.
          5    1    3    3  501    0 -0.26186294897E+02  0.76610280046E+02  0.57115118792E+02  0.99192156160E+02  0.47000000000E+01 0. -1.
        -11    1    4    4    0    0 -0.17706031812E+02 -0.24968977798E+02  0.67099846778E+01  0.31336517184E+02  0.00000000000E+00 0.  1.
         12    1    4    4    0    0 -0.56403058695E+02 -0.84603356620E+01  0.16749141581E+03  0.17693574166E+03  0.00000000000E+00 0. -1.
         -5    1    5    5    0  502  0.61122629478E+02  0.20661496051E+02  0.17151770532E+03  0.18331199222E+03  0.47000000000E+01 0.  1.
         11    1    6    6    0    0 -0.74967249574E+01  0.39186264895E+01  0.40197744324E+02  0.41078159250E+02  0.00000000000E+00 0. -1.
        -12    1    6    6    0    0  0.46669480884E+02 -0.67761089127E+02  0.29517610023E+02  0.87412212803E+02  0.00000000000E+00 0.  1.
</event>
<event>
12    1  0.8449700E-002  0.2020542E+03  0.7818608E-02  0.1149239E+00
         21   -1    0    0  503  502  0.00000000000E+00  0.00000000000E+00  0.27192902057E+02  0.27192902057E+02  0.00000000000E+00 0.  1.
         21   -1    0    0  501  503 -0.00000000000E+00 -0.00000000000E+00 -0.25246066833E+04  0.25246066833E+04  0.00000000000E+00 0.  1.
          6    2    1    2  501    0  0.96998741506E+02 -0.42254404493E+02 -0.20672305188E+04  0.20765275321E+04  0.16531903451E+03 0.  0.
         24    2    3    3    0    0  0.12119002297E+03 -0.90260334144E+01 -0.18120180468E+04  0.18179838441E+04  0.82990147148E+02 0.  0.
         -6    2    1    2    0  502 -0.96998741506E+02  0.42254404493E+02 -0.43018326242E+03  0.47527205323E+03  0.17213859173E+03 0.  0.
        -24    2    5    5    0    0 -0.71007666949E+02  0.95988611532E+02 -0.29313202678E+03  0.32571259297E+03  0.76853144281E+02 0.  0.
          5    1    3    3  501    0 -0.24191281463E+02 -0.33228371078E+02 -0.25521247199E+03  0.25854368800E+03  0.47000000000E+01 0. -1.
        -11    1    4    4    0    0  0.69793104317E+02 -0.10252446598E+02 -0.49920162817E+03  0.50416114054E+03  0.00000000000E+00 0.  1.
         12    1    4    4    0    0  0.51396918652E+02  0.12264131838E+01 -0.13128164186E+04  0.13138227035E+04  0.00000000000E+00 0. -1.
         -5    1    5    5    0  502 -0.25991074557E+02 -0.53734207040E+02 -0.13705123564E+03  0.14955946026E+03  0.47000000000E+01 0.  1.
         13    1    6    6    0    0  0.12263162212E+02  0.25042204882E+02 -0.31145861277E+02  0.41803849673E+02  0.00000000000E+00 0. -1.
        -14    1    6    6    0    0 -0.83270829161E+02  0.70946406651E+02 -0.26198616551E+03  0.28390874330E+03  0.00000000000E+00 0.  1.
</event>
<event>
12    1  0.8449700E-002  0.2375776E+03  0.7818608E-02  0.1121483E+00
         21   -1    0    0  503  502  0.00000000000E+00  0.00000000000E+00  0.33239362155E+02  0.33239362155E+02  0.00000000000E+00 0.  1.
         21   -1    0    0  501  503 -0.00000000000E+00 -0.00000000000E+00 -0.21418195516E+04  0.21418195516E+04  0.00000000000E+00 0.  1.
          6    2    1    2  501    0 -0.15963250288E+03 -0.40107990931E+02 -0.15515453312E+04  0.15696292691E+04  0.17132408107E+03 0.  0.
         24    2    3    3    0    0 -0.11152652969E+03 -0.90048450369E+02 -0.97515095276E+03  0.98905989027E+03  0.82299426692E+02 0.  0.
         -6    2    1    2    0  502  0.15963250288E+03  0.40107990931E+02 -0.55703485822E+03  0.60542964462E+03  0.17078066168E+03 0.  0.
        -24    2    5    5    0    0  0.10439343827E+03  0.30255193106E+02 -0.18093361140E+03  0.22513677098E+03  0.78334074639E+02 0.  0.
          5    1    3    3  501    0 -0.48105973188E+02  0.49940459437E+02 -0.57639437848E+03  0.58056937888E+03  0.47000000000E+01 0. -1.
        -11    1    4    4    0    0 -0.88360229852E+02 -0.23689512802E+02 -0.64945160242E+03  0.65586287220E+03  0.00000000000E+00 0.  1.
         12    1    4    4    0    0 -0.23166299842E+02 -0.66358937566E+02 -0.32569935033E+03  0.33319701807E+03  0.00000000000E+00 0. -1.
         -5    1    5    5    0  502  0.55239064617E+02  0.98527978258E+01 -0.37610124682E+03  0.38029287364E+03  0.47000000000E+01 0.  1.
         13    1    6    6    0    0  0.12911503403E+02  0.74374429459E+00 -0.95993920088E+02  0.96861203635E+02  0.00000000000E+00 0. -1.
        -14    1    6    6    0    0  0.91481934862E+02  0.29511448811E+02 -0.84939691309E+02  0.12827556734E+03  0.00000000000E+00 0.  1.
</event>
<event>
12    1  0.8449700E-002  0.2255154E+03  0.7818608E-02  0.1129884E+00
         21   -1    0    0  501  502  0.00000000000E+00  0.00000000000E+00  0.11194632803E+04  0.11194632803E+04  0.00000000000E+00 0.  1.
         21   -1    0    0  502  503 -0.00000000000E+00 -0.00000000000E+00 -0.73440689815E+02  0.73440689815E+02  0.00000000000E+00 0.  1.
         -6    2    1    2    0  503 -0.59268407353E+02  0.13398483745E+03  0.15412383132E+03  0.27293625265E+03  0.17110044376E+03 0.  0.
        -24    2    3    3    0    0 -0.30329241792E+02  0.32106553074E+02  0.13814120729E+03  0.16572527186E+03  0.80194631525E+02 0.  0.
          6    2    1    2  501    0  0.59268407353E+02 -0.13398483745E+03  0.89189875919E+03  0.91996771749E+03  0.17144247957E+03 0.  0.
         24    2    5    5    0    0  0.45724641739E+02 -0.12761839243E+03  0.89092956132E+03  0.90425165712E+03  0.74420287672E+02 0.  0.
          5    1    5    5  501    0  0.13543765614E+02 -0.63664450178E+01  0.96919787333E+00  0.15716060374E+02  0.47000000000E+01 0. -1.
        -11    1    6    6    0    0  0.64205511197E+02 -0.80402162579E+02  0.54526314683E+03  0.55488625385E+03  0.00000000000E+00 0.  1.
         12    1    6    6    0    0 -0.18480869457E+02 -0.47216229854E+02  0.34566641449E+03  0.34936540327E+03  0.00000000000E+00 0. -1.
         -5    1    3    3    0  503 -0.28939165560E+02  0.10187828438E+03  0.15982624034E+02  0.10721098079E+03  0.47000000000E+01 0.  1.
         13    1    4    4    0    0 -0.99049646728E+00  0.49980813931E+02  0.11169035612E+03  0.12236747319E+03  0.00000000000E+00 0. -1.
        -14    1    4    4    0    0 -0.29338745325E+02 -0.17874260856E+02  0.26450851166E+02  0.43357798674E+02  0.00000000000E+00 0.  1.
</event>
<event>
12    1  0.8449700E-002  0.2001754E+03  0.7818608E-02  0.1149661E+00
         21   -1    0    0  501  502  0.00000000000E+00  0.00000000000E+00  0.16477485399E+04  0.16477485399E+04  0.00000000000E+00 0. -1.
         21   -1    0    0  502  503 -0.00000000000E+00 -0.00000000000E+00 -0.26911067591E+02  0.26911067591E+02  0.00000000000E+00 0. -1.
         -6    2    1    2    0  503  0.60452761148E+02 -0.82083136195E+02  0.54790021688E+03  0.58320895322E+03  0.17188908600E+03 0.  0.
        -24    2    3    3    0    0  0.97668000261E+02 -0.52457586007E+02  0.29938464065E+03  0.33013835265E+03  0.84079321050E+02 0.  0.
          6    2    1    2  501    0 -0.60452761148E+02  0.82083136195E+02  0.10729372554E+04  0.10914506542E+04  0.17227303628E+03 0.  0.
         24    2    5    5    0    0 -0.53481340236E+02  0.90950522142E+02  0.10709139819E+04  0.10790645782E+04  0.79945957978E+02 0.  0.
          5    1    5    5  501    0 -0.69714209118E+01 -0.88673859467E+01  0.20232735306E+01  0.12386076006E+02  0.47000000000E+01 0. -1.
        -11    1    6    6    0    0 -0.66432284262E+02  0.38903504511E+02  0.71490509608E+03  0.71903826564E+03  0.00000000000E+00 0.  1.
         12    1    6    6    0    0  0.12950944026E+02  0.52047017631E+02  0.35600888579E+03  0.36002631259E+03  0.00000000000E+00 0. -1.
         -5    1    3    3    0  503 -0.37215239113E+02 -0.29625550188E+02  0.24851557623E+03  0.25307060058E+03  0.47000000000E+01 0.  1.
         13    1    4    4    0    0  0.53602950224E+02 -0.31871614982E+02  0.26052274941E+03  0.26788277115E+03  0.00000000000E+00 0. -1.
        -14    1    4    4    0    0  0.44065050037E+02 -0.20585971026E+02  0.38861891232E+02  0.62255581500E+02  0.00000000000E+00 0.  1.
</event>
<event>
12    1  0.8449700E-002  0.2779433E+03  0.7818608E-02  0.1096873E+00
         21   -1    0    0  503  502  0.00000000000E+00  0.00000000000E+00  0.13345063677E+03  0.13345063677E+03  0.00000000000E+00 0. -1.
         21   -1    0    0  501  503 -0.00000000000E+00 -0.00000000000E+00 -0.58065339030E+03  0.58065339030E+03  0.00000000000E+00 0.  1.
          6    2    1    2  501    0 -0.11035891381E+03  0.18785670825E+03 -0.24765989373E+03  0.37227396413E+03  0.17257823941E+03 0.  0.
         24    2    3    3    0    0 -0.11235448085E+03  0.92632442955E+02 -0.21085121200E+03  0.27005551160E+03  0.85249321916E+02 0.  0.
         -6    2    1    2    0  502  0.11035891381E+03 -0.18785670825E+03 -0.19954285980E+03  0.34183006294E+03  0.17193372660E+03 0.  0.
        -24    2    5    5    0    0 -0.19207895424E+01 -0.12548671530E+03 -0.10288273801E+03  0.18101334444E+03  0.80189574975E+02 0.  0.
          5    1    3    3  501    0  0.19955670436E+01  0.95224265292E+02 -0.36808681730E+02  0.10221845254E+03  0.47000000000E+01 0. -1.
        -11    1    4    4    0    0  0.93598037625E+01 -0.61058474372E+01 -0.21710800359E+02  0.24418152093E+02  0.00000000000E+00 0.  1.
         12    1    4    4    0    0 -0.12171428461E+03  0.98738290393E+02 -0.18914041164E+03  0.24563735950E+03  0.00000000000E+00 0. -1.
         -5    1    5    5    0  502  0.11227970335E+03 -0.62369992944E+02 -0.96660121797E+02  0.16081671850E+03  0.47000000000E+01 0.  1.
         13    1    6    6    0    0 -0.18400190694E+02 -0.15111802314E+02  0.65690531660E+01  0.24699919964E+02  0.00000000000E+00 0. -1.
        -14    1    6    6    0    0  0.16479401151E+02 -0.11037491299E+03 -0.10945179117E+03  0.15631342447E+03  0.00000000000E+00 0.  1.
</event>
<event>
12    1  0.8449700E-002  0.2347387E+03  0.7818608E-02  0.1123388E+00
         21   -1    0    0  501  502  0.00000000000E+00  0.00000000000E+00  0.38665474265E+03  0.38665474265E+03  0.00000000000E+00 0.  1.
         21   -1    0    0  502  503 -0.00000000000E+00 -0.00000000000E+00 -0.20265585335E+03  0.20265585335E+03  0.00000000000E+00 0. -1.
         -6    2    1    2    0  503 -0.13685297157E+03  0.81167579399E+02 -0.68679942775E+02  0.24457957498E+03  0.17258424663E+03 0.  0.
        -24    2    3    3    0    0 -0.16089091915E+03  0.88103780405E+02 -0.81440647187E+02  0.21610398218E+03  0.80126076361E+02 0.  0.
          6    2    1    2  501    0  0.13685297157E+03 -0.81167579399E+02  0.25267883208E+03  0.34473102102E+03  0.17226715561E+03 0.  0.
         24    2    5    5    0    0  0.97230119912E+02 -0.10462981953E+03  0.24916713028E+03  0.29831045301E+03  0.80645968343E+02 0.  0.
          5    1    5    5  501    0  0.39622851661E+02  0.23462240128E+02  0.35117018006E+01  0.46420568018E+02  0.47000000000E+01 0. -1.
        -13    1    6    6    0    0  0.74811714373E+02 -0.57092933721E+02  0.21740790818E+03  0.23690207730E+03  0.00000000000E+00 0.  1.
         14    1    6    6    0    0  0.22418405539E+02 -0.47536885806E+02  0.31759222096E+02  0.61408375709E+02  0.00000000000E+00 0. -1.
         -5    1    3    3    0  503  0.24037947581E+02 -0.69362010060E+01  0.12760704412E+02  0.28475592801E+02  0.47000000000E+01 0.  1.
         11    1    4    4    0    0 -0.72274623393E+01 -0.10575993110E+02 -0.19371737114E+02  0.23223954033E+02  0.00000000000E+00 0. -1.
        -12    1    4    4    0    0 -0.15366345681E+03  0.98679773515E+02 -0.62068910072E+02  0.19288002815E+03  0.00000000000E+00 0.  1.
</event>
<event>
12    1  0.8449700E-002  0.1797231E+03  0.7818608E-02  0.1168135E+00
         21   -1    0    0  503  502  0.00000000000E+00  0.00000000000E+00  0.80531778401E+02  0.80531778401E+02  0.00000000000E+00 0. -1.
         21   -1    0    0  501  503 -0.00000000000E+00 -0.00000000000E+00 -0.46024109216E+03  0.46024109216E+03  0.00000000000E+00 0. -1.
          6    2    1    2  501    0 -0.23718713887E+02 -0.46323454464E+02 -0.28714579566E+03  0.33861357576E+03  0.17174983523E+03 0.  0.
         24    2    3    3    0    0 -0.28953551171E+02  0.39263236346E+02 -0.13595660739E+03  0.16473791382E+03  0.79211560416E+02 0.  0.
         -6    2    1    2    0  502  0.23718713887E+02  0.46323454464E+02 -0.92563518097E+02  0.20215929480E+03  0.17202306755E+03 0.  0.
        -24    2    5    5    0    0  0.49387171196E+01  0.52742258424E+02 -0.12895449161E+03  0.16044260418E+03  0.79413044135E+02 0.  0.
          5    1    3    3  501    0  0.52348372836E+01 -0.85586690810E+02 -0.15118918828E+03  0.17387566195E+03  0.47000000000E+01 0. -1.
        -11    1    4    4    0    0 -0.64893354952E+01  0.25240677522E+02  0.16729839305E+00  0.26062065645E+02  0.00000000000E+00 0.  1.
         12    1    4    4    0    0 -0.22464215676E+02  0.14022558824E+02 -0.13612390578E+03  0.13867584817E+03  0.00000000000E+00 0. -1.
         -5    1    5    5    0  502  0.18779996768E+02 -0.64188039604E+01  0.36390973514E+02  0.41716690619E+02  0.47000000000E+01 0.  1.
         13    1    6    6    0    0  0.20374703109E+02  0.81947105985E+01  0.12187266745E+01  0.21994706256E+02  0.00000000000E+00 0. -1.
        -14    1    6    6    0    0 -0.15435985989E+02  0.44547547826E+02 -0.13017321828E+03  0.13844789792E+03  0.00000000000E+00 0.  1.
</event>
<event>
12    1  0.8449700E-002  0.2066309E+03  0.7818608E-02  0.1145676E+00
         21   -1    0    0  503  502  0.00000000000E+00  0.00000000000E+00  0.66077870610E+03  0.66077870610E+03  0.00000000000E+00 0. -1.
         21   -1    0    0  501  503 -0.00000000000E+00 -0.00000000000E+00 -0.13076596996E+03  0.13076596996E+03  0.00000000000E+00 0. -1.
          6    2    1    2  501    0 -0.30062830010E+02 -0.98370317104E+02 -0.23100226194E+02  0.20109547496E+03  0.17124624540E+03 0.  0.
         24    2    3    3    0    0  0.15623306825E+02 -0.41619803624E+02  0.45980195791E+02  0.10058657694E+03  0.77634948874E+02 0.  0.
         -6    2    1    2    0  502  0.30062830010E+02  0.98370317104E+02  0.55311296234E+03  0.59044920110E+03  0.17920886403E+03 0.  0.
        -24    2    5    5    0    0  0.22018083289E+02  0.12630016756E+03  0.30412017713E+03  0.33972167653E+03  0.80530783226E+02 0.  0.
          5    1    3    3  501    0 -0.45686136835E+02 -0.56750513481E+02 -0.69080421985E+02  0.10050889802E+03  0.47000000000E+01 0. -1.
        -13    1    4    4    0    0 -0.14451221751E+02 -0.52918008051E+02  0.40042390350E+02  0.67915730218E+02  0.00000000000E+00 0.  1.
         14    1    4    4    0    0  0.30074528576E+02  0.11298204428E+02  0.59378054412E+01  0.32670846726E+02  0.00000000000E+00 0. -1.
         -5    1    5    5    0  502  0.80447467210E+01 -0.27929850457E+02  0.24899278520E+03  0.25072752457E+03  0.47000000000E+01 0.  1.
         13    1    6    6    0    0  0.36331484696E+02  0.64039817018E+02  0.23186586679E+03  0.24327526616E+03  0.00000000000E+00 0. -1.
        -14    1    6    6    0    0 -0.14313401407E+02  0.62260350544E+02  0.72254310343E+02  0.96446410368E+02  0.00000000000E+00 0.  1.
</event>
<event>
12    1  0.8449700E-002  0.1823586E+03  0.7818608E-02  0.1165875E+00
         21   -1    0    0  501  502  0.00000000000E+00  0.00000000000E+00  0.55108008111E+03  0.55108008111E+03  0.00000000000E+00 0.  1.
         21   -1    0    0  502  503 -0.00000000000E+00 -0.00000000000E+00 -0.69143727585E+02  0.69143727585E+02  0.00000000000E+00 0.  1.
         -6    2    1    2    0  503  0.51184267511E+02  0.15460890296E+02  0.12665438925E+03  0.22087441293E+03  0.17287366370E+03 0.  0.
        -24    2    3    3    0    0 -0.95047722777E+01  0.10438824908E+02  0.13704230914E+03  0.15891975555E+03  0.79218586503E+02 0.  0.
          6    2    1    2  501    0 -0.51184267511E+02 -0.15460890296E+02  0.35528196427E+03  0.39934939577E+03  0.17434390553E+03 0.  0.
         24    2    5    5    0    0 -0.93529777351E+02  0.20879181108E+02  0.20685227398E+03  0.24070764227E+03  0.77256367638E+02 0.  0.
          5    1    5    5  501    0  0.42345509840E+02 -0.36340071404E+02  0.14842969029E+03  0.15864175350E+03  0.47000000000E+01 0. -1.
        -13    1    6    6    0    0 -0.78606544667E+02  0.30007966189E+02  0.20674804906E+03  0.22321340168E+03  0.00000000000E+00 0.  1.
         14    1    6    6    0    0 -0.14923232685E+02 -0.91287850806E+01  0.10422491530E+00  0.17494240585E+02  0.00000000000E+00 0. -1.
         -5    1    3    3    0  503  0.60689039789E+02  0.50220653884E+01 -0.10387919889E+02  0.61954657378E+02  0.47000000000E+01 0.  1.
         11    1    4    4    0    0  0.22513986030E+02 -0.13859560796E+02  0.14930171814E+02  0.30362427815E+02  0.00000000000E+00 0. -1.
        -12    1    4    4    0    0 -0.32018758308E+02  0.24298385703E+02  0.12211213733E+03  0.12855732774E+03  0.00000000000E+00 0.  1.
</event>
<event>
12    1  0.8449700E-002  0.1896380E+03  0.7818608E-02  0.1158935E+00
         21   -1    0    0  501  502  0.00000000000E+00  0.00000000000E+00  0.37608868165E+03  0.37608868165E+03  0.00000000000E+00 0. -1.
         21   -1    0    0  502  503 -0.00000000000E+00 -0.00000000000E+00 -0.25314764370E+03  0.25314764370E+03  0.00000000000E+00 0. -1.
         -6    2    1    2    0  503 -0.77873161579E+02 -0.72847295387E+00 -0.18700881667E+03  0.26587495727E+03  0.17219882527E+03 0.  0.
        -24    2    3    3    0    0 -0.53296526207E+02 -0.14138337674E+02 -0.20802154249E+03  0.23055555574E+03  0.82719343856E+02 0.  0.
          6    2    1    2  501    0  0.77873161579E+02  0.72847295387E+00  0.30994985462E+03  0.36336136808E+03  0.17290983624E+03 0.  0.
         24    2    5    5    0    0 -0.87394665512E+01  0.39866066689E+02  0.19550167262E+03  0.21451925389E+03  0.78306607274E+02 0.  0.
          5    1    5    5  501    0  0.86612628130E+02 -0.39137593735E+02  0.11444818199E+03  0.14884211419E+03  0.47000000000E+01 0. -1.
        -11    1    6    6    0    0  0.28598933985E+02 -0.54880381186E+01  0.55080043298E+02  0.62304323744E+02  0.00000000000E+00 0.  1.
         12    1    6    6    0    0 -0.37338400536E+02  0.45354104808E+02  0.14042162932E+03  0.15221493015E+03  0.00000000000E+00 0. -1.
         -5    1    3    3    0  503 -0.24576635372E+02  0.13409864720E+02  0.21012725818E+02  0.35319401529E+02  0.47000000000E+01 0.  1.
         13    1    4    4    0    0 -0.50489360674E+02 -0.37686885898E+02 -0.88091447591E+02  0.10830318577E+03  0.00000000000E+00 0. -1.
        -14    1    4    4    0    0 -0.28071655328E+01  0.23548548224E+02 -0.11993009490E+03  0.12225236997E+03  0.00000000000E+00 0.  1.
</event>
<event>
12    1  0.8449700E-002  0.2283894E+03  0.7818608E-02  0.1127959E+00
         21   -1    0    0  503  502  0.00000000000E+00  0.00000000000E+00  0.12624230150E+04  0.12624230150E+04  0.00000000000E+00 0.  1.
         21   -1    0    0  501  503 -0.00000000000E+00 -0.00000000000E+00 -0.42525945757E+02  0.42525945757E+02  0.00000000000E+00 0. -1.
          6    2    1    2  501    0 -0.52236693112E+02  0.14037950395E+03  0.49064922356E+03  0.54077348605E+03  0.17106789706E+03 0.  0.
         24    2    3    3    0    0 -0.76369250846E+02  0.44943916192E+02  0.34330282608E+03  0.36350706903E+03  0.80176934117E+02 0.  0.
         -6    2    1    2    0  502  0.52236693112E+02 -0.14037950395E+03  0.72924784569E+03  0.76417547471E+03  0.17241420610E+03 0.  0.
        -24    2    5    5    0    0 -0.66286833505E+01 -0.16908269173E+02  0.37922819219E+03  0.38834821891E+03  0.81673057802E+02 0.  0.
          5    1    3    3  501    0  0.24132557734E+02  0.95435587760E+02  0.14734639748E+03  0.17726641702E+03  0.47000000000E+01 0. -1.
        -11    1    4    4    0    0 -0.79855686764E+02  0.53067432842E+02  0.22121846655E+03  0.24110307563E+03  0.00000000000E+00 0.  1.
         12    1    4    4    0    0  0.34864359185E+01 -0.81235166500E+01  0.12208435953E+03  0.12240399340E+03  0.00000000000E+00 0. -1.
         -5    1    5    5    0  502  0.58865376462E+02 -0.12347123478E+03  0.35001965351E+03  0.37582725580E+03  0.47000000000E+01 0.  1.
         11    1    6    6    0    0  0.10145445013E+02  0.20834978868E+02  0.37147791530E+02  0.43783385142E+02  0.00000000000E+00 0. -1.
        -12    1    6    6    0    0 -0.16774128363E+02 -0.37743248040E+02  0.34208040066E+03  0.34456483377E+03  0.00000000000E+00 0.  1.
</event>
<event>
12    1  0.8449700E-002  0.1842392E+03  0.7818608E-02  0.1163769E+00
         21   -1    0    0  503  502  0.00000000000E+00  0.00000000000E+00  0.16955705791E+03  0.16955705791E+03  0.00000000000E+00 0. -1.
         21   -1    0    0  501  503 -0.00000000000E+00 -0.00000000000E+00 -0.20517324948E+03  0.20517324948E+03  0.00000000000E+00 0. -1.
          6    2    1    2  501    0  0.40705067119E+02 -0.55189230752E+02  0.11470616237E+02  0.18459595876E+03  0.17100099202E+03 0.  0.
         24    2    3    3    0    0 -0.19577342806E+02  0.19702313139E+02 -0.10721620010E+02  0.85816924332E+02  0.80486880122E+02 0.  0.
         -6    2    1    2    0  502 -0.40705067119E+02  0.55189230752E+02 -0.47086807804E+02  0.19013434863E+03  0.17097119459E+03 0.  0.
        -24    2    5    5    0    0 -0.28673663252E+02  0.81109380112E+02 -0.84750973693E+02  0.14262342132E+03  0.75880183579E+02 0.  0.
          5    1    3    3  501    0  0.60282409925E+02 -0.74891543891E+02  0.22192236247E+02  0.98779034427E+02  0.47000000000E+01 0. -1.
        -13    1    4    4    0    0 -0.80577160625E+01 -0.20539026681E+02  0.23143776569E+02  0.31975190368E+02  0.00000000000E+00 0.  1.
         14    1    4    4    0    0 -0.11519626743E+02  0.40241339821E+02 -0.33865396579E+02  0.53841733965E+02  0.00000000000E+00 0. -1.
         -5    1    5    5    0  502 -0.12031403867E+02 -0.25920149361E+02  0.37664165889E+02  0.47510927312E+02  0.47000000000E+01 0.  1.
         11    1    6    6    0    0 -0.50914271514E+02  0.54431484830E+02 -0.76743910556E+02  0.10697979899E+03  0.00000000000E+00 0. -1.
        -12    1    6    6    0    0  0.22240608262E+02  0.26677895282E+02 -0.80070631378E+01  0.35643622328E+02  0.00000000000E+00 0.  1.
</event>
<event>
12    1  0.8449700E-002  0.1879278E+03  0.7818608E-02  0.1160349E+00
         21   -1    0    0  501  502  0.00000000000E+00  0.00000000000E+00  0.94669385554E+02  0.94669385554E+02  0.00000000000E+00 0. -1.
         21   -1    0    0  502  503 -0.00000000000E+00 -0.00000000000E+00 -0.43453576967E+03  0.43453576967E+03  0.00000000000E+00 0. -1.
         -6    2    1    2    0  503  0.62377595101E+02  0.47500936325E+02 -0.26949195269E+03  0.32853274441E+03  0.17076459898E+03 0.  0.
        -24    2    3    3    0    0 -0.81661310623E+01  0.30301372102E+01 -0.21331028753E+03  0.22787223192E+03  0.79678151877E+02 0.  0.
          6    2    1    2  501    0 -0.62377595101E+02 -0.47500936325E+02 -0.70374431426E+02  0.20067241081E+03  0.17079096153E+03 0.  0.
         24    2    5    5    0    0 -0.93920403649E+02 -0.76474924443E+02 -0.61003005460E+02  0.15657757684E+03  0.78266944513E+02 0.  0.
          5    1    5    5  501    0  0.31542808548E+02  0.28973988118E+02 -0.93714259663E+01  0.44094833974E+02  0.47000000000E+01 0. -1.
        -11    1    6    6    0    0 -0.62106267182E+02 -0.19583228331E+01 -0.35859531969E+02  0.71742103988E+02  0.00000000000E+00 0.  1.
         12    1    6    6    0    0 -0.31814136467E+02 -0.74516601610E+02 -0.25143473490E+02  0.84835472851E+02  0.00000000000E+00 0. -1.
         -5    1    3    3    0  503  0.70543726164E+02  0.44470799115E+02 -0.56181665165E+02  0.10066051249E+03  0.47000000000E+01 0.  1.
         13    1    4    4    0    0 -0.12016487579E+02  0.36402761272E+02 -0.16249982613E+03  0.16696032611E+03  0.00000000000E+00 0. -1.
        -14    1    4    4    0    0  0.38503565165E+01 -0.33372624061E+02 -0.50810461397E+02  0.60911905810E+02  0.00000000000E+00 0.  1.
</event>
<event>
12    1  0.8449700E-002  0.2410876E+03  0.7818608E-02  0.1119245E+00
         21   -1    0    0  503  502  0.00000000000E+00  0.00000000000E+00  0.62052364073E+02  0.62052364073E+02  0.00000000000E+00 0.  1.
         21   -1    0    0  501  503 -0.00000000000E+00 -0.00000000000E+00 -0.12080037371E+04  0.12080037371E+04  0.00000000000E+00 0. -1.
          6    2    1    2  501    0 -0.14928633761E+03 -0.75450922320E+02 -0.87714657195E+03  0.90967540045E+03  0.17362019822E+03 0.  0.
         24    2    3    3    0    0 -0.11326066834E+03 -0.83143230669E+02 -0.40631642948E+03  0.43738297672E+03  0.80436631352E+02 0.  0.
         -6    2    1    2    0  502  0.14928633761E+03  0.75450922320E+02 -0.26880480106E+03  0.36038070071E+03  0.17215974004E+03 0.  0.
        -24    2    5    5    0    0  0.90143030895E+02 -0.19564903357E+02 -0.92425632245E+02  0.15143659562E+03  0.76694155803E+02 0.  0.
          5    1    3    3  501    0 -0.36025669270E+02  0.76923083484E+01 -0.47083014247E+03  0.47229242373E+03  0.47000000000E+01 0. -1.
        -11    1    4    4    0    0 -0.22603699894E+02 -0.23609712834E+02 -0.25594431141E+02  0.41514102356E+02  0.00000000000E+00 0.  1.
         12    1    4    4    0    0 -0.90656968443E+02 -0.59533517835E+02 -0.38072199834E+03  0.39586887437E+03  0.00000000000E+00 0. -1.
         -5    1    5    5    0  502  0.59143306711E+02  0.95015825678E+02 -0.17637916882E+03  0.20894410509E+03  0.47000000000E+01 0.  1.
         13    1    6    6    0    0  0.48588166000E+02 -0.22828163900E+02 -0.95590961269E+02  0.10963378502E+03  0.00000000000E+00 0. -1.
        -14    1    6    6    0    0  0.41554864895E+02  0.32632605430E+01  0.31653290240E+01  0.41802810595E+02  0.00000000000E+00 0.  1.
</event>
<event>
12    1  0.8449700E-002  0.4045400E+03  0.7818608E-02  0.1042365E+00
         21   -1    0    0  503  502  0.00000000000E+00  0.00000000000E+00  0.35524289713E+03  0.35524289713E+03  0.00000000000E+00 0. -1.
         21   -1    0    0  501  503 -0.00000000000E+00 -0.00000000000E+00 -0.45874334515E+03  0.45874334515E+03  0.00000000000E+00 0.  1.
          6    2    1    2  501    0  0.22023243432E+03  0.29048588537E+03 -0.50752418721E+02  0.40602187008E+03  0.17144554896E+03 0.  0.
         24    2    3    3    0    0  0.20846508461E+03  0.16934093441E+03 -0.24261165931E+02  0.28136856634E+03  0.80284633526E+02 0.  0.
         -6    2    1    2    0  502 -0.22023243432E+03 -0.29048588537E+03 -0.52748029304E+02  0.40796437220E+03  0.17540866474E+03 0.  0.
        -24    2    5    5    0    0 -0.14492859849E+03 -0.27444487199E+03 -0.72425112513E+02  0.32835746669E+03  0.79050253572E+02 0.  0.
          5    1    3    3  501    0  0.11767349707E+02  0.12114495096E+03 -0.26491252790E+02  0.12465330375E+03  0.47000000000E+01 0. -1.
        -11    1    4    4    0    0  0.15567904749E+03  0.80578478444E+02 -0.30405046286E+02  0.17791381018E+03  0.00000000000E+00 0.  1.
         12    1    4    4    0    0  0.52786037125E+02  0.88762455966E+02  0.61438803546E+01  0.10345475615E+03  0.00000000000E+00 0. -1.
         -5    1    5    5    0  502 -0.75303835827E+02 -0.16041013378E+02  0.19677083210E+02  0.79606905505E+02  0.47000000000E+01 0.  1.
         11    1    6    6    0    0 -0.45650661096E+01 -0.42652905680E+02  0.11979527099E+02  0.44537840777E+02  0.00000000000E+00 0. -1.
        -12    1    6    6    0    0 -0.14036353238E+03 -0.23179196631E+03 -0.84404639613E+02  0.28381962592E+03  0.00000000000E+00 0.  1.
</event>
<event>
12    1  0.8449700E-002  0.1856421E+03  0.7818608E-02  0.1164325E+00
         21   -1    0    0  503  502  0.00000000000E+00  0.00000000000E+00  0.62552755985E+02  0.62552755985E+02  0.00000000000E+00 0.  1.
         21   -1    0    0  501  503 -0.00000000000E+00 -0.00000000000E+00 -0.53399779402E+03  0.53399779402E+03  0.00000000000E+00 0.  1.
          6    2    1    2  501    0 -0.24579757555E+02 -0.43515067093E+02 -0.26274079115E+03  0.31722916902E+03  0.17059864242E+03 0.  0.
         24    2    3    3    0    0 -0.43166762030E+02 -0.82578618787E+01 -0.26257703439E+03  0.27709608950E+03  0.76837375024E+02 0.  0.
         -6    2    1    2    0  502  0.24579757555E+02  0.43515067093E+02 -0.20870424689E+03  0.27932138099E+03  0.17878827049E+03 0.  0.
        -24    2    5    5    0    0  0.63288993654E+02  0.48638558380E+02 -0.65113945862E+02  0.13044250515E+03  0.80026340198E+02 0.  0.
          5    1    3    3  501    0  0.18587004474E+02 -0.35257205215E+02 -0.16375675664E+00  0.40133079513E+02  0.47000000000E+01 0. -1.
        -13    1    4    4    0    0 -0.64861782759E+02  0.45446691545E+00 -0.20228621331E+03  0.21243109353E+03  0.00000000000E+00 0.  1.
         14    1    4    4    0    0  0.21695020729E+02 -0.87123287941E+01 -0.60290821081E+02  0.64664995972E+02  0.00000000000E+00 0. -1.
         -5    1    5    5    0  502 -0.38709236099E+02 -0.51234912870E+01 -0.14359030103E+03  0.14887887584E+03  0.47000000000E+01 0.  1.
         11    1    6    6    0    0 -0.58426699147E+01 -0.14495638046E+02  0.12594990211E+01  0.15679497820E+02  0.00000000000E+00 0. -1.
        -12    1    6    6    0    0  0.69131663569E+02  0.63134196427E+02 -0.66373444883E+02  0.11476300733E+03  0.00000000000E+00 0.  1.
</event>
<event>
12    1  0.8449700E-002  0.2220725E+03  0.7818608E-02  0.1133131E+00
         21   -1    0    0  503  502  0.00000000000E+00  0.00000000000E+00  0.33467705823E+03  0.33467705823E+03  0.00000000000E+00 0.  1.
         21   -1    0    0  501  503 -0.00000000000E+00 -0.00000000000E+00 -0.17081323333E+03  0.17081323333E+03  0.00000000000E+00 0.  1.
          6    2    1    2  501    0 -0.11080134821E+03  0.88315655607E+02 -0.17790228126E+02  0.21858543725E+03  0.16548869257E+03 0.  0.
         24    2    3    3    0    0 -0.76717687043E+02  0.24609635943E+02 -0.69666098565E+02  0.12951608880E+03  0.73687273536E+02 0.  0.
         -6    2    1    2    0  502  0.11080134821E+03 -0.88315655607E+02  0.18165405303E+03  0.28690485432E+03  0.17099592586E+03 0.  0.
        -24    2    5    5    0    0  0.11228750759E+01 -0.43102957424E+02  0.13121878023E+03  0.15791120220E+03  0.76540536363E+02 0.  0.
          5    1    3    3  501    0 -0.34083661166E+02  0.63706019664E+02  0.51875870439E+02  0.89069348452E+02  0.47000000000E+01 0. -1.
        -11    1    4    4    0    0 -0.86056795728E+02  0.26156568230E+02 -0.76307441181E+02  0.11795237909E+03  0.00000000000E+00 0.  1.
         12    1    4    4    0    0  0.93391086843E+01 -0.15469322874E+01  0.66413426158E+01  0.11563709710E+02  0.00000000000E+00 0. -1.
         -5    1    5    5    0  502  0.10967847313E+03 -0.45212698183E+02  0.50435272794E+02  0.12899365212E+03  0.47000000000E+01 0.  1.
         13    1    6    6    0    0 -0.30812547280E+02 -0.20173698399E+02  0.24637653788E+02  0.44310327929E+02  0.00000000000E+00 0. -1.
        -14    1    6    6    0    0  0.31935422356E+02 -0.22929259025E+02  0.10658112645E+03  0.11360087427E+03  0.00000000000E+00 0.  1.
</event>
<event>
12    1  0.8449700E-002  0.2001134E+03  0.7818608E-02  0.1149768E+00
         21   -1    0    0  503  502  0.00000000000E+00  0.00000000000E+00  0.88112895165E+03  0.88112895165E+03  0.00000000000E+00 0. -1.
         21   -1    0    0  501  503 -0.00000000000E+00 -0.00000000000E+00 -0.68601362784E+02  0.68601362784E+02  0.00000000000E+00 0.  1.
          6    2    1    2  501    0 -0.96302206655E+02  0.33585802416E+02  0.12998752495E+03  0.23862550643E+03  0.17217216542E+03 0.  0.
         24    2    3    3    0    0 -0.13514298773E+03  0.24074585011E+02  0.94440927859E+02  0.18491591608E+03  0.80197221823E+02 0.  0.
         -6    2    1    2    0  502  0.96302206655E+02 -0.33585802416E+02  0.68254006392E+03  0.71110480801E+03  0.17148465817E+03 0.  0.
        -24    2    5    5    0    0  0.38942461992E+01  0.25877794529E+02  0.38172047865E+03  0.39080859604E+03  0.79599054754E+02 0.  0.
          5    1    3    3  501    0  0.38840781075E+02  0.95112174056E+01  0.35546597094E+02  0.53709590354E+02  0.47000000000E+01 0. -1.
        -11    1    4    4    0    0  0.32706530628E+01  0.54658122802E+01 -0.90673163254E+01  0.11080997278E+02  0.00000000000E+00 0.  1.
         12    1    4    4    0    0 -0.13841364079E+03  0.18608772730E+02  0.10350824418E+03  0.17383491880E+03  0.00000000000E+00 0. -1.
         -5    1    5    5    0  502  0.92407960455E+02 -0.59463596945E+02  0.30081958527E+03  0.32029621196E+03  0.47000000000E+01 0.  1.
         11    1    6    6    0    0  0.23435251605E+01 -0.28222538931E+02  0.99815974858E+02  0.10375563913E+03  0.00000000000E+00 0. -1.
        -12    1    6    6    0    0  0.15507210387E+01  0.54100333460E+02  0.28190450379E+03  0.28705295692E+03  0.00000000000E+00 0.  1.
</event>
<event>
12    1  0.8449700E-002  0.2548560E+03  0.7818608E-02  0.1110433E+00
         21   -1    0    0  503  502  0.00000000000E+00  0.00000000000E+00  0.22675866420E+03  0.22675866420E+03  0.00000000000E+00 0.  1.
         21   -1    0    0  501  503 -0.00000000000E+00 -0.00000000000E+00 -0.30406454782E+03  0.30406454782E+03  0.00000000000E+00 0.  1.
          6    2    1    2  501    0 -0.11152631477E+03 -0.15137872466E+03  0.27396291898E+02  0.25529802732E+03  0.17050773818E+03 0.  0.
         24    2    3    3    0    0 -0.78558793374E+02 -0.68299846474E+02 -0.46864147836E+02  0.13899815468E+03  0.79296189102E+02 0.  0.
         -6    2    1    2    0  502  0.11152631477E+03  0.15137872466E+03 -0.10470217552E+03  0.27552518470E+03  0.17204053208E+03 0.  0.
        -24    2    5    5    0    0  0.22384492573E+02  0.86529655835E+01 -0.60376782168E+02  0.10144549816E+03  0.77909524136E+02 0.  0.
          5    1    3    3  501    0 -0.32967521398E+02 -0.83078878186E+02  0.74260439735E+02  0.11629987265E+03  0.47000000000E+01 0. -1.
        -11    1    4    4    0    0 -0.58732606515E+02 -0.66406689529E+02 -0.62843460392E+00  0.88655301095E+02  0.00000000000E+00 0.  1.
         12    1    4    4    0    0 -0.19826186859E+02 -0.18931569459E+01 -0.46235713232E+02  0.50342853581E+02  0.00000000000E+00 0. -1.
         -5    1    5    5    0  502  0.89141822200E+02  0.14272575908E+03 -0.44325393354E+02  0.17407968654E+03  0.47000000000E+01 0.  1.
         13    1    6    6    0    0  0.44612455402E+02 -0.15557871961E+02 -0.44659033536E+02  0.65013443482E+02  0.00000000000E+00 0. -1.
        -14    1    6    6    0    0 -0.22227962829E+02  0.24210837544E+02 -0.15717748632E+02  0.36432054680E+02  0.00000000000E+00 0.  1.
</event>
<event>
12    1  0.8449700E-002  0.1776782E+03  0.7818608E-02  0.1170159E+00
         21   -1    0    0  503  502  0.00000000000E+00  0.00000000000E+00  0.17998989965E+02  0.17998989965E+02  0.00000000000E+00 0. -1.
         21   -1    0    0  501  503 -0.00000000000E+00 -0.00000000000E+00 -0.20561397570E+04  0.20561397570E+04  0.00000000000E+00 0. -1.
          6    2    1    2  501    0 -0.24425579081E+02  0.19288564370E+02 -0.14181035130E+04  0.14291459238E+04  0.17456185217E+03 0.  0.
         24    2    3    3    0    0 -0.44285080649E+02  0.71975593148E+02 -0.86078524856E+03  0.86897089695E+03  0.83770646569E+02 0.  0.
         -6    2    1    2    0  502  0.24425579081E+02 -0.19288564370E+02 -0.62003725402E+03  0.64499282317E+03  0.17493109485E+03 0.  0.
        -24    2    5    5    0    0 -0.40727805703E+02 -0.25888743293E+02 -0.17536742427E+03  0.19550214096E+03  0.71682441621E+02 0.  0.
          5    1    3    3  501    0  0.19859501568E+02 -0.52687028778E+02 -0.55731826446E+03  0.56017502685E+03  0.47000000000E+01 0. -1.
        -11    1    4    4    0    0 -0.99481833887E+00  0.73826186130E+02 -0.46566191766E+03  0.47147886165E+03  0.00000000000E+00 0.  1.
         12    1    4    4    0    0 -0.43290262310E+02 -0.18505929824E+01 -0.39512333090E+03  0.39749203530E+03  0.00000000000E+00 0. -1.
         -5    1    5    5    0  502  0.65153384785E+02  0.66001789230E+01 -0.44466982974E+03  0.44949068221E+03  0.47000000000E+01 0.  1.
         13    1    6    6    0    0 -0.37537399095E+02  0.17946987777E+02 -0.71615940651E+02  0.82825078669E+02  0.00000000000E+00 0. -1.
        -14    1    6    6    0    0 -0.31904066085E+01 -0.43835731070E+02 -0.10375148362E+03  0.11267706229E+03  0.00000000000E+00 0.  1.
</event>
<event>
12    1  0.8449700E-002  0.1878693E+03  0.7818608E-02  0.1160707E+00
         21   -1    0    0  503  502  0.00000000000E+00  0.00000000000E+00  0.13952312846E+03  0.13952312846E+03  0.00000000000E+00 0. -1.
         21   -1    0    0  501  503 -0.00000000000E+00 -0.00000000000E+00 -0.26681383288E+03  0.26681383288E+03  0.00000000000E+00 0. -1.
          6    2    1    2  501    0  0.28743896460E+02  0.72881543018E+02 -0.11307905616E+03  0.21927552558E+03  0.17075406959E+03 0.  0.
         24    2    3    3    0    0  0.39472263341E+02  0.10977806455E+03 -0.10815600816E+03  0.18025274302E+03  0.84758753148E+02 0.  0.
         -6    2    1    2    0  502 -0.28743896460E+02 -0.72881543018E+02 -0.14211648263E+02  0.18706143576E+03  0.16926924974E+03 0.  0.
        -24    2    5    5    0    0 -0.76671288642E+02 -0.79792121171E+02 -0.23690994453E+02  0.13749593349E+03  0.78093529847E+02 0.  0.
          5    1    3    3  501    0 -0.10728366881E+02 -0.36896521533E+02 -0.49230479990E+01  0.39022782561E+02  0.47000000000E+01 0. -1.
        -11    1    4    4    0    0  0.10135641423E+02  0.44918729728E+02  0.52602001638E+01  0.46347526505E+02  0.00000000000E+00 0.  1.
         12    1    4    4    0    0  0.29336621918E+02  0.64859334823E+02 -0.11341620832E+03  0.13390521651E+03  0.00000000000E+00 0. -1.
         -5    1    5    5    0  502  0.47927392182E+02  0.69105781533E+01  0.94793461903E+01  0.49565502277E+02  0.47000000000E+01 0.  1.
         11    1    6    6    0    0 -0.31255483078E+02 -0.81121738571E+02 -0.29246228379E+02  0.91722317708E+02  0.00000000000E+00 0. -1.
        -12    1    6    6    0    0 -0.45415805564E+02  0.13296174006E+01  0.55552339256E+01  0.45773615778E+02  0.00000000000E+00 0.  1.
</event>
<event>
12    1  0.8449700E-002  0.2490344E+03  0.7818608E-02  0.1114441E+00
         21   -1    0    0  503  502  0.00000000000E+00  0.00000000000E+00  0.14471135425E+04  0.14471135425E+04  0.00000000000E+00 0.  1.
         21   -1    0    0  501  503 -0.00000000000E+00 -0.00000000000E+00 -0.74710249098E+02  0.74710249098E+02  0.00000000000E+00 0.  1.
          6    2    1    2  501    0 -0.70797902551E+02  0.16331553451E+03  0.18241376696E+03  0.30605522108E+03  0.16944234760E+03 0.  0.
         24    2    3    3    0    0 -0.71716068056E+02  0.18721893094E+03  0.14066213398E+03  0.25770747817E+03  0.80207143379E+02 0.  0.
         -6    2    1    2    0  502  0.70797902551E+02 -0.16331553451E+03  0.11899895265E+04  0.12157685705E+04  0.17416611952E+03 0.  0.
        -24    2    5    5    0    0 -0.47936066114E+00 -0.87986828998E+02  0.89406402637E+03  0.90216236248E+03  0.82489594270E+02 0.  0.
          5    1    3    3  501    0  0.91816550530E+00 -0.23903396428E+02  0.41751632978E+02  0.48347742915E+02  0.47000000000E+01 0. -1.
        -11    1    4    4    0    0 -0.62119811394E+02  0.89321832372E+02  0.37288109346E+02  0.11501158118E+03  0.00000000000E+00 0.  1.
         12    1    4    4    0    0 -0.95962566623E+01  0.97897098565E+02  0.10337402463E+03  0.14269589699E+03  0.00000000000E+00 0. -1.
         -5    1    5    5    0  502  0.71277263212E+02 -0.75328705510E+02  0.29592550010E+03  0.31360620806E+03  0.47000000000E+01 0.  1.
         11    1    6    6    0    0 -0.23436100898E+02 -0.25300125667E+02  0.11042765807E+03  0.11568757432E+03  0.00000000000E+00 0. -1.
        -12    1    6    6    0    0  0.22956740237E+02 -0.62686703331E+02  0.78363636830E+03  0.78647478816E+03  0.00000000000E+00 0.  1.
</event>
<event>
12    1  0.8449700E-002  0.2101481E+03  0.7818608E-02  0.1142518E+00
         21   -1    0    0  503  502  0.00000000000E+00  0.00000000000E+00  0.12705002337E+03  0.12705002337E+03  0.00000000000E+00 0. -1.
         21   -1    0    0  501  503 -0.00000000000E+00 -0.00000000000E+00 -0.38758084686E+03  0.38758084686E+03  0.00000000000E+00 0. -1.
          6    2    1    2  501    0  0.89294472131E+02  0.65672345852E+02 -0.40481409926E+02  0.21401158099E+03  0.17853809814E+03 0.  0.
         24    2    3    3    0    0  0.44684694266E+02 -0.27474782690E+02 -0.55579754673E+02  0.10952966940E+03  0.78460523595E+02 0.  0.
         -6    2    1    2    0  502 -0.89294472131E+02 -0.65672345852E+02 -0.22004941357E+03  0.30061928923E+03  0.17223197405E+03 0.  0.
        -24    2    5    5    0    0 -0.12059010860E+03 -0.32565138215E+02 -0.20363067582E+03  0.25196572812E+03  0.80117498062E+02 0.  0.
          5    1    3    3  501    0  0.44609777864E+02  0.93147128543E+02  0.15098344748E+02  0.10448191160E+03  0.47000000000E+01 0. -1.
        -11    1    4    4    0    0  0.48128800703E+02  0.12445695265E+02 -0.13691262616E+02  0.51562849609E+02  0.00000000000E+00 0.  1.
         12    1    4    4    0    0 -0.34441064368E+01 -0.39920477956E+02 -0.41888492058E+02  0.57966819787E+02  0.00000000000E+00 0. -1.
         -5    1    5    5    0  502  0.31295636466E+02 -0.33107207637E+02 -0.16418737751E+02  0.48653561110E+02  0.47000000000E+01 0.  1.
         11    1    6    6    0    0 -0.57190819382E+02 -0.30684985825E+02 -0.39431869392E+02  0.75942284009E+02  0.00000000000E+00 0. -1.
        -12    1    6    6    0    0 -0.63399289215E+02 -0.18801523894E+01 -0.16419880642E+03  0.17602344411E+03  0.00000000000E+00 0.  1.
</event>
<event>
12    1  0.8449700E-002  0.3174157E+03  0.7818608E-02  0.1077180E+00
         21   -1    0    0  503  502  0.00000000000E+00  0.00000000000E+00  0.79366896520E+02  0.79366896520E+02  0.00000000000E+00 0. -1.
         21   -1    0    0  501  503 -0.00000000000E+00 -0.00000000000E+00 -0.12729767907E+04  0.12729767907E+04  0.00000000000E+00 0.  1.
          6    2    1    2  501    0 -0.97848208890E+02 -0.24720247023E+03 -0.52084495760E+03  0.60845833610E+03  0.16810337189E+03 0.  0.
         24    2    3    3    0    0 -0.77896640018E+02 -0.82395121489E+02 -0.31377587429E+03  0.34301677462E+03  0.79676632770E+02 0.  0.
         -6    2    1    2    0  502  0.97848208890E+02  0.24720247023E+03 -0.67276493662E+03  0.74388535116E+03  0.17340537031E+03 0.  0.
        -24    2    5    5    0    0 -0.21589101739E+01  0.63449978843E+02 -0.29155326155E+03  0.30901659720E+03  0.80357901421E+02 0.  0.
          5    1    3    3  501    0 -0.19951568871E+02 -0.16480734874E+03 -0.20706908330E+03  0.26544156148E+03  0.47000000000E+01 0. -1.
        -13    1    4    4    0    0 -0.72406094673E+02 -0.20667610734E+02 -0.14838270282E+03  0.16639476908E+03  0.00000000000E+00 0.  1.
         14    1    4    4    0    0 -0.54905453448E+01 -0.61727510754E+02 -0.16539317147E+03  0.17662200554E+03  0.00000000000E+00 0. -1.
         -5    1    5    5    0  502  0.10000711906E+03  0.18375249139E+03 -0.38121167508E+03  0.43486875396E+03  0.47000000000E+01 0.  1.
         13    1    6    6    0    0  0.12884088766E+02  0.35746101491E+02 -0.38806384319E+02  0.54311315386E+02  0.00000000000E+00 0. -1.
        -14    1    6    6    0    0 -0.15042998940E+02  0.27703877353E+02 -0.25274687723E+03  0.25470528182E+03  0.00000000000E+00 0.  1.
</event>
<event>
12    1  0.8449700E-002  0.2854038E+03  0.7818608E-02  0.1092783E+00
         21   -1    0    0  501  502  0.00000000000E+00  0.00000000000E+00  0.40267441277E+03  0.40267441277E+03  0.00000000000E+00 0.  1.
         21   -1    0    0  502  503 -0.00000000000E+00 -0.00000000000E+00 -0.22499585873E+03  0.22499585873E+03  0.00000000000E+00 0. -1.
         -6    2    1    2    0  503  0.22649436628E+03  0.20666901440E+02 -0.10991840696E+02  0.28554190402E+03  0.17229782244E+03 0.  0.
        -24    2    3    3    0    0  0.14636883542E+03 -0.35880275395E+02  0.40792216260E+02  0.17454027134E+03  0.78032501348E+02 0.  0.
          6    2    1    2  501    0 -0.22649436628E+03 -0.20666901440E+02  0.18867039473E+03  0.34212836747E+03  0.17241949775E+03 0.  0.
         24    2    5    5    0    0 -0.22109486567E+03  0.27760541439E+02  0.15636192807E+03  0.28347430667E+03  0.79088827921E+02 0.  0.
          5    1    5    5  501    0 -0.53995006114E+01 -0.48427442879E+02  0.32308466661E+02  0.58654060803E+02  0.47000000000E+01 0. -1.
        -13    1    6    6    0    0 -0.11754788846E+03 -0.20037020697E+02  0.10296661169E+03  0.15754717199E+03  0.00000000000E+00 0.  1.
         14    1    6    6    0    0 -0.10354697722E+03  0.47797562136E+02  0.53395316388E+02  0.12592713468E+03  0.00000000000E+00 0. -1.
         -5    1    3    3    0  503  0.80125530863E+02  0.56547176835E+02 -0.51784056956E+02  0.11100163269E+03  0.47000000000E+01 0.  1.
         13    1    4    4    0    0  0.12066906259E+03  0.37451340833E+01  0.17872275695E+02  0.12204288973E+03  0.00000000000E+00 0. -1.
        -14    1    4    4    0    0  0.25699772828E+02 -0.39625409478E+02  0.22919940566E+02  0.52497381604E+02  0.00000000000E+00 0.  1.
</event>
<event>
12    1  0.8449700E-002  0.1996412E+03  0.7818608E-02  0.1150070E+00
         21   -1    0    0  501  502  0.00000000000E+00  0.00000000000E+00  0.15347853717E+03  0.15347853717E+03  0.00000000000E+00 0. -1.
         21   -1    0    0  502  503 -0.00000000000E+00 -0.00000000000E+00 -0.29223296831E+03  0.29223296831E+03  0.00000000000E+00 0.  1.
         -6    2    1    2    0  503 -0.96385062883E+02  0.28994731246E+02 -0.14396041879E+03  0.24613248325E+03  0.17241178135E+03 0.  0.
        -24    2    3    3    0    0  0.19307893857E+02  0.11841652816E+02 -0.60268091415E+02  0.10223813312E+03  0.79418974527E+02 0.  0.
          6    2    1    2  501    0  0.96385062883E+02 -0.28994731246E+02  0.52059876525E+01  0.19957902223E+03  0.17226116515E+03 0.  0.
         24    2    5    5    0    0  0.81475245214E+01 -0.97478411376E+01  0.55938474632E+02  0.95886297361E+02  0.76835320750E+02 0.  0.
          5    1    5    5  501    0  0.88237538362E+02 -0.19246890109E+02 -0.50732486979E+02  0.10369272487E+03  0.47000000000E+01 0. -1.
        -13    1    6    6    0    0  0.35202991097E+02  0.95806349846E+01  0.76816764599E+01  0.37283338130E+02  0.00000000000E+00 0.  1.
         14    1    6    6    0    0 -0.27055466575E+02 -0.19328476122E+02  0.48256798172E+02  0.58602959231E+02  0.00000000000E+00 0. -1.
         -5    1    3    3    0  503 -0.11569295674E+03  0.17153078430E+02 -0.83692327373E+02  0.14389435013E+03  0.47000000000E+01 0.  1.
         13    1    4    4    0    0 -0.46688432499E+01 -0.13334911644E+02  0.14213946077E+02  0.20041313054E+02  0.00000000000E+00 0. -1.
        -14    1    4    4    0    0  0.23976737107E+02  0.25176564460E+02 -0.74482037492E+02  0.82196820068E+02  0.00000000000E+00 0.  1.
</event>
<event>
12    1  0.8449700E-002  0.2090791E+03  0.7818608E-02  0.1142432E+00
         21   -1    0    0  503  502  0.00000000000E+00  0.00000000000E+00  0.54436328318E+03  0.54436328318E+03  0.00000000000E+00 0. -1.
         21   -1    0    0  501  503 -0.00000000000E+00 -0.00000000000E+00 -0.81655478633E+02  0.81655478633E+02  0.00000000000E+00 0.  1.
          6    2    1    2  501    0 -0.10686194853E+03 -0.53052723645E+02  0.27569777943E+03  0.34601062360E+03  0.17169746223E+03 0.  0.
         24    2    3    3    0    0 -0.45960309288E+02 -0.90809179373E+02  0.21787191663E+03  0.25381257580E+03  0.81203414257E+02 0.  0.
         -6    2    1    2    0  502  0.10686194853E+03  0.53052723645E+02  0.18701002512E+03  0.28000813821E+03  0.17087346324E+03 0.  0.
        -24    2    5    5    0    0  0.75012236590E+02  0.47114838103E+02  0.20883595077E+03  0.24066193552E+03  0.80368334979E+02 0.  0.
          5    1    3    3  501    0 -0.60901639240E+02  0.37756455728E+02  0.57825862794E+02  0.92198047806E+02  0.47000000000E+01 0. -1.
        -11    1    4    4    0    0  0.33949429171E+01 -0.29159358160E+02  0.93060109726E+01  0.30796032958E+02  0.00000000000E+00 0.  1.
         12    1    4    4    0    0 -0.49355252205E+02 -0.61649821213E+02  0.20856590566E+03  0.22301654284E+03  0.00000000000E+00 0. -1.
         -5    1    5    5    0  502  0.31849711938E+02  0.59378855418E+01 -0.21825925653E+02  0.39346202687E+02  0.47000000000E+01 0.  1.
         11    1    6    6    0    0  0.33728357622E+02  0.65191457504E+02  0.11282304701E+03  0.13459780153E+03  0.00000000000E+00 0. -1.
        -12    1    6    6    0    0  0.41283878968E+02 -0.18076619400E+02  0.96012903760E+02  0.10606413399E+03  0.00000000000E+00 0.  1.
</event>
<event>
12    1  0.8449700E-002  0.1932236E+03  0.7818608E-02  0.1156276E+00
         21   -1    0    0  503  502  0.00000000000E+00  0.00000000000E+00  0.36052079457E+03  0.36052079457E+03  0.00000000000E+00 0. -1.
         21   -1    0    0  501  503 -0.00000000000E+00 -0.00000000000E+00 -0.20538948472E+03  0.20538948472E+03  0.00000000000E+00 0. -1.
          6    2    1    2  501    0  0.36748716282E+02 -0.74699315263E+02 -0.12359261422E+03  0.22676079967E+03  0.17092357979E+03 0.  0.
         24    2    3    3    0    0  0.41721335587E+02  0.16962467185E+02 -0.91908599982E+02  0.12953644026E+03  0.79398384548E+02 0.  0.
         -6    2    1    2    0  502 -0.36748716282E+02  0.74699315263E+02  0.27872392407E+03  0.33914947962E+03  0.17436997399E+03 0.  0.
        -24    2    5    5    0    0 -0.64688003954E+02 -0.11075387525E+02  0.15231699498E+03  0.18378312175E+03  0.79174281291E+02 0.  0.
          5    1    3    3  501    0 -0.49726193050E+01 -0.91661782448E+02 -0.31684014242E+02  0.97224359410E+02  0.47000000000E+01 0. -1.
        -13    1    4    4    0    0  0.16842934369E+02 -0.21056189184E+02  0.52148086198E-01  0.26963869539E+02  0.00000000000E+00 0.  1.
         14    1    4    4    0    0  0.24878401219E+02  0.38018656369E+02 -0.91960748068E+02  0.10257257072E+03  0.00000000000E+00 0. -1.
         -5    1    5    5    0  502  0.27939287672E+02  0.85774702788E+02  0.12640692909E+03  0.15536635787E+03  0.47000000000E+01 0.  1.
         11    1    6    6    0    0 -0.14451967667E+01  0.12492252582E+02  0.93251961246E+02  0.94096085171E+02  0.00000000000E+00 0. -1.
        -12    1    6    6    0    0 -0.63242807187E+02 -0.23567640107E+02  0.59065033731E+02  0.89687036582E+02  0.00000000000E+00 0.  1.
</event>
<event>
12    1  0.8449700E-002  0.1897079E+03  0.7818608E-02  0.1159227E+00
         21   -1    0    0  503  502  0.00000000000E+00  0.00000000000E+00  0.16459634649E+03  0.16459634649E+03  0.00000000000E+00 0.  1.
         21   -1    0    0  501  503 -0.00000000000E+00 -0.00000000000E+00 -0.40503190530E+03  0.40503190530E+03  0.00000000000E+00 0.  1.
          6    2    1    2  501    0  0.71135969847E+02  0.23581515107E+02 -0.31510540254E+03  0.36780495690E+03  0.17427753023E+03 0.  0.
         24    2    3    3    0    0 -0.61883766367E+01 -0.31035377539E+02 -0.20803096450E+03  0.22480466038E+03  0.79112340836E+02 0.  0.
         -6    2    1    2    0  502 -0.71135969847E+02 -0.23581515107E+02  0.74669843739E+02  0.20182329489E+03  0.17187391523E+03 0.  0.
        -24    2    5    5    0    0 -0.37847793710E+02 -0.65893069907E+02  0.40502661640E+01  0.11289869156E+03  0.83398787462E+02 0.  0.
          5    1    3    3  501    0  0.77324346484E+02  0.54616892646E+02 -0.10707443804E+03  0.14300029651E+03  0.47000000000E+01 0. -1.
        -13    1    4    4    0    0  0.27705846247E+00  0.20247276109E+02 -0.15625020666E+02  0.25576751593E+02  0.00000000000E+00 0.  1.
         14    1    4    4    0    0 -0.64654350992E+01 -0.51282653649E+02 -0.19240594384E+03  0.19922790879E+03  0.00000000000E+00 0. -1.
         -5    1    5    5    0  502 -0.33288176138E+02  0.42311554800E+02  0.70619577575E+02  0.88924603328E+02  0.47000000000E+01 0.  1.
         13    1    6    6    0    0 -0.23634699713E+02 -0.52166664458E+02  0.41384134878E+02  0.70658379056E+02  0.00000000000E+00 0. -1.
        -14    1    6    6    0    0 -0.14213093996E+02 -0.13726405449E+02 -0.37333868714E+02  0.42240312506E+02  0.00000000000E+00 0.  1.
</event>
<event>
12    1  0.8449700E-002  0.1979687E+03  0.7818608E-02  0.1151507E+00
         21   -1    0    0  501  502  0.00000000000E+00  0.00000000000E+00  0.28807289108E+03  0.28807289108E+03  0.00000000000E+00 0. -1.
         21   -1    0    0  502  503 -0.00000000000E+00 -0.00000000000E+00 -0.13597158212E+03  0.13597158212E+03  0.00000000000E+00 0. -1.
         -6    2    1    2    0  503  0.98046068758E+02  0.30653307669E+01  0.80563340798E+02  0.21354676620E+03  0.17172460984E+03 0.  0.
        -24    2    3    3    0    0  0.83713605540E+02 -0.21564228636E+02  0.11798682607E+03  0.16627476659E+03  0.79078588564E+02 0.  0.
          6    2    1    2  501    0 -0.98046068758E+02 -0.30653307669E+01  0.71537968158E+02  0.21049770699E+03  0.17195690131E+03 0.  0.
         24    2    5    5    0    0 -0.13027057855E+03  0.22308380270E+02  0.51730686645E+02  0.16470837806E+03  0.83574508039E+02 0.  0.
          5    1    5    5  501    0  0.32224509797E+02 -0.25373711037E+02  0.19807281513E+02  0.45789328936E+02  0.47000000000E+01 0. -1.
        -11    1    6    6    0    0 -0.73933446515E+02 -0.29705819155E+02  0.25081245011E+02  0.83532383281E+02  0.00000000000E+00 0.  1.
         12    1    6    6    0    0 -0.56337132040E+02  0.52014199426E+02  0.26649441634E+02  0.81175994776E+02  0.00000000000E+00 0. -1.
         -5    1    3    3    0  503  0.14332463218E+02  0.24629559403E+02 -0.37423485268E+02  0.47271999618E+02  0.47000000000E+01 0.  1.
         13    1    4    4    0    0  0.93290073760E+01 -0.31721994085E+02  0.69329844553E+02  0.76811084051E+02  0.00000000000E+00 0. -1.
        -14    1    4    4    0    0  0.74384598164E+02  0.10157765449E+02  0.48656981514E+02  0.89463682536E+02  0.00000000000E+00 0.  1.
</event>
<event>
12    1  0.8449700E-002  0.2611653E+03  0.7818608E-02  0.1106655E+00
         21   -1    0    0  503  502  0.00000000000E+00  0.00000000000E+00  0.68722960181E+03  0.68722960181E+03  0.00000000000E+00 0.  1.
         21   -1    0    0  501  503 -0.00000000000E+00 -0.00000000000E+00 -0.98767745889E+02  0.98767745889E+02  0.00000000000E+00 0. -1.
          6    2    1    2  501    0  0.19416718276E+03 -0.20360634243E+02  0.30396608798E+03  0.40075268873E+03  0.17347012595E+03 0.  0.
         24    2    3    3    0    0  0.99567778806E+02  0.31025506697E+02  0.86948484354E+02  0.15845470485E+03  0.81679433861E+02 0.  0.
         -6    2    1    2    0  502 -0.19416718276E+03  0.20360634243E+02  0.28449576794E+03  0.38524465897E+03  0.17134805221E+03 0.  0.
        -24    2    5    5    0    0 -0.21050913150E+03  0.11059522580E+02  0.28702435915E+03  0.36569846393E+03  0.83162349008E+02 0.  0.
          5    1    3    3  501    0  0.94599403955E+02 -0.51386140940E+02  0.21701760362E+03  0.24229798388E+03  0.47000000000E+01 0. -1.
        -11    1    4    4    0    0  0.11149168044E+03  0.18413364169E+02  0.64619477289E+02  0.13017343674E+03  0.00000000000E+00 0.  1.
         12    1    4    4    0    0 -0.11923901637E+02  0.12612142527E+02  0.22329007065E+02  0.28281268109E+02  0.00000000000E+00 0. -1.
         -5    1    5    5    0  502  0.16341948743E+02  0.93011116628E+01 -0.25285912032E+01  0.19546195035E+02  0.47000000000E+01 0.  1.
         11    1    6    6    0    0 -0.13458536280E+03  0.45500631719E+02  0.16255815188E+03  0.21589043542E+03  0.00000000000E+00 0. -1.
        -12    1    6    6    0    0 -0.75923768709E+02 -0.34441109139E+02  0.12446620727E+03  0.14980802851E+03  0.00000000000E+00 0.  1.
</event>
<event>
12    1  0.8449700E-002  0.1821084E+03  0.7818608E-02  0.1166011E+00
         21   -1    0    0  501  502  0.00000000000E+00  0.00000000000E+00  0.13281993992E+03  0.13281993992E+03  0.00000000000E+00 0. -1.
         21   -1    0    0  502  503 -0.00000000000E+00 -0.00000000000E+00 -0.26382035014E+03  0.26382035014E+03  0.00000000000E+00 0. -1.
         -6    2    1    2    0  503  0.43415173143E+02 -0.37057273344E+02 -0.17645937891E+02  0.18296136421E+03  0.17293167120E+03 0.  0.
        -24    2    3    3    0    0 -0.37083986199E+02 -0.41592342214E+01  0.13381969378E+02  0.90510205961E+02  0.81366448963E+02 0.  0.
          6    2    1    2  501    0 -0.43415173143E+02  0.37057273344E+02 -0.11335447232E+03  0.21367892584E+03  0.17190499756E+03 0.  0.
         24    2    5    5    0    0 -0.41767670023E+02 -0.43930264123E+02 -0.62553101930E+02  0.11794719273E+03  0.79525111421E+02 0.  0.
          5    1    5    5  501    0 -0.16475031202E+01  0.80987537466E+02 -0.50801370393E+02  0.95731733115E+02  0.47000000000E+01 0. -1.
        -11    1    6    6    0    0 -0.50598494242E+02 -0.70589917733E+01 -0.82989756091E+01  0.51758187570E+02  0.00000000000E+00 0.  1.
         12    1    6    6    0    0  0.88308242186E+01 -0.36871272349E+02 -0.54254126321E+02  0.66189005159E+02  0.00000000000E+00 0. -1.
         -5    1    3    3    0  503  0.80499159343E+02 -0.32898039122E+02 -0.31027907269E+02  0.92451158254E+02  0.47000000000E+01 0.  1.
         13    1    4    4    0    0  0.19532685817E+02  0.58145173530E+01  0.24591964165E+02  0.31938990729E+02  0.00000000000E+00 0. -1.
        -14    1    4    4    0    0 -0.56616672016E+02 -0.99737515744E+01 -0.11209994787E+02  0.58571215232E+02  0.00000000000E+00 0.  1.
</event>
<event>
12    1  0.8449700E-002  0.1964832E+03  0.7818608E-02  0.1153025E+00
         21   -1    0    0  503  502  0.00000000000E+00  0.00000000000E+00  0.13285611303E+03  0.13285611303E+03  0.00000000000E+00 0. -1.
         21   -1    0    0  501  503 -0.00000000000E+00 -0.00000000000E+00 -0.40964361739E+03  0.40964361739E+03  0.00000000000E+00 0. -1.
          6    2    1    2  501    0 -0.90863320135E+02 -0.21623303914E+02 -0.28548734410E+03  0.34582404024E+03  0.17136957999E+03 0.  0.
         24    2    3    3    0    0 -0.23520031356E+02 -0.60433954870E+01 -0.42648672119E+02  0.93295699849E+02  0.79343959271E+02 0.  0.
         -6    2    1    2    0  502  0.90863320135E+02  0.21623303914E+02  0.86998397506E+01  0.19667569018E+03  0.17286390507E+03 0.  0.
        -24    2    5    5    0    0  0.17220915021E+02  0.67416607701E+02 -0.14782888713E+02  0.10671036886E+03  0.79542505091E+02 0.  0.
          5    1    3    3  501    0 -0.67343288779E+02 -0.15579908427E+02 -0.24283867199E+03  0.25252834039E+03  0.47000000000E+01 0. -1.
        -11    1    4    4    0    0 -0.50162902881E+02 -0.38629621179E+01 -0.10341959520E+02  0.51363366600E+02  0.00000000000E+00 0.  1.
         12    1    4    4    0    0  0.26642871525E+02 -0.21804333691E+01 -0.32306712600E+02  0.41932333250E+02  0.00000000000E+00 0. -1.
         -5    1    5    5    0  502  0.73642405114E+02 -0.45793303787E+02  0.23482728464E+02  0.89965321313E+02  0.47000000000E+01 0.  1.
         11    1    6    6    0    0  0.43121485793E+02  0.54219568036E+02  0.80550850119E+01  0.69743160880E+02  0.00000000000E+00 0. -1.
        -12    1    6    6    0    0 -0.25900570772E+02  0.13197039666E+02 -0.22837973725E+02  0.36967207984E+02  0.00000000000E+00 0.  1.
</event>
<event>
12    1  0.8449700E-002  0.2129929E+03  0.7818608E-02  0.1139420E+00
         21   -1    0    0  503  502  0.00000000000E+00  0.00000000000E+00  0.98328230423E+02  0.98328230423E+02  0.00000000000E+00 0.  1.
         21   -1    0    0  501  503 -0.00000000000E+00 -0.00000000000E+00 -0.16851982370E+04  0.16851982370E+04  0.00000000000E+00 0.  1.
          6    2    1    2  501    0 -0.11785438997E+03 -0.41248509725E+02 -0.15546065332E+04  0.15691295161E+04  0.17255395734E+03 0.  0.
         24    2    3    3    0    0 -0.80391664488E+02  0.37840535861E+02 -0.10740556418E+04  0.10806525134E+04  0.79495955955E+02 0.  0.
         -6    2    1    2    0  502  0.11785438997E+03  0.41248509725E+02 -0.32263473388E+02  0.21439695141E+03  0.17127178480E+03 0.  0.
        -24    2    5    5    0    0  0.96178135719E+02  0.87742766273E+02 -0.48697200789E+02  0.16032539432E+03  0.79898609968E+02 0.  0.
          5    1    3    3  501    0 -0.37462725486E+02 -0.79089045586E+02 -0.48055089141E+03  0.48847700270E+03  0.47000000000E+01 0. -1.
        -13    1    4    4    0    0 -0.94557659220E+01  0.46734872603E+02 -0.44526277019E+03  0.44780854653E+03  0.00000000000E+00 0.  1.
         14    1    4    4    0    0 -0.70935898566E+02 -0.88943367421E+01 -0.62879287164E+03  0.63284396683E+03  0.00000000000E+00 0. -1.
         -5    1    5    5    0  502  0.21676254254E+02 -0.46494256548E+02  0.16433727401E+02  0.54071557095E+02  0.47000000000E+01 0.  1.
         11    1    6    6    0    0  0.63635955215E+02  0.64553208101E+02 -0.70473193838E+02  0.11481777964E+03  0.00000000000E+00 0. -1.
        -12    1    6    6    0    0  0.32542180504E+02  0.23189558171E+02  0.21775993049E+02  0.45507614675E+02  0.00000000000E+00 0.  1.
</event>
<event>
12    1  0.8449700E-002  0.1961335E+03  0.7818608E-02  0.1157515E+00
         21   -1    0    0  503  502  0.00000000000E+00  0.00000000000E+00  0.33898513218E+03  0.33898513218E+03  0.00000000000E+00 0.  1.
         21   -1    0    0  501  503 -0.00000000000E+00 -0.00000000000E+00 -0.10999022725E+03  0.10999022725E+03  0.00000000000E+00 0.  1.
          6    2    1    2  501    0  0.29354744615E+02 -0.21076102057E+02  0.17877708427E+03  0.26538576263E+03  0.19277565727E+03 0.  0.
         24    2    3    3    0    0  0.27410220322E+02  0.12385673917E+02  0.17067733970E+01  0.85109705931E+02  0.79599144919E+02 0.  0.
         -6    2    1    2    0  502 -0.29354744615E+02  0.21076102057E+02  0.50217820661E+02  0.18358959680E+03  0.17285082422E+03 0.  0.
        -24    2    5    5    0    0 -0.12626693857E+02 -0.32872617210E+02  0.78204524030E+02  0.12037854114E+03  0.84468948305E+02 0.  0.
          5    1    3    3  501    0  0.19445242923E+01 -0.33461775974E+02  0.17707031088E+03  0.18027605670E+03  0.47000000000E+01 0. -1.
        -13    1    4    4    0    0  0.18971251510E+02  0.44684334968E+01  0.40328732410E+02  0.44791538705E+02  0.00000000000E+00 0.  1.
         14    1    4    4    0    0  0.84389688124E+01  0.79172404201E+01 -0.38621959013E+02  0.40318167226E+02  0.00000000000E+00 0. -1.
         -5    1    5    5    0  502 -0.16728050758E+02  0.53948719267E+02 -0.27986703369E+02  0.63211055664E+02  0.47000000000E+01 0.  1.
         13    1    6    6    0    0  0.25821615106E+02 -0.17901026960E+02  0.72126378363E+02  0.78672848103E+02  0.00000000000E+00 0. -1.
        -14    1    6    6    0    0 -0.38448308963E+02 -0.14971590249E+02  0.60781456671E+01  0.41705693034E+02  0.00000000000E+00 0.  1.
</event>
<event>
12    1  0.8449700E-002  0.2259297E+03  0.7818608E-02  0.1130126E+00
         21   -1    0    0  501  502  0.00000000000E+00  0.00000000000E+00  0.15221337152E+04  0.15221337152E+04  0.00000000000E+00 0. -1.
         21   -1    0    0  502  503 -0.00000000000E+00 -0.00000000000E+00 -0.33088990713E+02  0.33088990713E+02  0.00000000000E+00 0. -1.
         -6    2    1    2    0  503  0.94212847855E+02  0.10667357130E+03  0.71450112582E+03  0.74840053932E+03  0.17127812741E+03 0.  0.
        -24    2    3    3    0    0  0.29477772867E+01  0.10097166489E+03  0.46807793352E+03  0.48551595524E+03  0.80155002561E+02 0.  0.
          6    2    1    2  501    0 -0.94212847855E+02 -0.10667357130E+03  0.77454359864E+03  0.80682216658E+03  0.17546769152E+03 0.  0.
         24    2    5    5    0    0 -0.63640720277E+02 -0.52868778861E+02  0.22414668242E+03  0.25293728137E+03  0.83007734646E+02 0.  0.
          5    1    5    5  501    0 -0.30572127578E+02 -0.53804792443E+02  0.55039691622E+03  0.55388488521E+03  0.47000000000E+01 0. -1.
        -13    1    6    6    0    0 -0.33225024752E+01  0.83822082281E+01 -0.34443606122E+01  0.96521529983E+01  0.00000000000E+00 0.  1.
         14    1    6    6    0    0 -0.60318217802E+02 -0.61250987089E+02  0.22759104303E+03  0.24328512837E+03  0.00000000000E+00 0. -1.
         -5    1    3    3    0  503  0.91265070568E+02  0.57019064129E+01  0.24642319230E+03  0.26288458408E+03  0.47000000000E+01 0.  1.
         11    1    4    4    0    0 -0.14159707785E+02  0.60949174393E+02  0.12601524456E+03  0.14069520619E+03  0.00000000000E+00 0. -1.
        -12    1    4    4    0    0  0.17107485071E+02  0.40022490499E+02  0.34206268896E+03  0.34482074904E+03  0.00000000000E+00 0.  1.
</event>
<event>
12    1  0.8449700E-002  0.1880981E+03  0.7818608E-02  0.1160433E+00
         21   -1    0    0  501  502  0.00000000000E+00  0.00000000000E+00  0.93943213460E+03  0.93943213460E+03  0.00000000000E+00 0. -1.
         21   -1    0    0  502  503 -0.00000000000E+00 -0.00000000000E+00 -0.39172171364E+02  0.39172171364E+02  0.00000000000E+00 0. -1.
         -6    2    1    2    0  503  0.55275094953E+02 -0.48965321737E+02  0.34625241460E+03  0.39353570880E+03  0.17183329312E+03 0.  0.
        -24    2    3    3    0    0  0.47753195440E+02 -0.52699217419E+02  0.99573397370E+02  0.14666904743E+03  0.80866388692E+02 0.  0.
          6    2    1    2  501    0 -0.55275094953E+02  0.48965321737E+02  0.55400754863E+03  0.58506859717E+03  0.17299699591E+03 0.  0.
         24    2    5    5    0    0 -0.44336023704E+02  0.29986960117E+02  0.55488362863E+03  0.56264764702E+03  0.76234064574E+02 0.  0.
          5    1    5    5  501    0 -0.10939071249E+02  0.18978361620E+02 -0.87607999230E+00  0.22420950152E+02  0.47000000000E+01 0. -1.
        -13    1    6    6    0    0 -0.97225715958E+01  0.23690385449E+02  0.46804246936E+02  0.53351666257E+02  0.00000000000E+00 0.  1.
         14    1    6    6    0    0 -0.34613452109E+02  0.62965746681E+01  0.50807938169E+03  0.50929598076E+03  0.00000000000E+00 0. -1.
         -5    1    3    3    0  503  0.75218995127E+01  0.37338956812E+01  0.24667901723E+03  0.24686666136E+03  0.47000000000E+01 0.  1.
         11    1    4    4    0    0  0.23813962855E+02 -0.71839077592E+02  0.59806827285E+02  0.96461466327E+02  0.00000000000E+00 0. -1.
        -12    1    4    4    0    0  0.23939232585E+02  0.19139860173E+02  0.39766570085E+02  0.50207581107E+02  0.00000000000E+00 0.  1.
</event>
<event>
12    1  0.8449700E-002  0.1803188E+03  0.7818608E-02  0.1168662E+00
         21   -1    0    0  501  502  0.00000000000E+00  0.00000000000E+00  0.30835422422E+03  0.30835422422E+03  0.00000000000E+00 0. -1.
         21   -1    0    0  502  503 -0.00000000000E+00 -0.00000000000E+00 -0.14711874897E+03  0.14711874897E+03  0.00000000000E+00 0. -1.
         -6    2    1    2    0  503  0.31509117405E+02  0.23587107204E+02 -0.45293995864E+02  0.18130277960E+03  0.17108470336E+03 0.  0.
        -24    2    3    3    0    0  0.14197562938E+02  0.78138045420E+02 -0.64485747530E+01  0.11197348190E+03  0.78672432256E+02 0.  0.
          6    2    1    2  501    0 -0.31509117405E+02 -0.23587107204E+02  0.20652947111E+03  0.27417019359E+03  0.17597072628E+03 0.  0.
         24    2    5    5    0    0 -0.87859273482E+02 -0.57778466017E+00  0.14829519770E+03  0.18980142203E+03  0.79457714363E+02 0.  0.
          5    1    5    5  501    0  0.56350156078E+02 -0.23009322544E+02  0.58234273411E+02  0.84368771555E+02  0.47000000000E+01 0. -1.
        -11    1    6    6    0    0 -0.19771886761E+02  0.32376567011E+02  0.77079556449E+02  0.85909415199E+02  0.00000000000E+00 0.  1.
         12    1    6    6    0    0 -0.68087386721E+02 -0.32954351671E+02  0.71215641254E+02  0.10389200683E+03  0.00000000000E+00 0. -1.
         -5    1    3    3    0  503  0.17311554467E+02 -0.54550938216E+02 -0.38845421111E+02  0.69329297700E+02  0.47000000000E+01 0.  1.
         13    1    4    4    0    0 -0.33993035940E+01  0.44092365711E+02 -0.41050741803E+02  0.60339501004E+02  0.00000000000E+00 0. -1.
        -14    1    4    4    0    0  0.17596866532E+02  0.34045679710E+02  0.34602167050E+02  0.51633980896E+02  0.00000000000E+00 0.  1.
</event>
<event>
12    1  0.8449700E-002  0.2066448E+03  0.7818608E-02  0.1144275E+00
         21   -1    0    0  503  502  0.00000000000E+00  0.00000000000E+00  0.68080513639E+02  0.68080513639E+02  0.00000000000E+00 0. -1.
         21   -1    0    0  501  503 -0.00000000000E+00 -0.00000000000E+00 -0.64699720090E+03  0.64699720090E+03  0.00000000000E+00 0.  1.
          6    2    1    2  501    0 -0.54179607024E+02  0.10195922518E+03 -0.35261616345E+03  0.40870557280E+03  0.17137961694E+03 0.  0.
         24    2    3    3    0    0 -0.15519590447E+01 -0.56655141543E+01 -0.19616243101E+03  0.21159490784E+03  0.79108779905E+02 0.  0.
         -6    2    1    2    0  502  0.54179607024E+02 -0.10195922518E+03 -0.22630052381E+03  0.30637214174E+03  0.17123331667E+03 0.  0.
        -24    2    5    5    0    0  0.70385061402E+02 -0.56008735855E+02 -0.22743589162E+03  0.25740844824E+03  0.80255772792E+02 0.  0.
          5    1    3    3  501    0 -0.52627647979E+02  0.10762473933E+03 -0.15645373244E+03  0.19711066496E+03  0.47000000000E+01 0. -1.
        -11    1    4    4    0    0 -0.11989001158E+02  0.35138625819E+02 -0.87142391037E+02  0.94721990525E+02  0.00000000000E+00 0.  1.
         12    1    4    4    0    0  0.10437042114E+02 -0.40804139973E+02 -0.10902003997E+03  0.11687291732E+03  0.00000000000E+00 0. -1.
         -5    1    5    5    0  502 -0.16205454378E+02 -0.45950489321E+02  0.11353678111E+01  0.48963693494E+02  0.47000000000E+01 0.  1.
         13    1    6    6    0    0  0.31934917014E+02 -0.44689446087E+02 -0.46140370719E+02  0.71735063437E+02  0.00000000000E+00 0. -1.
        -14    1    6    6    0    0  0.38450144388E+02 -0.11319289768E+02 -0.18129552091E+03  0.18567338481E+03  0.00000000000E+00 0.  1.
</event>
<event>
12    1  0.8449700E-002  0.1859842E+03  0.7818608E-02  0.1162161E+00
         21   -1    0    0  501  502  0.00000000000E+00  0.00000000000E+00  0.37808125826E+03  0.37808125826E+03  0.00000000000E+00 0. -1.
         21   -1    0    0  502  503 -0.00000000000E+00 -0.00000000000E+00 -0.10411071450E+03  0.10411071450E+03  0.00000000000E+00 0. -1.
         -6    2    1    2    0  503  0.68916453915E+02  0.18313537644E+02  0.52887405193E+02  0.19335766169E+03  0.17177090680E+03 0.  0.
        -24    2    3    3    0    0 -0.80721634909E+01  0.55553237356E+02  0.11786472720E+02  0.98355455953E+02  0.79897138699E+02 0.  0.
          6    2    1    2  501    0 -0.68916453915E+02 -0.18313537644E+02  0.22108313856E+03  0.28883431107E+03  0.17164685204E+03 0.  0.
         24    2    5    5    0    0 -0.74972066426E+02  0.49942834541E+02  0.13779885836E+03  0.18088078350E+03  0.74928199013E+02 0.  0.
          5    1    5    5  501    0  0.60556125115E+01 -0.68256372185E+02  0.83284280202E+02  0.10795352757E+03  0.47000000000E+01 0. -1.
        -11    1    6    6    0    0 -0.18790892738E+02  0.27915539286E+02  0.37298077813E+01  0.33856852329E+02  0.00000000000E+00 0.  1.
         12    1    6    6    0    0 -0.56181173688E+02  0.22027295254E+02  0.13406905058E+03  0.14702393117E+03  0.00000000000E+00 0. -1.
         -5    1    3    3    0  503  0.76988617406E+02 -0.37239699712E+02  0.41100932472E+02  0.95002205736E+02  0.47000000000E+01 0.  1.
         11    1    4    4    0    0 -0.15041294386E+01  0.73439725368E+02  0.22075584874E+02  0.76700633081E+02  0.00000000000E+00 0. -1.
        -12    1    4    4    0    0 -0.65680340524E+01 -0.17886488011E+02 -0.10289112154E+02  0.21654822872E+02  0.00000000000E+00 0.  1.
</event>
<event>
12    1  0.8449700E-002  0.2237955E+03  0.7818608E-02  0.1131094E+00
         21   -1    0    0  503  502  0.00000000000E+00  0.00000000000E+00  0.65008875959E+02  0.65008875959E+02  0.00000000000E+00 0.  1.
         21   -1    0    0  501  503 -0.00000000000E+00 -0.00000000000E+00 -0.97100057906E+03  0.97100057906E+03  0.00000000000E+00 0.  1.
          6    2    1    2  501    0 -0.13343337898E+02  0.14111977754E+03 -0.68857938782E+03  0.72403452785E+03  0.17318079541E+03 0.  0.
         24    2    3    3    0    0 -0.24239530514E+02  0.85222895163E+02 -0.63153621310E+03  0.64329295085E+03  0.84482752446E+02 0.  0.
         -6    2    1    2    0  502  0.13343337898E+02 -0.14111977754E+03 -0.21741231527E+03  0.31197492717E+03  0.17311095884E+03 0.  0.
        -24    2    5    5    0    0  0.58043360087E+02 -0.14554791876E+03 -0.19055356208E+03  0.25942796682E+03  0.80243265418E+02 0.  0.
          5    1    3    3  501    0  0.10896192616E+02  0.55896882378E+02 -0.57043174726E+02  0.80741576996E+02  0.47000000000E+01 0. -1.
        -11    1    4    4    0    0  0.90252134618E+00  0.28156522239E+02 -0.42647843425E+02  0.51112061573E+02  0.00000000000E+00 0.  1.
         12    1    4    4    0    0 -0.25142051861E+02  0.57066372923E+02 -0.58888836967E+03  0.59218088928E+03  0.00000000000E+00 0. -1.
         -5    1    5    5    0  502 -0.44700022188E+02  0.44281412154E+01 -0.26858753194E+02  0.52546960344E+02  0.47000000000E+01 0.  1.
         13    1    6    6    0    0 -0.93939582828E+01  0.53146716447E+01 -0.12086811878E+02  0.16204419406E+02  0.00000000000E+00 0. -1.
        -14    1    6    6    0    0  0.67437318369E+02 -0.15086259040E+03 -0.17846675020E+03  0.24322354742E+03  0.00000000000E+00 0.  1.
</event>
<event>
12    1  0.8449700E-002  0.1858397E+03  0.7818608E-02  0.1162348E+00
         21   -1    0    0  503  502  0.00000000000E+00  0.00000000000E+00  0.91895351256E+02  0.91895351256E+02  0.00000000000E+00 0. -1.
         21   -1    0    0  501  503 -0.00000000000E+00 -0.00000000000E+00 -0.49608781262E+03  0.49608781262E+03  0.00000000000E+00 0.  1.
          6    2    1    2  501    0 -0.51764150407E+02 -0.46774827128E+02 -0.34712385307E+03  0.39357842314E+03  0.17187668274E+03 0.  0.
         24    2    3    3    0    0 -0.95500503878E+02 -0.15619092561E+02 -0.28408841448E+03  0.31063805342E+03  0.80159033777E+02 0.  0.
         -6    2    1    2    0  502  0.51764150407E+02  0.46774827128E+02 -0.57068608293E+02  0.19440474073E+03  0.17224681549E+03 0.  0.
        -24    2    5    5    0    0 -0.31188354741E+02  0.50543548647E+02 -0.17445637648E+02  0.10227770249E+03  0.81418759345E+02 0.  0.
          5    1    3    3  501    0  0.43736353471E+02 -0.31155734567E+02 -0.63035438589E+02  0.82940369721E+02  0.47000000000E+01 0. -1.
        -13    1    4    4    0    0 -0.88285885467E+02 -0.29448081206E+02 -0.27918337615E+03  0.29428718045E+03  0.00000000000E+00 0.  1.
         14    1    4    4    0    0 -0.72146184107E+01  0.13828988645E+02 -0.49050383303E+01  0.16350872967E+02  0.00000000000E+00 0. -1.
         -5    1    5    5    0  502  0.82952505147E+02 -0.37687215191E+01 -0.39622970645E+02  0.92127038240E+02  0.47000000000E+01 0.  1.
         11    1    6    6    0    0  0.16344422933E+02  0.43907102652E+02  0.86587280675E+01  0.47643964948E+02  0.00000000000E+00 0. -1.
        -12    1    6    6    0    0 -0.47532777674E+02  0.66364459959E+01 -0.26104365715E+02  0.54633737546E+02  0.00000000000E+00 0.  1.
</event>
<event>
12    1  0.8449700E-002  0.2303313E+03  0.7818608E-02  0.1127481E+00
         21   -1    0    0  503  502  0.00000000000E+00  0.00000000000E+00  0.49622068216E+03  0.49622068216E+03  0.00000000000E+00 0.  1.
         21   -1    0    0  501  503 -0.00000000000E+00 -0.00000000000E+00 -0.10432153580E+03  0.10432153580E+03  0.00000000000E+00 0.  1.
          6    2    1    2  501    0  0.99215444414E+02 -0.11204335085E+03  0.21136121804E+03  0.31261167212E+03  0.17508591085E+03 0.  0.
         24    2    3    3    0    0  0.10056447669E+03 -0.12679962024E+03  0.22811577964E+03  0.28975619775E+03  0.75699983794E+02 0.  0.
         -6    2    1    2    0  502 -0.99215444414E+02  0.11204335085E+03  0.18053792832E+03  0.28793054583E+03  0.16707075981E+03 0.  0.
        -24    2    5    5    0    0 -0.12799590695E+03  0.57253640114E+02  0.12846424854E+03  0.20691211860E+03  0.81539132732E+02 0.  0.
          5    1    3    3  501    0 -0.13490322718E+01  0.14756269391E+02 -0.16754561604E+02  0.22855474376E+02  0.47000000000E+01 0. -1.
        -13    1    4    4    0    0  0.55234769466E+02 -0.21075181336E+02  0.48525271119E+02  0.76483625460E+02  0.00000000000E+00 0.  1.
         14    1    4    4    0    0  0.45329707220E+02 -0.10572443890E+03  0.17959050852E+03  0.21327257229E+03  0.00000000000E+00 0. -1.
         -5    1    5    5    0  502  0.28780462537E+02  0.54789710731E+02  0.52073679779E+02  0.81018427235E+02  0.47000000000E+01 0.  1.
         13    1    6    6    0    0 -0.99223980952E+02  0.12197417186E+02  0.11380683726E+03  0.15147993791E+03  0.00000000000E+00 0. -1.
        -14    1    6    6    0    0 -0.28771925999E+02  0.45056222928E+02  0.14657411279E+02  0.55432180686E+02  0.00000000000E+00 0.  1.
</event>
<event>
12    1  0.8449700E-002  0.2441467E+03  0.7818608E-02  0.1117076E+00
         21   -1    0    0  501  502  0.00000000000E+00  0.00000000000E+00  0.35252393369E+02  0.35252393369E+02  0.00000000000E+00 0.  1.
         21   -1    0    0  502  503 -0.00000000000E+00 -0.00000000000E+00 -0.23197525153E+04  0.23197525153E+04  0.00000000000E+00 0. -1.
         -6    2    1    2    0  503  0.52161748287E+02 -0.16528453070E+03 -0.17554925625E+04  0.17723758689E+04  0.17182042794E+03 0.  0.
        -24    2    3    3    0    0  0.36279822880E+02 -0.17792453117E+03 -0.11651520149E+04  0.11816677707E+04  0.76066668112E+02 0.  0.
          6    2    1    2  501    0 -0.52161748287E+02  0.16528453070E+03 -0.52900755933E+03  0.58262903971E+03  0.17195283077E+03 0.  0.
         24    2    5    5    0    0 -0.56628999145E+02  0.31373546797E+02 -0.15869010029E+03  0.18878996291E+03  0.79170443877E+02 0.  0.
          5    1    5    5  501    0  0.44672508583E+01  0.13391098390E+03 -0.37031745905E+03  0.39383907680E+03  0.47000000000E+01 0. -1.
        -13    1    6    6    0    0 -0.49647107228E+02  0.52968986982E+02 -0.14532861729E+03  0.16245293424E+03  0.00000000000E+00 0.  1.
         14    1    6    6    0    0 -0.69818919167E+01 -0.21595440185E+02 -0.13361482994E+02  0.26337028673E+02  0.00000000000E+00 0. -1.
         -5    1    3    3    0  503  0.15881925407E+02  0.12640000473E+02 -0.59034054760E+03  0.59070809823E+03  0.47000000000E+01 0.  1.
         11    1    4    4    0    0 -0.14469568356E+02 -0.10982249288E+03 -0.72237516327E+03  0.73081887282E+03  0.00000000000E+00 0. -1.
        -12    1    4    4    0    0  0.50749391236E+02 -0.68102038289E+02 -0.44277685167E+03  0.45084889786E+03  0.00000000000E+00 0.  1.
</event>
<event>
12    1  0.8449700E-002  0.1857697E+03  0.7818608E-02  0.1162579E+00
         21   -1    0    0  503  502  0.00000000000E+00  0.00000000000E+00  0.12400958275E+03  0.12400958275E+03  0.00000000000E+00 0.  1.
         21   -1    0    0  501  503 -0.00000000000E+00 -0.00000000000E+00 -0.34331645490E+03  0.34331645490E+03  0.00000000000E+00 0.  1.
          6    2    1    2  501    0 -0.14199943613E+02 -0.63763071046E+02 -0.21282512613E+03  0.28249766096E+03  0.17390522277E+03 0.  0.
         24    2    3    3    0    0 -0.24449846983E+02 -0.10840174821E+03 -0.13428200727E+03  0.19145490430E+03  0.79212302546E+02 0.  0.
         -6    2    1    2    0  502  0.14199943613E+02  0.63763071046E+02 -0.64817460236E+01  0.18482837670E+03  0.17277774212E+03 0.  0.
        -24    2    5    5    0    0  0.52509178410E+02  0.10162414092E+02  0.35467546854E+02  0.10658221980E+03  0.85096029399E+02 0.  0.
          5    1    3    3  501    0  0.10249903370E+02  0.44638677162E+02 -0.78543118865E+02  0.91042756652E+02  0.47000000000E+01 0. -1.
        -13    1    4    4    0    0 -0.29861046907E+02 -0.91800950042E+02 -0.14252950150E+03  0.17214457688E+03  0.00000000000E+00 0.  1.
         14    1    4    4    0    0  0.54111999237E+01 -0.16600798166E+02  0.82474942293E+01  0.19310327429E+02  0.00000000000E+00 0. -1.
         -5    1    5    5    0  502 -0.38309234796E+02  0.53600656954E+02 -0.41949292877E+02  0.78246156899E+02  0.47000000000E+01 0.  1.
         11    1    6    6    0    0 -0.23395031684E+02 -0.24129111479E+01  0.97342745110E+01  0.25453992771E+02  0.00000000000E+00 0. -1.
        -12    1    6    6    0    0  0.75904210094E+02  0.12575325240E+02  0.25733272343E+02  0.81128227026E+02  0.00000000000E+00 0.  1.
</event>
<event>
12    1  0.8449700E-002  0.1792574E+03  0.7818608E-02  0.1170112E+00
         21   -1    0    0  501  502  0.00000000000E+00  0.00000000000E+00  0.30630542677E+03  0.30630542677E+03  0.00000000000E+00 0. -1.
         21   -1    0    0  502  503 -0.00000000000E+00 -0.00000000000E+00 -0.25019165340E+03  0.25019165340E+03  0.00000000000E+00 0. -1.
         -6    2    1    2    0  503  0.15278814616E+02 -0.25536270678E+02  0.24297646443E+03  0.30194500499E+03  0.17677013457E+03 0.  0.
        -24    2    3    3    0    0 -0.57692540912E+01 -0.51960079624E+01  0.25685292172E+03  0.26921285641E+03  0.80261172870E+02 0.  0.
          6    2    1    2  501    0 -0.15278814616E+02  0.25536270678E+02 -0.18686269106E+03  0.25455207518E+03  0.17027492586E+03 0.  0.
         24    2    5    5    0    0 -0.26437226077E+02 -0.27803532182E+02 -0.17912140653E+03  0.19931022328E+03  0.78537401927E+02 0.  0.
          5    1    5    5  501    0  0.11158411461E+02  0.53339802860E+02 -0.77412845212E+01  0.55241851902E+02  0.47000000000E+01 0. -1.
        -11    1    6    6    0    0  0.12176116792E+01 -0.50090646481E+02 -0.12395562061E+03  0.13369948139E+03  0.00000000000E+00 0.  1.
         12    1    6    6    0    0 -0.27654837756E+02  0.22287114299E+02 -0.55165785928E+02  0.65610741896E+02  0.00000000000E+00 0. -1.
         -5    1    3    3    0  503  0.21048068707E+02 -0.20340262716E+02 -0.13876457290E+02  0.32732148578E+02  0.47000000000E+01 0.  1.
         13    1    4    4    0    0 -0.41140587230E+02 -0.97368810727E+01  0.10420414868E+03  0.11245380995E+03  0.00000000000E+00 0. -1.
        -14    1    4    4    0    0  0.35371333139E+02  0.45408731103E+01  0.15264877304E+03  0.15675904646E+03  0.00000000000E+00 0.  1.
</event>
<event>
12    1  0.8449700E-002  0.2570241E+03  0.7818608E-02  0.1109049E+00
         21   -1    0    0  501  502  0.00000000000E+00  0.00000000000E+00  0.25190357758E+03  0.25190357758E+03  0.00000000000E+00 0.  1.
         21   -1    0    0  502  503 -0.00000000000E+00 -0.00000000000E+00 -0.26199489049E+03  0.26199489049E+03  0.00000000000E+00 0. -1.
         -6    2    1    2    0  503  0.11466157475E+03  0.15334428397E+03 -0.15638027343E+02  0.25749940461E+03  0.17146325940E+03 0.  0.
        -24    2    3    3    0    0  0.66431672552E+02  0.16854721273E+03 -0.39409359490E+02  0.20142428765E+03  0.78723033496E+02 0.  0.
          6    2    1    2  501    0 -0.11466157475E+03 -0.15334428397E+03  0.55467144297E+01  0.25639906347E+03  0.17043464306E+03 0.  0.
         24    2    5    5    0    0 -0.14582635561E+03 -0.12076096758E+03  0.24768146571E+02  0.20716016090E+03  0.80332645276E+02 0.  0.
          5    1    5    5  501    0  0.31164780860E+02 -0.32583316383E+02 -0.19221432141E+02  0.49238902568E+02  0.47000000000E+01 0. -1.
        -13    1    6    6    0    0 -0.47345947626E+02 -0.83856136877E+02  0.32684310985E+02  0.10169441791E+03  0.00000000000E+00 0.  1.
         14    1    6    6    0    0 -0.98480407984E+02 -0.36904830706E+02 -0.79161644141E+01  0.10546574299E+03  0.00000000000E+00 0. -1.
         -5    1    3    3    0  503  0.48229902198E+02 -0.15202928767E+02  0.23771332148E+02  0.56075116952E+02  0.47000000000E+01 0.  1.
         11    1    4    4    0    0  0.29201035586E+02  0.77224960838E+01 -0.17474425869E+02  0.34895457935E+02  0.00000000000E+00 0. -1.
        -12    1    4    4    0    0  0.37230636967E+02  0.16082471665E+03 -0.21934933621E+02  0.16652882972E+03  0.00000000000E+00 0.  1.
</event>
<event>
12    1  0.8449700E-002  0.1998007E+03  0.7818608E-02  0.1150628E+00
         21   -1    0    0  503  502  0.00000000000E+00  0.00000000000E+00  0.50955072290E+02  0.50955072290E+02  0.00000000000E+00 0. -1.
         21   -1    0    0  501  503 -0.00000000000E+00 -0.00000000000E+00 -0.12543028285E+04  0.12543028285E+04  0.00000000000E+00 0.  1.
          6    2    1    2  501    0  0.90515170022E+02  0.44968884493E+02 -0.10039439215E+04  0.10229775501E+04  0.16841755828E+03 0.  0.
         24    2    3    3    0    0  0.62362726206E+02  0.73457348442E+02 -0.93307574410E+03  0.94143896269E+03  0.79949262499E+02 0.  0.
         -6    2    1    2    0  502 -0.90515170022E+02 -0.44968884493E+02 -0.19940383476E+03  0.28228035072E+03  0.17235170586E+03 0.  0.
        -24    2    5    5    0    0 -0.37700528403E+01 -0.32909877899E+01 -0.26490061220E+02  0.84333323702E+02  0.79908336512E+02 0.  0.
          5    1    3    3  501    0  0.28152443817E+02 -0.28488463948E+02 -0.70868177379E+02  0.81538587405E+02  0.47000000000E+01 0. -1.
        -13    1    4    4    0    0  0.94087085378E+01  0.19391922594E+02 -0.57735424301E+03  0.57775642998E+03  0.00000000000E+00 0.  1.
         14    1    4    4    0    0  0.52954017668E+02  0.54065425847E+02 -0.35572150109E+03  0.36368253271E+03  0.00000000000E+00 0. -1.
         -5    1    5    5    0  502 -0.86745117182E+02 -0.41677896703E+02 -0.17291377354E+03  0.19794702702E+03  0.47000000000E+01 0.  1.
         11    1    6    6    0    0 -0.18311634569E+02  0.33827422551E+02 -0.21745331046E+02  0.44186761585E+02  0.00000000000E+00 0. -1.
        -12    1    6    6    0    0  0.14541581728E+02 -0.37118410341E+02 -0.47447301738E+01  0.40146562117E+02  0.00000000000E+00 0.  1.
</event>
<event>
12    1  0.8449700E-002  0.2582351E+03  0.7818608E-02  0.1108258E+00
         21   -1    0    0  501  502  0.00000000000E+00  0.00000000000E+00  0.10923511584E+04  0.10923511584E+04  0.00000000000E+00 0. -1.
         21   -1    0    0  502  503 -0.00000000000E+00 -0.00000000000E+00 -0.60971134152E+02  0.60971134152E+02  0.00000000000E+00 0.  1.
         -6    2    1    2    0  503 -0.15084960481E+03  0.12098047805E+03  0.51306924615E+03  0.57439134055E+03  0.17115338563E+03 0.  0.
        -24    2    3    3    0    0 -0.64567980036E+02  0.45653688180E+01  0.13081173227E+03  0.16556387896E+03  0.78165350884E+02 0.  0.
          6    2    1    2  501    0  0.15084960481E+03 -0.12098047805E+03  0.51831077810E+03  0.57893095201E+03  0.17065493006E+03 0.  0.
         24    2    5    5    0    0  0.91129773982E+02 -0.13701787896E+03  0.45598467430E+03  0.49100888630E+03  0.78033123547E+02 0.  0.
          5    1    5    5  501    0  0.59719830831E+02  0.16037400910E+02  0.62326103800E+02  0.87922065702E+02  0.47000000000E+01 0. -1.
        -13    1    6    6    0    0  0.10218947053E+03 -0.11506049535E+03  0.35220056230E+03  0.38435249650E+03  0.00000000000E+00 0.  1.
         14    1    6    6    0    0 -0.11059696553E+02 -0.21957383609E+02  0.10378411200E+03  0.10665638980E+03  0.00000000000E+00 0. -1.
         -5    1    3    3    0  503 -0.86281624777E+02  0.11641510923E+03  0.38225751388E+03  0.40882746159E+03  0.47000000000E+01 0.  1.
         11    1    4    4    0    0 -0.44236392127E+02  0.35874929275E+02  0.10720296428E+03  0.12139334615E+03  0.00000000000E+00 0. -1.
        -12    1    4    4    0    0 -0.20331587910E+02 -0.31309560457E+02  0.23608767992E+02  0.44170532813E+02  0.00000000000E+00 0.  1.
</event>
<event>
12    1  0.8449700E-002  0.2039652E+03  0.7818608E-02  0.1146642E+00
         21   -1    0    0  503  502  0.00000000000E+00  0.00000000000E+00  0.47900595818E+02  0.47900595818E+02  0.00000000000E+00 0.  1.
         21   -1    0    0  501  503 -0.00000000000E+00 -0.00000000000E+00 -0.86485354060E+03  0.86485354060E+03  0.00000000000E+00 0.  1.
          6    2    1    2  501    0  0.42376162158E+02 -0.98989075614E+02 -0.39740380282E+03  0.44668957439E+03  0.17322591365E+03 0.  0.
         24    2    3    3    0    0 -0.17718379495E+02 -0.83750703780E+02 -0.34865442367E+03  0.36768227169E+03  0.79386550570E+02 0.  0.
         -6    2    1    2    0  502 -0.42376162158E+02  0.98989075614E+02 -0.41954914196E+03  0.46606456203E+03  0.17204684609E+03 0.  0.
        -24    2    5    5    0    0 -0.30586259405E+02  0.13085866416E+03 -0.29851855362E+03  0.34026644680E+03  0.92781564504E+02 0.  0.
          5    1    3    3  501    0  0.60094541653E+02 -0.15238371834E+02 -0.48749379149E+02  0.79007302701E+02  0.47000000000E+01 0. -1.
        -13    1    4    4    0    0 -0.18427791701E+02 -0.40320586796E+02 -0.29655994995E+03  0.29985519362E+03  0.00000000000E+00 0.  1.
         14    1    4    4    0    0  0.70941220628E+00 -0.43430116984E+02 -0.52094473727E+02  0.67827078072E+02  0.00000000000E+00 0. -1.
         -5    1    5    5    0  502 -0.11789902753E+02 -0.31869588549E+02 -0.12103058834E+03  0.12579811523E+03  0.47000000000E+01 0.  1.
         13    1    6    6    0    0  0.61452177194E+01 -0.13059106328E+02 -0.20692832639E+02  0.25228897747E+02  0.00000000000E+00 0. -1.
        -14    1    6    6    0    0 -0.36731477125E+02  0.14391777049E+03 -0.27782572099E+03  0.31503754906E+03  0.00000000000E+00 0.  1.
</event>
<event>
12    1  0.8449700E-002  0.1840066E+03  0.7818608E-02  0.1164217E+00
         21   -1    0    0  503  502  0.00000000000E+00  0.00000000000E+00  0.51848475594E+02  0.51848475594E+02  0.00000000000E+00 0.  1.
         21   -1    0    0  501  503 -0.00000000000E+00 -0.00000000000E+00 -0.65550415799E+03  0.65550415799E+03  0.00000000000E+00 0. -1.
          6    2    1    2  501    0  0.63767408911E+02 -0.11033380375E+02 -0.33655028448E+03  0.38356816288E+03  0.17225104840E+03 0.  0.
         24    2    3    3    0    0  0.83865898624E+02 -0.85297740376E+01 -0.34282037466E+03  0.36185131771E+03  0.79399753454E+02 0.  0.
         -6    2    1    2    0  502 -0.63767408911E+02  0.11033380375E+02 -0.26710539792E+03  0.32378447070E+03  0.17118140070E+03 0.  0.
        -24    2    5    5    0    0 -0.10236514880E+03  0.16497550325E+02 -0.14266380329E+03  0.19329522535E+03  0.79115678093E+02 0.  0.
          5    1    3    3  501    0 -0.20098489713E+02 -0.25036063378E+01  0.62700901830E+01  0.21716845175E+02  0.47000000000E+01 0. -1.
        -11    1    4    4    0    0  0.49842125054E+02 -0.23783612186E+02 -0.85109443180E+02  0.10145696111E+03  0.00000000000E+00 0.  1.
         12    1    4    4    0    0  0.34023773570E+02  0.15253838148E+02 -0.25771093148E+03  0.26039435660E+03  0.00000000000E+00 0. -1.
         -5    1    5    5    0  502  0.38597739885E+02 -0.54641699498E+01 -0.12444159462E+03  0.13048924534E+03  0.47000000000E+01 0.  1.
         13    1    6    6    0    0 -0.20860935092E+02 -0.14242836735E+02 -0.85382435857E+02  0.89040425449E+02  0.00000000000E+00 0. -1.
        -14    1    6    6    0    0 -0.81504213704E+02  0.30740387060E+02 -0.57281367435E+02  0.10425479991E+03  0.00000000000E+00 0.  1.
</event>
<event>
12    1  0.8449700E-002  0.1921160E+03  0.7818608E-02  0.1156906E+00
         21   -1    0    0  503  502  0.00000000000E+00  0.00000000000E+00  0.39029886130E+02  0.39029886130E+02  0.00000000000E+00 0. -1.
         21   -1    0    0  501  503 -0.00000000000E+00 -0.00000000000E+00 -0.14758672968E+04  0.14758672968E+04  0.00000000000E+00 0.  1.
          6    2    1    2  501    0  0.82222579574E+02 -0.49145754010E+01 -0.11737886999E+04  0.11891623743E+04  0.17187941978E+03 0.  0.
         24    2    3    3    0    0  0.59741193896E+02  0.25132276963E+02 -0.11121876023E+04  0.11168781349E+04  0.79087698597E+02 0.  0.
         -6    2    1    2    0  502 -0.82222579574E+02  0.49145754010E+01 -0.26304871076E+03  0.32573480856E+03  0.17356219528E+03 0.  0.
        -24    2    5    5    0    0 -0.70285066917E+02  0.35332956535E+02 -0.73996177809E+02  0.13382146266E+03  0.79021143298E+02 0.  0.
          5    1    3    3  501    0  0.22481385677E+02 -0.30046852364E+02 -0.61601097588E+02  0.72284239382E+02  0.47000000000E+01 0. -1.
        -11    1    4    4    0    0  0.36552619877E+02 -0.25088447688E+02 -0.37343278037E+03  0.37605526945E+03  0.00000000000E+00 0.  1.
         12    1    4    4    0    0  0.23188574020E+02  0.50220724652E+02 -0.73875482191E+03  0.74082286550E+03  0.00000000000E+00 0. -1.
         -5    1    5    5    0  502 -0.11937512657E+02 -0.30418381134E+02 -0.18905253295E+03  0.19191334590E+03  0.47000000000E+01 0.  1.
         11    1    6    6    0    0 -0.42865033915E+02  0.39637832344E+02 -0.39962770686E+01  0.58519561822E+02  0.00000000000E+00 0. -1.
        -12    1    6    6    0    0 -0.27420033001E+02 -0.43048758088E+01 -0.69999900741E+02  0.75301900834E+02  0.00000000000E+00 0.  1.
</event>
<event>
12    1  0.8449700E-002  0.1176527E+04  0.7818608E-02  0.9133665E-01
         21   -1    0    0  503  502  0.00000000000E+00  0.00000000000E+00  0.17031852431E+04  0.17031852431E+04  0.00000000000E+00 0. -1.
         21   -1    0    0  501  503 -0.00000000000E+00 -0.00000000000E+00 -0.81413073078E+03  0.81413073078E+03  0.00000000000E+00 0.  1.
          6    2    1    2  501    0 -0.14742421837E+03  0.11544795624E+04  0.39156892338E+03  0.12399761435E+04  0.17221397935E+03 0.  0.
         24    2    3    3    0    0 -0.91956069890E+02  0.75057382261E+03  0.18357922856E+03  0.78226622966E+03  0.80138248857E+02 0.  0.
         -6    2    1    2    0  502  0.14742421837E+03 -0.11544795624E+04  0.49748558891E+03  0.12773398303E+04  0.17189581391E+03 0.  0.
        -24    2    5    5    0    0  0.54227211599E+02 -0.26956519247E+03  0.93493863730E+02  0.30010366227E+03  0.75598426443E+02 0.  0.
          5    1    3    3  501    0 -0.55468148484E+02  0.40390573976E+03  0.20798969482E+03  0.45770991388E+03  0.47000000000E+01 0. -1.
        -11    1    4    4    0    0 -0.96191193784E+01  0.13545417057E+03  0.64518630558E+02  0.15034298611E+03  0.00000000000E+00 0.  1.
         12    1    4    4    0    0 -0.82336950512E+02  0.61511965204E+03  0.11906059800E+03  0.63192324355E+03  0.00000000000E+00 0. -1.
         -5    1    5    5    0  502  0.93197006775E+02 -0.88491436990E+03  0.40399172518E+03  0.97723616804E+03  0.47000000000E+01 0.  1.
         11    1    6    6    0    0  0.51855653760E+02 -0.21502465828E+03  0.42167892273E+02  0.22517269736E+03  0.00000000000E+00 0. -1.
        -12    1    6    6    0    0  0.23715578398E+01 -0.54540534189E+02  0.51325971457E+02  0.74930964909E+02  0.00000000000E+00 0.  1.
</event>
<event>
12    1  0.8449700E-002  0.5348084E+03  0.7818608E-02  0.1005193E+00
         21   -1    0    0  501  502  0.00000000000E+00  0.00000000000E+00  0.18053765991E+04  0.18053765991E+04  0.00000000000E+00 0. -1.
         21   -1    0    0  502  503 -0.00000000000E+00 -0.00000000000E+00 -0.19270137874E+03  0.19270137874E+03  0.00000000000E+00 0.  1.
         -6    2    1    2    0  503  0.50316362043E+03 -0.55551558498E+02  0.38012208089E+03  0.65449797344E+03  0.16617820641E+03 0.  0.
        -24    2    3    3    0    0  0.24563571782E+03 -0.41701852886E+02  0.12123985564E+03  0.28904683920E+03  0.82298373339E+02 0.  0.
          6    2    1    2  501    0 -0.50316362043E+03  0.55551558498E+02  0.12325531395E+04  0.13435800044E+04  0.17251197649E+03 0.  0.
         24    2    5    5    0    0 -0.16768890470E+03 -0.28417835075E+02  0.47632535911E+03  0.51201720476E+03  0.79678278936E+02 0.  0.
          5    1    5    5  501    0 -0.33547471572E+03  0.83969393573E+02  0.75622778035E+03  0.83156279962E+03  0.47000000000E+01 0. -1.
        -13    1    6    6    0    0 -0.91005195490E+02  0.23773527120E+02  0.26618098333E+03  0.28231089615E+03  0.00000000000E+00 0.  1.
         14    1    6    6    0    0 -0.76683709214E+02 -0.52191362195E+02  0.21014437578E+03  0.22970630862E+03  0.00000000000E+00 0. -1.
         -5    1    3    3    0  503  0.25752790261E+03 -0.13849705612E+02  0.25888222525E+03  0.36545113424E+03  0.47000000000E+01 0.  1.
         13    1    4    4    0    0  0.23392372747E+03 -0.24318037205E+02  0.90833976051E+02  0.25211602173E+03  0.00000000000E+00 0. -1.
        -14    1    4    4    0    0  0.11711990348E+02 -0.17383815681E+02  0.30405879591E+02  0.36930817473E+02  0.00000000000E+00 0.  1.
</event>
<event>
12    1  0.8449700E-002  0.2533560E+03  0.7818608E-02  0.1112778E+00
         21   -1    0    0  501  502  0.00000000000E+00  0.00000000000E+00  0.29012011725E+03  0.29012011725E+03  0.00000000000E+00 0.  1.
         21   -1    0    0  502  503 -0.00000000000E+00 -0.00000000000E+00 -0.23173830771E+03  0.23173830771E+03  0.00000000000E+00 0.  1.
         -6    2    1    2    0  503 -0.11975929411E+03 -0.12378140001E+03 -0.46199365970E+02  0.24776630141E+03  0.17201638057E+03 0.  0.
        -24    2    3    3    0    0 -0.12977478399E+03 -0.67316454874E+02 -0.75835217779E+02  0.18304401947E+03  0.79881995178E+02 0.  0.
          6    2    1    2  501    0  0.11975929411E+03  0.12378140001E+03  0.10458117551E+03  0.27409212356E+03  0.18580943574E+03 0.  0.
         24    2    5    5    0    0 -0.16881195733E+02  0.50683752759E+02  0.22837105551E+02  0.98826403940E+02  0.79945651305E+02 0.  0.
          5    1    5    5  501    0  0.13664048985E+03  0.73097647249E+02  0.81744069955E+02  0.17526571962E+03  0.47000000000E+01 0. -1.
        -13    1    6    6    0    0 -0.35160694894E+02  0.60475334818E+02  0.28293576280E+01  0.70011040924E+02  0.00000000000E+00 0.  1.
         14    1    6    6    0    0  0.18279499161E+02 -0.97915820582E+01  0.20007747923E+02  0.28815363016E+02  0.00000000000E+00 0. -1.
         -5    1    3    3    0  503  0.10015489874E+02 -0.56464945134E+02  0.29635851808E+02  0.64722281935E+02  0.47000000000E+01 0.  1.
         13    1    4    4    0    0 -0.78189477726E+02 -0.44090689465E+02 -0.87418071655E+02  0.12529765591E+03  0.00000000000E+00 0. -1.
        -14    1    4    4    0    0 -0.51585306263E+02 -0.23225765409E+02  0.11582853876E+02  0.57746363565E+02  0.00000000000E+00 0.  1.
</event>
<event>
12    1  0.8449700E-002  0.4082377E+03  0.7818608E-02  0.1041021E+00
         21   -1    0    0  501  502  0.00000000000E+00  0.00000000000E+00  0.75839679745E+03  0.75839679745E+03  0.00000000000E+00 0.  1.
         21   -1    0    0  502  503 -0.00000000000E+00 -0.00000000000E+00 -0.27024460913E+03  0.27024460913E+03  0.00000000000E+00 0. -1.
         -6    2    1    2    0  503  0.36407275153E+03 -0.65472385350E+02  0.46735981105E+03  0.62055070773E+03  0.17269159283E+03 0.  0.
        -24    2    3    3    0    0  0.16555066482E+03 -0.66165951545E+01  0.31021417135E+03  0.36056635239E+03  0.79526476158E+02 0.  0.
          6    2    1    2  501    0 -0.36407275153E+03  0.65472385350E+02  0.20792377275E+02  0.40809069885E+03  0.17108504869E+03 0.  0.
         24    2    5    5    0    0 -0.84975163488E+02  0.35096584332E+01  0.35497812243E+02  0.12178110593E+03  0.79608083611E+02 0.  0.
          5    1    5    5  501    0 -0.27909758804E+03  0.61962726917E+02 -0.14705434968E+02  0.28630959291E+03  0.47000000000E+01 0. -1.
        -13    1    6    6    0    0 -0.65450744888E+02  0.34417297243E+02  0.41401919333E+02  0.84749450030E+02  0.00000000000E+00 0.  1.
         14    1    6    6    0    0 -0.19524418600E+02 -0.30907638809E+02 -0.59041070897E+01  0.37031655904E+02  0.00000000000E+00 0. -1.
         -5    1    3    3    0  503  0.19852208670E+03 -0.58855790195E+02  0.15714563970E+03  0.25998435534E+03  0.47000000000E+01 0.  1.
         13    1    4    4    0    0  0.16950562979E+02 -0.28542343569E+02  0.47672059972E+02  0.58091412995E+02  0.00000000000E+00 0. -1.
        -14    1    4    4    0    0  0.14860010185E+03  0.21925748415E+02  0.26254211138E+03  0.30247493939E+03  0.00000000000E+00 0.  1.
</event>
<event>
12    1  0.8449700E-002  0.1859024E+03  0.7818608E-02  0.1162275E+00
         21   -1    0    0  501  502  0.00000000000E+00  0.00000000000E+00  0.17048714669E+04  0.17048714669E+04  0.00000000000E+00 0. -1.
         21   -1    0    0  502  503 -0.00000000000E+00 -0.00000000000E+00 -0.20642055701E+02  0.20642055701E+02  0.00000000000E+00 0.  1.
         -6    2    1    2    0  503  0.72619795194E+01 -0.69939699920E+02  0.72239278937E+03  0.74592965283E+03  0.17209127482E+03 0.  0.
        -24    2    3    3    0    0  0.19901238508E+02 -0.14665231601E+02  0.64224542757E+03  0.64764075560E+03  0.79675785323E+02 0.  0.
          6    2    1    2  501    0 -0.72619795194E+01  0.69939699920E+02  0.96183662184E+03  0.97958386978E+03  0.17178641637E+03 0.  0.
         24    2    5    5    0    0  0.18867177463E+02 -0.86669569906E+01  0.23551093903E+03  0.24853474225E+03  0.76635691246E+02 0.  0.
          5    1    5    5  501    0 -0.26129156982E+02  0.78606656910E+02  0.72632568281E+03  0.73104912753E+03  0.47000000000E+01 0. -1.
        -13    1    6    6    0    0  0.22005458696E+02  0.27931743965E+02  0.64787732948E+02  0.73904484803E+02  0.00000000000E+00 0.  1.
         14    1    6    6    0    0 -0.31382812327E+01 -0.36598700956E+02  0.17072320608E+03  0.17463025745E+03  0.00000000000E+00 0. -1.
         -5    1    3    3    0  503 -0.12639258988E+02 -0.55274468318E+02  0.80147361803E+02  0.98288897235E+02  0.47000000000E+01 0.  1.
         13    1    4    4    0    0 -0.24917115054E+02 -0.24162304955E+02  0.36375804437E+03  0.36541017289E+03  0.00000000000E+00 0. -1.
        -14    1    4    4    0    0  0.44818353561E+02  0.94970733539E+01  0.27848738320E+03  0.28223058271E+03  0.00000000000E+00 0.  1.
</event>
<event>
12    1  0.8449700E-002  0.1988702E+03  0.7818608E-02  0.1151019E+00
         21   -1    0    0  501  502  0.00000000000E+00  0.00000000000E+00  0.41789842359E+03  0.41789842359E+03  0.00000000000E+00 0. -1.
         21   -1    0    0  502  503 -0.00000000000E+00 -0.00000000000E+00 -0.12824515001E+03  0.12824515001E+03  0.00000000000E+00 0. -1.
         -6    2    1    2    0  503  0.58974821048E+02 -0.80258765671E+02  0.31451821641E+01  0.19737970887E+03  0.17038004084E+03 0.  0.
        -24    2    3    3    0    0  0.67822921096E+02 -0.34663213569E+02  0.59132027268E+02  0.12448348077E+03  0.78727716436E+02 0.  0.
          6    2    1    2  501    0 -0.58974821048E+02  0.80258765671E+02  0.28650809142E+03  0.34876386472E+03  0.17213322720E+03 0.  0.
         24    2    5    5    0    0  0.16968960030E+02  0.14176947302E+02  0.62558456344E+02  0.10318334096E+03  0.79020946286E+02 0.  0.
          5    1    5    5  501    0 -0.75943781078E+02  0.66081818369E+02  0.22394963507E+03  0.24558052376E+03  0.47000000000E+01 0. -1.
        -11    1    6    6    0    0 -0.34976783506E+01  0.46747688941E+01 -0.18313869806E+02  0.19221993792E+02  0.00000000000E+00 0.  1.
         12    1    6    6    0    0  0.20466638381E+02  0.95021784079E+01  0.80872326150E+02  0.83961347167E+02  0.00000000000E+00 0. -1.
         -5    1    3    3    0  503 -0.88481000477E+01 -0.45595552101E+02 -0.55986845104E+02  0.72896228096E+02  0.47000000000E+01 0.  1.
         13    1    4    4    0    0  0.20854084868E+02 -0.54556731687E+02  0.34558803112E+02  0.67864870888E+02  0.00000000000E+00 0. -1.
        -14    1    4    4    0    0  0.46968836228E+02  0.19893518118E+02  0.24573224157E+02  0.56618609884E+02  0.00000000000E+00 0.  1.
</event>
<event>
12    1  0.8449700E-002  0.1777050E+03  0.7818608E-02  0.1170124E+00
         21   -1    0    0  501  502  0.00000000000E+00  0.00000000000E+00  0.36739376489E+03  0.36739376489E+03  0.00000000000E+00 0.  1.
         21   -1    0    0  502  503 -0.00000000000E+00 -0.00000000000E+00 -0.12165929156E+03  0.12165929156E+03  0.00000000000E+00 0.  1.
         -6    2    1    2    0  503  0.17446319786E+02  0.40207228669E+02 -0.99786914940E+01  0.17765572796E+03  0.17187491988E+03 0.  0.
        -24    2    3    3    0    0  0.59554586114E+02 -0.13837013793E+02  0.11591838050E+02  0.10567473060E+03  0.85408233210E+02 0.  0.
          6    2    1    2  501    0 -0.17446319786E+02 -0.40207228669E+02  0.25571316482E+03  0.31139732848E+03  0.17221520900E+03 0.  0.
         24    2    5    5    0    0 -0.19180326072E+02 -0.87028459832E+02  0.22615056550E+03  0.25579812215E+03  0.79666575760E+02 0.  0.
          5    1    5    5  501    0  0.17340062857E+01  0.46821231163E+02  0.29562599324E+02  0.55599206327E+02  0.47000000000E+01 0. -1.
        -13    1    6    6    0    0  0.25318639461E+02 -0.53560250621E+02  0.81147676699E+02  0.10047228167E+03  0.00000000000E+00 0.  1.
         14    1    6    6    0    0 -0.44498965533E+02 -0.33468209211E+02  0.14500288880E+03  0.15532584048E+03  0.00000000000E+00 0. -1.
         -5    1    3    3    0  503 -0.42108266327E+02  0.54044242463E+02 -0.21570529544E+02  0.71980997362E+02  0.47000000000E+01 0.  1.
         11    1    4    4    0    0 -0.18126110157E+01 -0.59310516396E+01  0.37925808212E+02  0.38429544113E+02  0.00000000000E+00 0. -1.
        -12    1    4    4    0    0  0.61367197129E+02 -0.79059621539E+01 -0.26333970161E+02  0.67245186486E+02  0.00000000000E+00 0.  1.
</event>
<event>
12    1  0.8449700E-002  0.2921173E+03  0.7818608E-02  0.1091105E+00
         21   -1    0    0  503  502  0.00000000000E+00  0.00000000000E+00  0.29842673328E+03  0.29842673328E+03  0.00000000000E+00 0. -1.
         21   -1    0    0  501  503 -0.00000000000E+00 -0.00000000000E+00 -0.27653150008E+03  0.27653150008E+03  0.00000000000E+00 0.  1.
          6    2    1    2  501    0 -0.20955129897E+03  0.62500534569E+02 -0.23838903115E+02  0.29308837599E+03  0.19368644536E+03 0.  0.
         24    2    3    3    0    0 -0.52681602326E+02  0.80855027292E+02  0.26718729672E+02  0.12718734115E+03  0.78420931966E+02 0.  0.
         -6    2    1    2    0  502  0.20955129897E+03 -0.62500534569E+02  0.45734136315E+02  0.28186985737E+03  0.17187478450E+03 0.  0.
        -24    2    5    5    0    0  0.24308045506E+02 -0.38306620473E+02  0.16973743035E+02  0.92794056021E+02  0.79147650830E+02 0.  0.
          5    1    3    3  501    0 -0.15686969664E+03 -0.18354492723E+02 -0.50557632786E+02  0.16590103484E+03  0.47000000000E+01 0. -1.
        -11    1    4    4    0    0 -0.50066325042E+02  0.54833061426E+02 -0.17064994732E+02  0.76187371485E+02  0.00000000000E+00 0.  1.
         12    1    4    4    0    0 -0.26152772843E+01  0.26021965866E+02  0.43783724403E+02  0.50999969661E+02  0.00000000000E+00 0. -1.
         -5    1    5    5    0  502  0.18524325346E+03 -0.24193914096E+02  0.28760393280E+02  0.18907580135E+03  0.47000000000E+01 0.  1.
         11    1    6    6    0    0 -0.20859136346E+02  0.98677610851E+01 -0.41820191929E+01  0.23451344577E+02  0.00000000000E+00 0. -1.
        -12    1    6    6    0    0  0.45167181852E+02 -0.48174381558E+02  0.21155762228E+02  0.69342711444E+02  0.00000000000E+00 0.  1.
</event>
<event>
12    1  0.8449700E-002  0.1996177E+03  0.7818608E-02  0.1150553E+00
         21   -1    0    0  501  502  0.00000000000E+00  0.00000000000E+00  0.64117023110E+02  0.64117023110E+02  0.00000000000E+00 0. -1.
         21   -1    0    0  502  503 -0.00000000000E+00 -0.00000000000E+00 -0.13493879462E+04  0.13493879462E+04  0.00000000000E+00 0. -1.
         -6    2    1    2    0  503  0.61157020244E+02 -0.75826248709E+02 -0.11659639983E+04  0.11829282572E+04  0.17423379468E+03 0.  0.
        -24    2    3    3    0    0  0.73102110195E+02 -0.41764671949E+02 -0.11117592706E+04  0.11176356949E+04  0.77541372229E+02 0.  0.
          6    2    1    2  501    0 -0.61157020244E+02  0.75826248709E+02 -0.11930692478E+03  0.23057671211E+03  0.17158577082E+03 0.  0.
         24    2    5    5    0    0 -0.78959452317E+02  0.47684771597E+02 -0.14399754055E+03  0.18885638338E+03  0.80143679146E+02 0.  0.
          5    1    5    5  501    0  0.17802432073E+02  0.28141477112E+02  0.24690615773E+02  0.41720328726E+02  0.47000000000E+01 0. -1.
        -13    1    6    6    0    0 -0.18400474828E+02  0.57894174482E+02 -0.69418863650E+02  0.92245821278E+02  0.00000000000E+00 0.  1.
         14    1    6    6    0    0 -0.60558977489E+02 -0.10209402884E+02 -0.74578676903E+02  0.96610562106E+02  0.00000000000E+00 0. -1.
         -5    1    3    3    0  503 -0.11945089951E+02 -0.34061576760E+02 -0.54204727685E+02  0.65292562277E+02  0.47000000000E+01 0.  1.
         11    1    4    4    0    0  0.22740021198E+02  0.20123481687E+02 -0.46177692047E+03  0.46277422935E+03  0.00000000000E+00 0. -1.
        -12    1    4    4    0    0  0.50362088997E+02 -0.61888153636E+02 -0.64998235015E+03  0.65486146556E+03  0.00000000000E+00 0.  1.
</event>
<event>
12    1  0.8449700E-002  0.2179385E+03  0.7818608E-02  0.1137209E+00
         21   -1    0    0  503  502  0.00000000000E+00  0.00000000000E+00  0.97194456364E+02  0.97194456364E+02  0.00000000000E+00 0.  1.
         21   -1    0    0  501  503 -0.00000000000E+00 -0.00000000000E+00 -0.49440304506E+03  0.49440304506E+03  0.00000000000E+00 0.  1.
          6    2    1    2  501    0 -0.87150593582E+02  0.78573535798E+02 -0.27070871637E+03  0.34753471986E+03  0.18365224176E+03 0.  0.
         24    2    3    3    0    0 -0.12686433273E+03  0.47188198580E+02 -0.14905020921E+03  0.21568213994E+03  0.77340388004E+02 0.  0.
         -6    2    1    2    0  502  0.87150593582E+02 -0.78573535798E+02 -0.12649987233E+03  0.24406278156E+03  0.17261343272E+03 0.  0.
        -24    2    5    5    0    0 -0.21471208631E+02 -0.29530848312E+02 -0.34158811571E+02  0.93222327395E+02  0.78679693155E+02 0.  0.
          5    1    3    3  501    0  0.39713739150E+02  0.31385337218E+02 -0.12165850716E+03  0.13185257993E+03  0.47000000000E+01 0. -1.
        -11    1    4    4    0    0 -0.41112065868E+02  0.54017292415E+02 -0.48916440762E+02  0.83671309399E+02  0.00000000000E+00 0.  1.
         12    1    4    4    0    0 -0.85752266864E+02 -0.68290938353E+01 -0.10013376845E+03  0.13201083054E+03  0.00000000000E+00 0. -1.
         -5    1    5    5    0  502  0.10862180221E+03 -0.49042687486E+02 -0.92341060756E+02  0.15084045417E+03  0.47000000000E+01 0.  1.
         11    1    6    6    0    0 -0.28242319500E+02 -0.31060345670E+01 -0.52954476836E+02  0.60095363203E+02  0.00000000000E+00 0. -1.
        -12    1    6    6    0    0  0.67711108692E+01 -0.26424813745E+02  0.18795665265E+02  0.33126964192E+02  0.00000000000E+00 0.  1.
</event>
<event>
12    1  0.8449700E-002  0.2618290E+03  0.7818608E-02  0.1106092E+00
         21   -1    0    0  501  502  0.00000000000E+00  0.00000000000E+00  0.13591600341E+03  0.13591600341E+03  0.00000000000E+00 0.  1.
         21   -1    0    0  502  503 -0.00000000000E+00 -0.00000000000E+00 -0.85785950773E+03  0.85785950773E+03  0.00000000000E+00 0.  1.
         -6    2    1    2    0  503 -0.67359833163E+02 -0.18662178894E+03 -0.68005705387E+03  0.72861724642E+03  0.17041260526E+03 0.  0.
        -24    2    3    3    0    0 -0.84878807330E+02 -0.78047691739E+02 -0.48398601361E+03  0.50375908697E+03  0.78961397044E+02 0.  0.
          6    2    1    2  501    0  0.67359833163E+02  0.18662178894E+03 -0.41886450444E+02  0.26515826472E+03  0.17084903098E+03 0.  0.
         24    2    5    5    0    0  0.72342056831E+01  0.95475143922E+02  0.49374330900E+02  0.12277349661E+03  0.58886926216E+02 0.  0.
          5    1    5    5  501    0  0.60125627480E+02  0.91146645022E+02 -0.91260781344E+02  0.14238476811E+03  0.47000000000E+01 0. -1.
        -13    1    6    6    0    0  0.70422907548E+01  0.66537244440E+02  0.16119255978E+01  0.66928297909E+02  0.00000000000E+00 0.  1.
         14    1    6    6    0    0  0.19191492821E+00  0.28937899482E+02  0.47762405302E+02  0.55845198702E+02  0.00000000000E+00 0. -1.
         -5    1    3    3    0  503  0.17518974166E+02 -0.10857409721E+03 -0.19607104026E+03  0.22485815945E+03  0.47000000000E+01 0.  1.
         13    1    4    4    0    0 -0.80743743768E+01  0.10855981008E+02 -0.14649069932E+02  0.19940990323E+02  0.00000000000E+00 0. -1.
        -14    1    4    4    0    0 -0.76804432953E+02 -0.88903672746E+02 -0.46933694367E+03  0.48381809665E+03  0.00000000000E+00 0.  1.
</event>
<event>
12    1  0.8449700E-002  0.3100197E+03  0.7818608E-02  0.1080340E+00
         21   -1    0    0  501  502  0.00000000000E+00  0.00000000000E+00  0.17992027225E+03  0.17992027225E+03  0.00000000000E+00 0. -1.
         21   -1    0    0  502  503 -0.00000000000E+00 -0.00000000000E+00 -0.69207549277E+03  0.69207549277E+03  0.00000000000E+00 0. -1.
         -6    2    1    2    0  503  0.45710321258E+02  0.25427417737E+03 -0.46434841851E+03  0.55831166480E+03  0.17131161818E+03 0.  0.
        -24    2    3    3    0    0  0.26028112967E+02  0.26317802867E+03 -0.45833953486E+03  0.53540174175E+03  0.81484712785E+02 0.  0.
          6    2    1    2  501    0 -0.45710321258E+02 -0.25427417737E+03 -0.47806802005E+02  0.31368410023E+03  0.17136929033E+03 0.  0.
         24    2    5    5    0    0 -0.34833820220E+01 -0.25561529504E+03 -0.40690566465E+02  0.27058370809E+03  0.78794085297E+02 0.  0.
          5    1    5    5  501    0 -0.42226939236E+02  0.13411176676E+01 -0.71162355403E+01  0.43100392134E+02  0.47000000000E+01 0. -1.
        -13    1    6    6    0    0  0.22542948680E+01  0.27462086264E+01  0.69485256434E+01  0.78041986000E+01  0.00000000000E+00 0.  1.
         14    1    6    6    0    0 -0.57376768900E+01 -0.25836150367E+03 -0.47639092108E+02  0.26277950949E+03  0.00000000000E+00 0. -1.
         -5    1    3    3    0  503  0.19682208291E+02 -0.89038512941E+01 -0.60088836526E+01  0.22909923043E+02  0.47000000000E+01 0.  1.
         13    1    4    4    0    0 -0.29312009591E+02  0.76587632737E+02 -0.14256233050E+03  0.16446542941E+03  0.00000000000E+00 0. -1.
        -14    1    4    4    0    0  0.55340122558E+02  0.18659039593E+03 -0.31577720436E+03  0.37093631234E+03  0.00000000000E+00 0.  1.
</event>
<event>
12    1  0.8449700E-002  0.1844124E+03  0.7818608E-02  0.1164317E+00
         21   -1    0    0  503  502  0.00000000000E+00  0.00000000000E+00  0.40571932831E+03  0.40571932831E+03  0.00000000000E+00 0. -1.
         21   -1    0    0  501  503 -0.00000000000E+00 -0.00000000000E+00 -0.16203634006E+03  0.16203634006E+03  0.00000000000E+00 0. -1.
          6    2    1    2  501    0  0.31320364889E+02  0.49430906035E+02 -0.77620142485E+02  0.19729158476E+03  0.17168198266E+03 0.  0.
         24    2    3    3    0    0  0.12061584775E+02 -0.41821207464E+00  0.23309466559E+02  0.82990617272E+02  0.78730264799E+02 0.  0.
         -6    2    1    2    0  502 -0.31320364889E+02 -0.49430906035E+02  0.32130313073E+03  0.37046408361E+03  0.17488154762E+03 0.  0.
        -24    2    5    5    0    0  0.13794954507E+02 -0.84102279312E+02  0.15205836129E+03  0.19184891586E+03  0.80129689387E+02 0.  0.
          5    1    3    3  501    0  0.19258780114E+02  0.49849118109E+02 -0.10092960904E+03  0.11430096749E+03  0.47000000000E+01 0. -1.
        -11    1    4    4    0    0  0.37974203627E+02  0.20754656524E+02  0.24069902136E+02  0.49519249766E+02  0.00000000000E+00 0.  1.
         12    1    4    4    0    0 -0.25912618852E+02 -0.21172868598E+02 -0.76043557710E+00  0.33471367506E+02  0.00000000000E+00 0. -1.
         -5    1    5    5    0  502 -0.45115319397E+02  0.34671373277E+02  0.16924476944E+03  0.17861516775E+03  0.47000000000E+01 0.  1.
         13    1    6    6    0    0 -0.11123806005E+01  0.14167721744E+02  0.65862640877E+01  0.15663352280E+02  0.00000000000E+00 0. -1.
        -14    1    6    6    0    0  0.14907335108E+02 -0.98270001056E+02  0.14547209720E+03  0.17618556358E+03  0.00000000000E+00 0.  1.
</event>
<event>
12    1  0.8449700E-002  0.1957377E+03  0.7818608E-02  0.1153824E+00
         21   -1    0    0  503  502  0.00000000000E+00  0.00000000000E+00  0.62240932832E+02  0.62240932832E+02  0.00000000000E+00 0. -1.
         21   -1    0    0  501  503 -0.00000000000E+00 -0.00000000000E+00 -0.63105824751E+03  0.63105824751E+03  0.00000000000E+00 0. -1.
          6    2    1    2  501    0  0.78989580569E+02 -0.42750392923E+02 -0.21856296156E+03  0.29206191885E+03  0.17164919557E+03 0.  0.
         24    2    3    3    0    0  0.32190005491E+02  0.44068804992E+02 -0.11034369927E+03  0.14556525648E+03  0.77686909437E+02 0.  0.
         -6    2    1    2    0  502 -0.78989580569E+02  0.42750392923E+02 -0.35025435311E+03  0.40123726149E+03  0.17391457156E+03 0.  0.
        -24    2    5    5    0    0 -0.27281762655E+02  0.60264779551E+01 -0.64357825143E+02  0.10835288316E+03  0.82569998321E+02 0.  0.
          5    1    3    3  501    0  0.46799575078E+02 -0.86819197915E+02 -0.10821926229E+03  0.14649666237E+03  0.47000000000E+01 0. -1.
        -11    1    4    4    0    0  0.24964115625E+02  0.25955280265E+02 -0.26385351343E+01  0.36108801008E+02  0.00000000000E+00 0.  1.
         12    1    4    4    0    0  0.72258898655E+01  0.18113524727E+02 -0.10770516414E+03  0.10945645547E+03  0.00000000000E+00 0. -1.
         -5    1    5    5    0  502 -0.51707817914E+02  0.36723914968E+02 -0.28589652797E+03  0.29288437833E+03  0.47000000000E+01 0.  1.
         11    1    6    6    0    0 -0.39159152333E+02 -0.28892445358E+02 -0.46750811481E+02  0.67482227174E+02  0.00000000000E+00 0. -1.
        -12    1    6    6    0    0  0.11877389678E+02  0.34918923314E+02 -0.17607013663E+02  0.40870655990E+02  0.00000000000E+00 0.  1.
</event>
<event>
12    1  0.8449700E-002  0.1937296E+03  0.7818608E-02  0.1155377E+00
         21   -1    0    0  503  502  0.00000000000E+00  0.00000000000E+00  0.41202960409E+03  0.41202960409E+03  0.00000000000E+00 0. -1.
         21   -1    0    0  501  503 -0.00000000000E+00 -0.00000000000E+00 -0.12382884854E+03  0.12382884854E+03  0.00000000000E+00 0. -1.
          6    2    1    2  501    0 -0.36323000263E+02 -0.80925703493E+02  0.55673602472E+01  0.19380954032E+03  0.17222895397E+03 0.  0.
         24    2    3    3    0    0 -0.20271445100E+02  0.18049048282E+02  0.32488386728E+02  0.89884155650E+02  0.79290393708E+02 0.  0.
         -6    2    1    2    0  502  0.36323000263E+02  0.80925703493E+02  0.28263339530E+03  0.34204891231E+03  0.17101898270E+03 0.  0.
        -24    2    5    5    0    0 -0.80702401572E+01  0.10693727542E+03  0.15675304656E+03  0.20597792398E+03  0.79716233653E+02 0.  0.
          5    1    3    3  501    0 -0.16051555163E+02 -0.98974751775E+02 -0.26921026481E+02  0.10392538467E+03  0.47000000000E+01 0. -1.
        -13    1    4    4    0    0  0.24340741892E+01 -0.10193307542E+02  0.48966833955E+02  0.50075733279E+02  0.00000000000E+00 0.  1.
         14    1    4    4    0    0 -0.22705519289E+02  0.28242355824E+02 -0.16478447227E+02  0.39808422371E+02  0.00000000000E+00 0. -1.
         -5    1    5    5    0  502  0.44393240420E+02 -0.26011571930E+02  0.12588034873E+03  0.13607098833E+03  0.47000000000E+01 0.  1.
         11    1    6    6    0    0  0.24278954531E+02  0.60271573912E+02  0.40411560776E+02  0.76519438702E+02  0.00000000000E+00 0. -1.
        -12    1    6    6    0    0 -0.32349194688E+02  0.46665701511E+02  0.11634148579E+03  0.12945848527E+03  0.00000000000E+00 0.  1.
</event>
<event>
12    1  0.8449700E-002  0.1943278E+03  0.7818608E-02  0.1154646E+00
         21   -1    0    0  501  502  0.00000000000E+00  0.00000000000E+00  0.13710256473E+03  0.13710256473E+03  0.00000000000E+00 0. -1.
         21   -1    0    0  502  503 -0.00000000000E+00 -0.00000000000E+00 -0.31069557227E+03  0.31069557227E+03  0.00000000000E+00 0. -1.
         -6    2    1    2    0  503 -0.29438087852E+02 -0.81791835696E+02 -0.16246284066E+03  0.25329321765E+03  0.17380096118E+03 0.  0.
        -24    2    3    3    0    0 -0.72329466135E+02 -0.18510894391E+02 -0.61891692180E+02  0.12687805333E+03  0.81812309420E+02 0.  0.
          6    2    1    2  501    0  0.29438087852E+02  0.81791835696E+02 -0.11130166885E+02  0.19450491935E+03  0.17364267227E+03 0.  0.
         24    2    5    5    0    0 -0.94992190197E+01  0.62803308317E+02  0.54994118666E+02  0.11531407911E+03  0.78984131669E+02 0.  0.
          5    1    5    5  501    0  0.38937306872E+02  0.18988527378E+02 -0.66124285551E+02  0.79190840241E+02  0.47000000000E+01 0. -1.
        -11    1    6    6    0    0  0.13781578610E+02 -0.13683093236E+02  0.20502771751E+02  0.28240442612E+02  0.00000000000E+00 0.  1.
         12    1    6    6    0    0 -0.23280797629E+02  0.76486401553E+02  0.34491346916E+02  0.87073636497E+02  0.00000000000E+00 0. -1.
         -5    1    3    3    0  503  0.42891378282E+02 -0.63280941304E+02 -0.10057114848E+03  0.12641516432E+03  0.47000000000E+01 0.  1.
         11    1    4    4    0    0 -0.55913279309E+02  0.12821080523E+02 -0.70086350390E+02  0.90569152695E+02  0.00000000000E+00 0. -1.
        -12    1    4    4    0    0 -0.16416186826E+02 -0.31331974915E+02  0.81946582097E+01  0.36308900632E+02  0.00000000000E+00 0.  1.
</event>
<event>
12    1  0.8449700E-002  0.2166787E+03  0.7818608E-02  0.1136417E+00
         21   -1    0    0  501  502  0.00000000000E+00  0.00000000000E+00  0.54885883450E+03  0.54885883450E+03  0.00000000000E+00 0.  1.
         21   -1    0    0  502  503 -0.00000000000E+00 -0.00000000000E+00 -0.15860594950E+03  0.15860594950E+03  0.00000000000E+00 0. -1.
         -6    2    1    2    0  503  0.10722159079E+03 -0.77201344333E+02  0.43537241296E+03  0.48631141695E+03  0.17173566664E+03 0.  0.
        -24    2    3    3    0    0  0.12500934895E+03 -0.19571323472E+02  0.33694808520E+03  0.37078193180E+03  0.89077801973E+02 0.  0.
          6    2    1    2  501    0 -0.10722159079E+03  0.77201344333E+02 -0.45119527956E+02  0.22115336705E+03  0.17151245685E+03 0.  0.
         24    2    5    5    0    0 -0.11493412210E+03  0.21741264055E+01 -0.36370230044E+02  0.14507967394E+03  0.80689149893E+02 0.  0.
          5    1    5    5  501    0  0.77125313004E+01  0.75027217928E+02 -0.87492979120E+01  0.76073693107E+02  0.47000000000E+01 0. -1.
        -13    1    6    6    0    0 -0.49516218904E+01  0.93357039490E+01 -0.33175544102E+02  0.34817964530E+02  0.00000000000E+00 0.  1.
         14    1    6    6    0    0 -0.10998250021E+03 -0.71615775436E+01 -0.31946859422E+01  0.11026170941E+03  0.00000000000E+00 0. -1.
         -5    1    3    3    0  503 -0.17787758155E+02 -0.57630020861E+02  0.98424327757E+02  0.11552948515E+03  0.47000000000E+01 0.  1.
         11    1    4    4    0    0  0.73070982934E+02  0.17726298107E+02  0.98556084204E+02  0.12396326845E+03  0.00000000000E+00 0. -1.
        -12    1    4    4    0    0  0.51938366016E+02 -0.37297621580E+02  0.23839200100E+03  0.24681866335E+03  0.00000000000E+00 0.  1.
</event>
<event>
12    1  0.8449700E-002  0.2635994E+03  0.7818608E-02  0.1105305E+00
         21   -1    0    0  501  502  0.00000000000E+00  0.00000000000E+00  0.15858526306E+04  0.15858526306E+04  0.00000000000E+00 0. -1.
         21   -1    0    0  502  503 -0.00000000000E+00 -0.00000000000E+00 -0.45278307923E+02  0.45278307923E+02  0.00000000000E+00 0.  1.
         -6    2    1    2    0  503  0.16973298972E+03  0.97363677115E+02  0.93603067291E+03  0.97243922384E+03  0.17662290342E+03 0.  0.
        -24    2    3    3    0    0  0.16270475814E+03  0.12185224068E+03  0.66450924813E+03  0.69968464569E+03  0.81641017178E+02 0.  0.
          6    2    1    2  501    0 -0.16973298972E+03 -0.97363677115E+02  0.60454364981E+03  0.65869171473E+03  0.17353033483E+03 0.  0.
         24    2    5    5    0    0 -0.92609979538E+02 -0.69647113139E+02  0.18552365635E+03  0.23170692397E+03  0.76431295112E+02 0.  0.
          5    1    5    5  501    0 -0.77123010177E+02 -0.27716563976E+02  0.41901999346E+03  0.42698479076E+03  0.47000000000E+01 0. -1.
        -13    1    6    6    0    0 -0.76763188482E+02 -0.50896974363E+02  0.18555595235E+03  0.20715718805E+03  0.00000000000E+00 0.  1.
         14    1    6    6    0    0 -0.15846791056E+02 -0.18750138775E+02 -0.32296006880E-01  0.24549735924E+02  0.00000000000E+00 0. -1.
         -5    1    3    3    0  503  0.70282315722E+01 -0.24488563570E+02  0.27152142478E+03  0.27275457815E+03  0.47000000000E+01 0.  1.
         11    1    4    4    0    0  0.10997178082E+03  0.12467514756E+03  0.50584150964E+03  0.53245968661E+03  0.00000000000E+00 0. -1.
        -12    1    4    4    0    0  0.52732977325E+02 -0.28229068786E+01  0.15866773849E+03  0.16722495908E+03  0.00000000000E+00 0.  1.
</event>
<event>
12    1  0.8449700E-002  0.3060183E+03  0.7818608E-02  0.1082315E+00
         21   -1    0    0  501  502  0.00000000000E+00  0.00000000000E+00  0.12431289601E+04  0.12431289601E+04  0.00000000000E+00 0.  1.
         21   -1    0    0  502  503 -0.00000000000E+00 -0.00000000000E+00 -0.99581878516E+02  0.99581878516E+02  0.00000000000E+00 0.  1.
         -6    2    1    2    0  503  0.21242339296E+03 -0.13533270262E+03  0.24012228483E+03  0.38898057380E+03  0.17380603224E+03 0.  0.
        -24    2    3    3    0    0  0.98993989502E+02  0.11173038069E+01  0.11851121644E+03  0.17381511240E+03  0.79785503383E+02 0.  0.
          6    2    1    2  501    0 -0.21242339296E+03  0.13533270262E+03  0.90342479678E+03  0.95373026485E+03  0.17316586377E+03 0.  0.
         24    2    5    5    0    0 -0.23199241426E+03  0.10273845670E+03  0.79934194234E+03  0.84282191507E+03  0.83818667255E+02 0.  0.
          5    1    5    5  501    0  0.19569021300E+02  0.32594245926E+02  0.10408285444E+03  0.11090834978E+03  0.47000000000E+01 0. -1.
        -11    1    6    6    0    0 -0.15861155219E+03  0.40988108988E+02  0.40263399032E+03  0.43468584027E+03  0.00000000000E+00 0.  1.
         12    1    6    6    0    0 -0.73380862064E+02  0.61750347711E+02  0.39670795202E+03  0.40813607480E+03  0.00000000000E+00 0. -1.
         -5    1    3    3    0  503  0.11342940346E+03 -0.13645000643E+03  0.12161106839E+03  0.21516546140E+03  0.47000000000E+01 0.  1.
         13    1    4    4    0    0  0.99367709434E+02 -0.72596417691E+01  0.12730934244E+03  0.16166110463E+03  0.00000000000E+00 0. -1.
        -14    1    4    4    0    0 -0.37371993220E+00  0.83769455760E+01 -0.87981259991E+01  0.12154007770E+02  0.00000000000E+00 0.  1.
</event>
<event>
12    1  0.8449700E-002  0.1766145E+03  0.7818608E-02  0.1171709E+00
         21   -1    0    0  501  502  0.00000000000E+00  0.00000000000E+00  0.25695431886E+04  0.25695431886E+04  0.00000000000E+00 0.  1.
         21   -1    0    0  502  503 -0.00000000000E+00 -0.00000000000E+00 -0.12108003414E+02  0.12108003414E+02  0.00000000000E+00 0.  1.
         -6    2    1    2    0  503 -0.26667366095E+02 -0.29213130499E+02  0.11365106647E+04  0.11497925479E+04  0.16971109842E+03 0.  0.
        -24    2    3    3    0    0 -0.59380496736E+00 -0.65478241900E+02  0.73213948375E+03  0.74293491821E+03  0.10787175838E+03 0.  0.
          6    2    1    2  501    0  0.26667366095E+02  0.29213130499E+02  0.14209245205E+04  0.14318586440E+04  0.17212823204E+03 0.  0.
         24    2    5    5    0    0  0.39338897563E+00 -0.31790501850E+02  0.57865137364E+03  0.58695752031E+03  0.93117816059E+02 0.  0.
          5    1    5    5  501    0  0.26273977119E+02  0.61003632349E+02  0.84227314682E+03  0.84490112374E+03  0.47000000000E+01 0. -1.
        -13    1    6    6    0    0  0.17299508547E+02  0.28560801924E+02  0.26586751946E+03  0.26795620968E+03  0.00000000000E+00 0.  1.
         14    1    6    6    0    0 -0.16906119571E+02 -0.60351303774E+02  0.31278385418E+03  0.31900131063E+03  0.00000000000E+00 0. -1.
         -5    1    3    3    0  503 -0.26073561128E+02  0.36265111402E+02  0.40437118095E+03  0.40685762974E+03  0.47000000000E+01 0.  1.
         11    1    4    4    0    0  0.35814174421E+02 -0.50319993645E+02  0.19961047814E+03  0.20894760069E+03  0.00000000000E+00 0. -1.
        -12    1    4    4    0    0 -0.36407979389E+02 -0.15158248255E+02  0.53252900561E+03  0.53398731751E+03  0.00000000000E+00 0.  1.
</event>
<event>
12    1  0.8449700E-002  0.2105864E+03  0.7818608E-02  0.1141487E+00
         21   -1    0    0  503  502  0.00000000000E+00  0.00000000000E+00  0.33646274375E+03  0.33646274375E+03  0.00000000000E+00 0. -1.
         21   -1    0    0  501  503 -0.00000000000E+00 -0.00000000000E+00 -0.16903331915E+03  0.16903331915E+03  0.00000000000E+00 0. -1.
          6    2    1    2  501    0  0.10059644605E+03 -0.64784544663E+02 -0.36518743400E+02  0.21372942759E+03  0.17329156764E+03 0.  0.
         24    2    3    3    0    0  0.73153978877E+02 -0.92969226800E+02 -0.72150094797E+02  0.16044576674E+03  0.80885265214E+02 0.  0.
         -6    2    1    2    0  502 -0.10059644605E+03  0.64784544663E+02  0.20394816801E+03  0.29176663531E+03  0.17092756378E+03 0.  0.
        -24    2    5    5    0    0 -0.91658579232E+02  0.81896925292E+02  0.74816487364E+02  0.16111519069E+03  0.72472038550E+02 0.  0.
          5    1    3    3  501    0  0.27442467170E+02  0.28184682137E+02  0.35631351397E+02  0.53283660853E+02  0.47000000000E+01 0. -1.
        -11    1    4    4    0    0 -0.13501290036E+02  0.11308552926E+01  0.63357581130E-01  0.13548715087E+02  0.00000000000E+00 0.  1.
         12    1    4    4    0    0  0.86655268913E+02 -0.94100082092E+02 -0.72213452378E+02  0.14689705165E+03  0.00000000000E+00 0. -1.
         -5    1    5    5    0  502 -0.89378668149E+01 -0.17112380630E+02  0.12913168064E+03  0.13065144461E+03  0.47000000000E+01 0.  1.
         13    1    6    6    0    0 -0.91379019819E+02  0.38315562933E+02  0.50670914311E+02  0.11129128080E+03  0.00000000000E+00 0. -1.
        -14    1    6    6    0    0 -0.27955941271E+00  0.43581362360E+02  0.24145573053E+02  0.49823909889E+02  0.00000000000E+00 0.  1.
</event>
<event>
12    1  0.8449700E-002  0.4524644E+03  0.7818608E-02  0.1027020E+00
         21   -1    0    0  503  502  0.00000000000E+00  0.00000000000E+00  0.49743176440E+03  0.49743176440E+03  0.00000000000E+00 0. -1.
         21   -1    0    0  501  503 -0.00000000000E+00 -0.00000000000E+00 -0.55914181814E+03  0.55914181814E+03  0.00000000000E+00 0.  1.
          6    2    1    2  501    0 -0.41672274590E+03 -0.37081275531E+02  0.24090171379E+03  0.51224102900E+03  0.17124359298E+03 0.  0.
         24    2    3    3    0    0 -0.28930577024E+03 -0.73813502508E+02  0.21588544453E+03  0.37721419495E+03  0.80856427477E+02 0.  0.
         -6    2    1    2    0  502  0.41672274590E+03  0.37081275531E+02 -0.30261176754E+03  0.54433255354E+03  0.17231128530E+03 0.  0.
        -24    2    5    5    0    0  0.33402569108E+03  0.57774128690E+02 -0.29899055426E+03  0.45887964116E+03  0.79146454661E+02 0.  0.
          5    1    3    3  501    0 -0.12741697567E+03  0.36732226977E+02  0.25016269255E+02  0.13502683405E+03  0.47000000000E+01 0. -1.
        -11    1    4    4    0    0 -0.92912757344E+02 -0.24556131334E+01  0.30346209900E+02  0.97773733530E+02  0.00000000000E+00 0.  1.
         12    1    4    4    0    0 -0.19639301289E+03 -0.71357889375E+02  0.18553923463E+03  0.27944046142E+03  0.00000000000E+00 0. -1.
         -5    1    5    5    0  502  0.82697054820E+02 -0.20692853158E+02 -0.36212132740E+01  0.85452912375E+02  0.47000000000E+01 0.  1.
         11    1    6    6    0    0  0.10305805533E+03  0.55433088557E+02 -0.10582404169E+03  0.15777362858E+03  0.00000000000E+00 0. -1.
        -12    1    6    6    0    0  0.23096763575E+03  0.23410401321E+01 -0.19316651257E+03  0.30110601258E+03  0.00000000000E+00 0.  1.
</event>
<event>
12    1  0.8449700E-002  0.1951961E+03  0.7818608E-02  0.1154019E+00
         21   -1    0    0  503  502  0.00000000000E+00  0.00000000000E+00  0.86517172999E+02  0.86517172999E+02  0.00000000000E+00 0.  1.
         21   -1    0    0  501  503 -0.00000000000E+00 -0.00000000000E+00 -0.53804603481E+03  0.53804603481E+03  0.00000000000E+00 0.  1.
          6    2    1    2  501    0  0.86093402878E+02  0.31280188667E+02 -0.35958887743E+03  0.40879836653E+03  0.17152673112E+03 0.  0.
         24    2    3    3    0    0  0.96288359994E+02 -0.89867592230E+01 -0.15329729956E+03  0.19831399814E+03  0.80474652477E+02 0.  0.
         -6    2    1    2    0  502 -0.86093402878E+02 -0.31280188667E+02 -0.91939984386E+02  0.21576484128E+03  0.17236873783E+03 0.  0.
        -24    2    5    5    0    0  0.14017383135E+02  0.18835905715E+02 -0.46371604739E+02  0.94800550614E+02  0.79281399436E+02 0.  0.
          5    1    3    3  501    0 -0.10194957117E+02  0.40266947890E+02 -0.20629157786E+03  0.21048436840E+03  0.47000000000E+01 0. -1.
        -11    1    4    4    0    0  0.26090923146E+02 -0.40029656542E+02 -0.72872512446E+02  0.87140763961E+02  0.00000000000E+00 0.  1.
         12    1    4    4    0    0  0.70197436848E+02  0.31042897319E+02 -0.80424787118E+02  0.11117323418E+03  0.00000000000E+00 0. -1.
         -5    1    5    5    0  502 -0.10011078601E+03 -0.50116094382E+02 -0.45568379647E+02  0.12096429066E+03  0.47000000000E+01 0.  1.
         11    1    6    6    0    0  0.22620557853E+02 -0.11357722733E+02  0.12387135661E+02  0.28180288024E+02  0.00000000000E+00 0. -1.
        -12    1    6    6    0    0 -0.86031747180E+01  0.30193628448E+02 -0.58758740400E+02  0.66620262589E+02  0.00000000000E+00 0.  1.
</event>
<event>
12    1  0.8449700E-002  0.2192805E+03  0.7818608E-02  0.1134573E+00
         21   -1    0    0  501  502  0.00000000000E+00  0.00000000000E+00  0.39312260675E+02  0.39312260675E+02  0.00000000000E+00 0. -1.
         21   -1    0    0  502  503 -0.00000000000E+00 -0.00000000000E+00 -0.12690766687E+04  0.12690766687E+04  0.00000000000E+00 0. -1.
         -6    2    1    2    0  503  0.52816826644E+02  0.12516042655E+03 -0.74644020149E+03  0.77798260129E+03  0.17213135671E+03 0.  0.
        -24    2    3    3    0    0 -0.25070089254E+02  0.34956399136E+02 -0.21615269352E+03  0.23444781001E+03  0.79958298411E+02 0.  0.
          6    2    1    2  501    0 -0.52816826644E+02 -0.12516042655E+03 -0.48332420656E+03  0.53040632811E+03  0.17109598096E+03 0.  0.
         24    2    5    5    0    0 -0.97893005221E+02 -0.76410560579E+02 -0.38107927743E+03  0.40840416895E+03  0.78427898658E+02 0.  0.
          5    1    5    5  501    0  0.45076178577E+02 -0.48749865970E+02 -0.10224492913E+03  0.12200215916E+03  0.47000000000E+01 0. -1.
        -11    1    6    6    0    0 -0.71095872784E+02 -0.86454107076E+02 -0.24514584589E+03  0.26949104162E+03  0.00000000000E+00 0.  1.
         12    1    6    6    0    0 -0.26797132436E+02  0.10043546497E+02 -0.13593343155E+03  0.13891312733E+03  0.00000000000E+00 0. -1.
         -5    1    3    3    0  503  0.77886915897E+02  0.90204027413E+02 -0.53028750797E+03  0.54353479129E+03  0.47000000000E+01 0.  1.
         11    1    4    4    0    0 -0.11743693119E+02  0.60642083410E+02 -0.14226354439E+03  0.15509446370E+03  0.00000000000E+00 0. -1.
        -12    1    4    4    0    0 -0.13326396134E+02 -0.25685684274E+02 -0.73889149135E+02  0.79353346309E+02  0.00000000000E+00 0.  1.
</event>
<event>
12    1  0.8449700E-002  0.1931583E+03  0.7818608E-02  0.1156143E+00
         21   -1    0    0  503  502  0.00000000000E+00  0.00000000000E+00  0.30982898621E+03  0.30982898621E+03  0.00000000000E+00 0.  1.
         21   -1    0    0  501  503 -0.00000000000E+00 -0.00000000000E+00 -0.17333663486E+03  0.17333663486E+03  0.00000000000E+00 0. -1.
          6    2    1    2  501    0 -0.80767052715E+02  0.32870310100E+02 -0.66709668303E+02  0.20435343387E+03  0.17235536545E+03 0.  0.
         24    2    3    3    0    0 -0.10886283608E+03  0.43865814133E+02 -0.13438873905E+02  0.14295195435E+03  0.80494292913E+02 0.  0.
         -6    2    1    2    0  502  0.80767052715E+02 -0.32870310100E+02  0.20320201966E+03  0.27881218720E+03  0.16982756210E+03 0.  0.
        -24    2    5    5    0    0  0.57900796055E+02  0.85854430538E+01  0.38800940895E+02  0.10766532085E+03  0.81609412961E+02 0.  0.
          5    1    3    3  501    0  0.28095783364E+02 -0.10995504032E+02 -0.53270794398E+02  0.61401479522E+02  0.47000000000E+01 0. -1.
        -11    1    4    4    0    0 -0.31137449552E+02  0.44656209159E+02  0.20452584860E+02  0.58155189008E+02  0.00000000000E+00 0.  1.
         12    1    4    4    0    0 -0.77725386527E+02 -0.79039502619E+00 -0.33891458765E+02  0.84796765341E+02  0.00000000000E+00 0. -1.
         -5    1    5    5    0  502  0.22866256660E+02 -0.41455753154E+02  0.16440107876E+03  0.17114686635E+03  0.47000000000E+01 0.  1.
         11    1    6    6    0    0 -0.80850145294E+01  0.27477113104E+02  0.24190737012E+02  0.37490678330E+02  0.00000000000E+00 0. -1.
        -12    1    6    6    0    0  0.65985810585E+02 -0.18891670050E+02  0.14610203883E+02  0.70174642523E+02  0.00000000000E+00 0.  1.
</event>
<event>
12    1  0.8449700E-002  0.1855187E+03  0.7818608E-02  0.1164670E+00
         21   -1    0    0  503  502  0.00000000000E+00  0.00000000000E+00  0.59658046985E+03  0.59658046985E+03  0.00000000000E+00 0. -1.
         21   -1    0    0  501  503 -0.00000000000E+00 -0.00000000000E+00 -0.55767731458E+02  0.55767731458E+02  0.00000000000E+00 0. -1.
          6    2    1    2  501    0  0.47629856669E+02 -0.10616446960E+02  0.22523475986E+03  0.28627901836E+03  0.16983423422E+03 0.  0.
         24    2    3    3    0    0  0.42588170071E+01 -0.49891969655E+01  0.22765139757E+03  0.24222628676E+03  0.82494760862E+02 0.  0.
         -6    2    1    2    0  502 -0.47629856669E+02  0.10616446960E+02  0.31557797853E+03  0.36606918294E+03  0.17898568092E+03 0.  0.
        -24    2    5    5    0    0  0.40695405718E+02  0.23818850000E+02  0.15244496672E+03  0.18003121649E+03  0.83356567641E+02 0.  0.
          5    1    3    3  501    0  0.43371039661E+02 -0.56272499947E+01 -0.24166377184E+01  0.44052731603E+02  0.47000000000E+01 0. -1.
        -11    1    4    4    0    0 -0.19457105997E+02  0.29624839410E+02  0.62724576273E+02  0.72045697668E+02  0.00000000000E+00 0.  1.
         12    1    4    4    0    0  0.23715923004E+02 -0.34614036375E+02  0.16492682130E+03  0.17018058909E+03  0.00000000000E+00 0. -1.
         -5    1    5    5    0  502 -0.88325262386E+02 -0.13202403040E+02  0.16313301181E+03  0.18603796646E+03  0.47000000000E+01 0.  1.
         13    1    6    6    0    0 -0.21768083206E+02  0.14105454180E+02  0.78889641136E+02  0.83044498690E+02  0.00000000000E+00 0. -1.
        -14    1    6    6    0    0  0.62463488924E+02  0.97133958197E+01  0.73555325586E+02  0.96986717797E+02  0.00000000000E+00 0.  1.
</event>
<event>
12    1  0.8449700E-002  0.2965748E+03  0.7818608E-02  0.1087283E+00
         21   -1    0    0  501  502  0.00000000000E+00  0.00000000000E+00  0.37029219731E+03  0.37029219731E+03  0.00000000000E+00 0.  1.
         21   -1    0    0  502  503 -0.00000000000E+00 -0.00000000000E+00 -0.28577189509E+03  0.28577189509E+03  0.00000000000E+00 0. -1.
         -6    2    1    2    0  503 -0.77410481983E+02 -0.22732898640E+03 -0.95418149527E+02  0.30917154222E+03  0.16973970803E+03 0.  0.
        -24    2    3    3    0    0 -0.48483617462E+02 -0.22102059383E+03 -0.12227545680E+03  0.26892276259E+03  0.78532801055E+02 0.  0.
          6    2    1    2  501    0  0.77410481983E+02  0.22732898640E+03  0.17993845175E+03  0.34689255018E+03  0.17402799824E+03 0.  0.
         24    2    5    5    0    0  0.65915916490E+02  0.23853637239E+03  0.19475437053E+03  0.32454681264E+03  0.78465659712E+02 0.  0.
          5    1    5    5  501    0  0.11494565494E+02 -0.11207385995E+02 -0.14815918779E+02  0.22345737535E+02  0.47000000000E+01 0. -1.
        -13    1    6    6    0    0  0.22844234106E+02  0.17056558917E+03  0.16597627813E+03  0.23908702211E+03  0.00000000000E+00 0.  1.
         14    1    6    6    0    0  0.43071682383E+02  0.67970783229E+02  0.28778092406E+02  0.85459790536E+02  0.00000000000E+00 0. -1.
         -5    1    3    3    0  503 -0.28926864521E+02 -0.63083925672E+01  0.26857307277E+02  0.40248779633E+02  0.47000000000E+01 0.  1.
         13    1    4    4    0    0 -0.26447658991E+02 -0.86597573691E+02 -0.92596959571E+02  0.12950990447E+03  0.00000000000E+00 0. -1.
        -14    1    4    4    0    0 -0.22035958471E+02 -0.13442302014E+03 -0.29678497233E+02  0.13941285811E+03  0.00000000000E+00 0.  1.
</event>
<event>
12    1  0.8449700E-002  0.2896377E+03  0.7818608E-02  0.1090867E+00
         21   -1    0    0  501  502  0.00000000000E+00  0.00000000000E+00  0.55030951223E+03  0.55030951223E+03  0.00000000000E+00 0.  1.
         21   -1    0    0  502  503 -0.00000000000E+00 -0.00000000000E+00 -0.17673476249E+03  0.17673476249E+03  0.00000000000E+00 0. -1.
         -6    2    1    2    0  503  0.10414477758E+03 -0.20693689802E+03  0.47722941171E+02  0.29107481258E+03  0.16964095302E+03 0.  0.
        -24    2    3    3    0    0  0.12856846913E+03 -0.11951339916E+03  0.62193445652E+01  0.19115472754E+03  0.75419797007E+02 0.  0.
          6    2    1    2  501    0 -0.10414477758E+03  0.20693689802E+03  0.32585180857E+03  0.43596946214E+03  0.17384175653E+03 0.  0.
         24    2    5    5    0    0 -0.68518304806E+02  0.21486085724E+03  0.22375837372E+03  0.32744668052E+03  0.79332040852E+02 0.  0.
          5    1    5    5  501    0 -0.35626472776E+02 -0.79239592215E+01  0.10209343485E+03  0.10852278162E+03  0.47000000000E+01 0. -1.
        -13    1    6    6    0    0 -0.43465414452E+02  0.81434645862E+02  0.44203708560E+02  0.10234652730E+03  0.00000000000E+00 0.  1.
         14    1    6    6    0    0 -0.25052890354E+02  0.13342621138E+03  0.17955466516E+03  0.22510015322E+03  0.00000000000E+00 0. -1.
         -5    1    3    3    0  503 -0.24423691552E+02 -0.87423498864E+02  0.41503596606E+02  0.99920085037E+02  0.47000000000E+01 0.  1.
         11    1    4    4    0    0  0.78947177503E+02 -0.11402368777E+03 -0.89544274631E+01  0.13897568125E+03  0.00000000000E+00 0. -1.
        -12    1    4    4    0    0  0.49621291630E+02 -0.54897113906E+01  0.15173772028E+02  0.52179046290E+02  0.00000000000E+00 0.  1.
</event>
<event>
12    1  0.8449700E-002  0.2781337E+03  0.7818608E-02  0.1096716E+00
         21   -1    0    0  503  502  0.00000000000E+00  0.00000000000E+00  0.23520284097E+03  0.23520284097E+03  0.00000000000E+00 0.  1.
         21   -1    0    0  501  503 -0.00000000000E+00 -0.00000000000E+00 -0.35045491032E+03  0.35045491032E+03  0.00000000000E+00 0. -1.
          6    2    1    2  501    0  0.95692777557E+02 -0.19706551922E+03  0.15044440796E+02  0.27854028404E+03  0.17136635635E+03 0.  0.
         24    2    3    3    0    0 -0.17756363841E+02 -0.10529744764E+03  0.74880446012E+01  0.13235110602E+03  0.77832535076E+02 0.  0.
         -6    2    1    2    0  502 -0.95692777557E+02  0.19706551922E+03 -0.13029651014E+03  0.30711746725E+03  0.17132434618E+03 0.  0.
        -24    2    5    5    0    0 -0.54540115561E+02  0.38710090205E+02 -0.57858536559E+01  0.10146004077E+03  0.76076070359E+02 0.  0.
          5    1    3    3  501    0  0.11344914140E+03 -0.91768071585E+02  0.75563961952E+01  0.14618917802E+03  0.47000000000E+01 0. -1.
        -13    1    4    4    0    0  0.82528124095E+01 -0.99613800908E+02  0.21536553210E+02  0.10224891866E+03  0.00000000000E+00 0.  1.
         14    1    4    4    0    0 -0.26009176250E+02 -0.56836467318E+01 -0.14048508609E+02  0.30102187355E+02  0.00000000000E+00 0. -1.
         -5    1    5    5    0  502 -0.41152661996E+02  0.15835542902E+03 -0.12451065649E+03  0.20565742648E+03  0.47000000000E+01 0.  1.
         11    1    6    6    0    0 -0.37001997484E+02  0.29993672201E+02 -0.39892501103E+02  0.62130345517E+02  0.00000000000E+00 0. -1.
        -12    1    6    6    0    0 -0.17538118077E+02  0.87164180045E+01  0.34106647447E+02  0.39329695252E+02  0.00000000000E+00 0.  1.
</event>
<event>
12    1  0.8449700E-002  0.2487272E+03  0.7818608E-02  0.1114892E+00
         21   -1    0    0  501  502  0.00000000000E+00  0.00000000000E+00  0.18083339489E+03  0.18083339489E+03  0.00000000000E+00 0.  1.
         21   -1    0    0  502  503 -0.00000000000E+00 -0.00000000000E+00 -0.38200092217E+03  0.38200092217E+03  0.00000000000E+00 0.  1.
         -6    2    1    2    0  503  0.69953225257E+02 -0.15862412707E+03 -0.19966633688E+03  0.31895434016E+03  0.17835402325E+03 0.  0.
        -24    2    3    3    0    0  0.11683423615E+02 -0.76449089848E+02 -0.19950251016E+02  0.11287651980E+03  0.79762964339E+02 0.  0.
          6    2    1    2  501    0 -0.69953225257E+02  0.15862412707E+03 -0.15011904026E+01  0.24387997690E+03  0.17152294933E+03 0.  0.
         24    2    5    5    0    0 -0.75809314630E+02  0.10319649361E+03 -0.61288434925E+02  0.16200738721E+03  0.78061211737E+02 0.  0.
          5    1    5    5  501    0  0.58560893726E+01  0.55427633469E+02  0.59787244523E+02  0.81872589688E+02  0.47000000000E+01 0. -1.
        -11    1    6    6    0    0 -0.61905900802E+02  0.11494181082E+03 -0.46602955189E+02  0.13862105129E+03  0.00000000000E+00 0.  1.
         12    1    6    6    0    0 -0.13903413827E+02 -0.11745317216E+02 -0.14685479736E+02  0.23386335918E+02  0.00000000000E+00 0. -1.
         -5    1    3    3    0  503  0.58269801642E+02 -0.82175037227E+02 -0.17971608587E+03  0.20607782037E+03  0.47000000000E+01 0.  1.
         13    1    4    4    0    0  0.25624093706E+02 -0.77982719453E+02 -0.37638766516E+02  0.90302687980E+02  0.00000000000E+00 0. -1.
        -14    1    4    4    0    0 -0.13940670091E+02  0.15336296053E+01  0.17688515500E+02  0.22573831818E+02  0.00000000000E+00 0.  1.
</event>
<event>
12    1  0.8449700E-002  0.1820826E+03  0.7818608E-02  0.1166563E+00
         21   -1    0    0  503  502  0.00000000000E+00  0.00000000000E+00  0.33374964069E+03  0.33374964069E+03  0.00000000000E+00 0. -1.
         21   -1    0    0  501  503 -0.00000000000E+00 -0.00000000000E+00 -0.10808064112E+03  0.10808064112E+03  0.00000000000E+00 0. -1.
          6    2    1    2  501    0 -0.39195018897E+02 -0.33047613712E+02  0.18245108019E+03  0.25776437500E+03  0.17471600406E+03 0.  0.
         24    2    3    3    0    0 -0.14761555766E+02  0.32926214167E+02  0.16412855998E+03  0.18491284905E+03  0.77152695576E+02 0.  0.
         -6    2    1    2    0  502  0.39195018897E+02  0.33047613712E+02  0.43217919383E+02  0.18406590682E+03  0.17141783810E+03 0.  0.
        -24    2    5    5    0    0  0.90307635925E+02  0.80181731363E+01  0.91466840411E+01  0.11756845128E+03  0.74289425234E+02 0.  0.
          5    1    3    3  501    0 -0.24433463131E+02 -0.65973827879E+02  0.18322520206E+02  0.72851525943E+02  0.47000000000E+01 0. -1.
        -13    1    4    4    0    0  0.18559808580E+02  0.15266177090E+01  0.11961492917E+03  0.12105588931E+03  0.00000000000E+00 0.  1.
         14    1    4    4    0    0 -0.33321364346E+02  0.31399596458E+02  0.44513630816E+02  0.63856959746E+02  0.00000000000E+00 0. -1.
         -5    1    5    5    0  502 -0.51112617027E+02  0.25029440576E+02  0.34071235342E+02  0.66497455535E+02  0.47000000000E+01 0.  1.
         11    1    6    6    0    0  0.10738854001E+02  0.26336775532E+02 -0.15353678474E+02  0.32321574426E+02  0.00000000000E+00 0. -1.
        -12    1    6    6    0    0  0.79568781924E+02 -0.18318602396E+02  0.24500362515E+02  0.85246876858E+02  0.00000000000E+00 0.  1.
</event>
<event>
12    1  0.8449700E-002  0.3310591E+03  0.7818608E-02  0.1070730E+00
         21   -1    0    0  501  502  0.00000000000E+00  0.00000000000E+00  0.53249107074E+03  0.53249107074E+03  0.00000000000E+00 0. -1.
         21   -1    0    0  502  503 -0.00000000000E+00 -0.00000000000E+00 -0.57262847458E+03  0.57262847458E+03  0.00000000000E+00 0.  1.
         -6    2    1    2    0  503 -0.21409600976E+03 -0.18484440138E+03 -0.46252169919E+03  0.56879382966E+03  0.17203355581E+03 0.  0.
        -24    2    3    3    0    0 -0.43718840922E+02 -0.56422918615E+02 -0.97495002851E+02  0.14596166918E+03  0.81881930197E+02 0.  0.
          6    2    1    2  501    0  0.21409600976E+03  0.18484440138E+03  0.42238429535E+03  0.53632571565E+03  0.17097434366E+03 0.  0.
         24    2    5    5    0    0  0.18050988149E+03  0.13138752116E+03  0.40701362258E+03  0.47117962110E+03  0.80645200317E+02 0.  0.
          5    1    5    5  501    0  0.33586128272E+02  0.53456880214E+02  0.15370672771E+02  0.65146094556E+02  0.47000000000E+01 0. -1.
        -13    1    6    6    0    0  0.15547445323E+03  0.13738734050E+03  0.32833325126E+03  0.38839452986E+03  0.00000000000E+00 0.  1.
         14    1    6    6    0    0  0.25035428259E+02 -0.59998193404E+01  0.78680371319E+02  0.82785091237E+02  0.00000000000E+00 0. -1.
         -5    1    3    3    0  503 -0.17037716884E+03 -0.12842148276E+03 -0.36502669634E+03  0.42283216048E+03  0.47000000000E+01 0.  1.
         13    1    4    4    0    0 -0.59300523656E+02 -0.20815117655E+02 -0.83806815649E+02  0.10475401462E+03  0.00000000000E+00 0. -1.
        -14    1    4    4    0    0  0.15581682734E+02 -0.35607800959E+02 -0.13688187202E+02  0.41207654566E+02  0.00000000000E+00 0.  1.
</event>
<event>
12    1  0.8449700E-002  0.1986599E+03  0.7818608E-02  0.1151109E+00
         21   -1    0    0  501  502  0.00000000000E+00  0.00000000000E+00  0.74388206518E+03  0.74388206518E+03  0.00000000000E+00 0.  1.
         21   -1    0    0  502  503 -0.00000000000E+00 -0.00000000000E+00 -0.10629027860E+03  0.10629027860E+03  0.00000000000E+00 0.  1.
         -6    2    1    2    0  503 -0.20552579364E+02  0.97082428002E+02  0.16689821258E+02  0.19826361475E+03  0.17082887477E+03 0.  0.
        -24    2    3    3    0    0  0.18795954544E+02  0.46644737757E+01  0.46414125800E+02  0.93406523120E+02  0.78711258818E+02 0.  0.
          6    2    1    2  501    0  0.20552579364E+02 -0.97082428002E+02  0.62090196532E+03  0.65190872903E+03  0.17209977951E+03 0.  0.
         24    2    5    5    0    0 -0.25019830412E+01  0.33520911844E+01  0.40089934746E+03  0.40892344685E+03  0.80502187284E+02 0.  0.
          5    1    5    5  501    0  0.23054562405E+02 -0.10043451919E+03  0.22000261786E+03  0.24298528218E+03  0.47000000000E+01 0. -1.
        -11    1    6    6    0    0 -0.32203744000E+02  0.14010711223E+01  0.74561417126E+02  0.81230838059E+02  0.00000000000E+00 0.  1.
         12    1    6    6    0    0  0.29701760959E+02  0.19510200621E+01  0.32633793033E+03  0.32769260879E+03  0.00000000000E+00 0. -1.
         -5    1    3    3    0  503 -0.39348533908E+02  0.92417954227E+02 -0.29724304543E+02  0.10485709163E+03  0.47000000000E+01 0.  1.
         13    1    4    4    0    0 -0.15903164181E+02 -0.82489356179E+01  0.52870807582E+02  0.55823631772E+02  0.00000000000E+00 0. -1.
        -14    1    4    4    0    0  0.34699118725E+02  0.12913409394E+02 -0.64566817821E+01  0.37582891348E+02  0.00000000000E+00 0.  1.
</event>
<event>
12    1  0.8449700E-002  0.2566564E+03  0.7818608E-02  0.1109289E+00
         21   -1    0    0  503  502  0.00000000000E+00  0.00000000000E+00  0.98483651586E+03  0.98483651586E+03  0.00000000000E+00 0.  1.
         21   -1    0    0  501  503 -0.00000000000E+00 -0.00000000000E+00 -0.80592655173E+02  0.80592655173E+02  0.00000000000E+00 0.  1.
          6    2    1    2  501    0  0.17297647057E+03 -0.75767460750E+02  0.23137821175E+03  0.34555518675E+03  0.17381295331E+03 0.  0.
         24    2    3    3    0    0  0.12541108173E+03 -0.82039571493E+02  0.82378654378E+02  0.18895134361E+03  0.80361289462E+02 0.  0.
         -6    2    1    2    0  502 -0.17297647057E+03  0.75767460750E+02  0.67286564894E+03  0.71987398429E+03  0.17265226396E+03 0.  0.
        -24    2    5    5    0    0 -0.34913241956E+02  0.20322318048E+02  0.39131986391E+03  0.40139990683E+03  0.79741571571E+02 0.  0.
          5    1    3    3  501    0  0.47565388842E+02  0.62721107428E+01  0.14899955737E+03  0.15660384314E+03  0.47000000000E+01 0. -1.
        -11    1    4    4    0    0  0.12130065193E+03 -0.93600998719E+02  0.62252103037E+02  0.16537931991E+03  0.00000000000E+00 0.  1.
         12    1    4    4    0    0  0.41104297973E+01  0.11561427227E+02  0.20126551341E+02  0.23572023704E+02  0.00000000000E+00 0. -1.
         -5    1    5    5    0  502 -0.13806322861E+03  0.55445142702E+02  0.28154578504E+03  0.31847407746E+03  0.47000000000E+01 0.  1.
         13    1    6    6    0    0  0.54579608918E+01 -0.21115171834E+02  0.20867780925E+03  0.20981436531E+03  0.00000000000E+00 0. -1.
        -14    1    6    6    0    0 -0.40371202848E+02  0.41437489881E+02  0.18264205466E+03  0.19158554151E+03  0.00000000000E+00 0.  1.
</event>
<event>
12    1  0.8449700E-002  0.1742775E+03  0.7818608E-02  0.1173565E+00
         21   -1    0    0  503  502  0.00000000000E+00  0.00000000000E+00  0.59432056477E+02  0.59432056477E+02  0.00000000000E+00 0. -1.
         21   -1    0    0  501  503 -0.00000000000E+00 -0.00000000000E+00 -0.52443714080E+03  0.52443714080E+03  0.00000000000E+00 0. -1.
          6    2    1    2  501    0  0.24590793389E+02 -0.13669171211E+01 -0.18404228886E+03  0.25346441642E+03  0.17252846351E+03 0.  0.
         24    2    3    3    0    0  0.59835879340E+02  0.39336505835E+02 -0.71585162663E+02  0.12869390726E+03  0.79435465029E+02 0.  0.
         -6    2    1    2    0  502 -0.24590793389E+02  0.13669171211E+01 -0.28096279546E+03  0.33040478085E+03  0.17210651119E+03 0.  0.
        -24    2    5    5    0    0 -0.44192463857E+02 -0.54189410420E+02 -0.13150711436E+03  0.16968819294E+03  0.81304954552E+02 0.  0.
          5    1    3    3  501    0 -0.35245085951E+02 -0.40703422956E+02 -0.11245712620E+03  0.12477050916E+03  0.47000000000E+01 0. -1.
        -11    1    4    4    0    0  0.18042783854E+02  0.17831700824E+02  0.15504616004E+02  0.29730535160E+02  0.00000000000E+00 0.  1.
         12    1    4    4    0    0  0.41793095486E+02  0.21504805011E+02 -0.87089778667E+02  0.98963372098E+02  0.00000000000E+00 0. -1.
         -5    1    5    5    0  502  0.19601670468E+02  0.55556327541E+02 -0.14945568110E+03  0.16071658791E+03  0.47000000000E+01 0.  1.
         13    1    6    6    0    0 -0.52733562917E+02 -0.10499844410E+02 -0.37142208244E+02  0.65349973403E+02  0.00000000000E+00 0. -1.
        -14    1    6    6    0    0  0.85410990601E+01 -0.43689566009E+02 -0.94364906113E+02  0.10433821954E+03  0.00000000000E+00 0.  1.
</event>
<event>
12    1  0.8449700E-002  0.1794240E+03  0.7818608E-02  0.1168992E+00
         21   -1    0    0  503  502  0.00000000000E+00  0.00000000000E+00  0.24312138037E+03  0.24312138037E+03  0.00000000000E+00 0.  1.
         21   -1    0    0  501  503 -0.00000000000E+00 -0.00000000000E+00 -0.13923383505E+03  0.13923383505E+03  0.00000000000E+00 0.  1.
          6    2    1    2  501    0 -0.38862120308E+02  0.22203184432E+02  0.99414226797E+02  0.20287548826E+03  0.17109070533E+03 0.  0.
         24    2    3    3    0    0 -0.72168643581E+02  0.62726197481E+02  0.82122855428E+02  0.14744516620E+03  0.76505063142E+02 0.  0.
         -6    2    1    2    0  502  0.38862120308E+02 -0.22203184432E+02  0.44733185252E+01  0.17947972716E+03  0.17375188082E+03 0.  0.
        -24    2    5    5    0    0  0.75409629179E+02  0.19212412368E+02  0.34064653251E+02  0.11664097197E+03  0.79931137725E+02 0.  0.
          5    1    3    3  501    0  0.33306523273E+02 -0.40523013049E+02  0.17291371369E+02  0.55430322053E+02  0.47000000000E+01 0. -1.
        -11    1    4    4    0    0 -0.72572075140E+02  0.31394831031E+02  0.26123162687E+02  0.83275213206E+02  0.00000000000E+00 0.  1.
         12    1    4    4    0    0  0.40343155983E+00  0.31331366450E+02  0.55999692741E+02  0.64169952998E+02  0.00000000000E+00 0. -1.
         -5    1    5    5    0  502 -0.36547508871E+02 -0.41415596800E+02 -0.29591334726E+02  0.62838755190E+02  0.47000000000E+01 0.  1.
         13    1    6    6    0    0 -0.12887680298E+02  0.13194338980E+02  0.19689655373E+02  0.26978980954E+02  0.00000000000E+00 0. -1.
        -14    1    6    6    0    0  0.88297309477E+02  0.60180733878E+01  0.14374997878E+02  0.89661991012E+02  0.00000000000E+00 0.  1.
</event>
<event>
12    1  0.8449700E-002  0.1888874E+03  0.7818608E-02  0.1159809E+00
         21   -1    0    0  503  502  0.00000000000E+00  0.00000000000E+00  0.47866607679E+03  0.47866607679E+03  0.00000000000E+00 0.  1.
         21   -1    0    0  501  503 -0.00000000000E+00 -0.00000000000E+00 -0.92155744963E+02  0.92155744963E+02  0.00000000000E+00 0.  1.
          6    2    1    2  501    0 -0.33364731788E+02  0.65330706239E+02  0.65783455881E+02  0.19860658765E+03  0.17244073499E+03 0.  0.
         24    2    3    3    0    0 -0.21840471283E+01  0.53404190921E+02  0.10834763259E+03  0.14430855819E+03  0.78923841833E+02 0.  0.
         -6    2    1    2    0  502  0.33364731788E+02 -0.65330706239E+02  0.32072687595E+03  0.37221523411E+03  0.17406075101E+03 0.  0.
        -24    2    5    5    0    0  0.21311669577E+02 -0.33952996073E+02  0.32968089901E+03  0.33711393025E+03  0.57873254535E+02 0.  0.
          5    1    3    3  501    0 -0.31180684659E+02  0.11926515318E+02 -0.42564176712E+02  0.54298029454E+02  0.47000000000E+01 0. -1.
        -13    1    4    4    0    0  0.38841335765E+01 -0.17610450923E+02  0.46743150607E+02  0.50101263498E+02  0.00000000000E+00 0.  1.
         14    1    4    4    0    0 -0.60681807048E+01  0.71014641843E+02  0.61604481985E+02  0.94207294696E+02  0.00000000000E+00 0. -1.
         -5    1    5    5    0  502  0.12053062210E+02 -0.31377710166E+02 -0.89540230609E+01  0.35101303863E+02  0.47000000000E+01 0.  1.
         11    1    6    6    0    0  0.12270590137E+02  0.13482611564E+02  0.14824733617E+03  0.14936405485E+03  0.00000000000E+00 0. -1.
        -12    1    6    6    0    0  0.90410794400E+01 -0.47435607638E+02  0.18143356284E+03  0.18774987540E+03  0.00000000000E+00 0.  1.
</event>
<event>
12    1  0.8449700E-002  0.2232602E+03  0.7818608E-02  0.1131577E+00
         21   -1    0    0  501  502  0.00000000000E+00  0.00000000000E+00  0.23346320959E+03  0.23346320959E+03  0.00000000000E+00 0. -1.
         21   -1    0    0  502  503 -0.00000000000E+00 -0.00000000000E+00 -0.39313861483E+03  0.39313861483E+03  0.00000000000E+00 0.  1.
         -6    2    1    2    0  503 -0.13956442676E+03 -0.21917068285E+02  0.13220147435E+03  0.25946549842E+03  0.17287720483E+03 0.  0.
        -24    2    3    3    0    0 -0.28947081768E+02  0.43043370661E+01  0.11726531383E+03  0.14470950510E+03  0.79581569330E+02 0.  0.
          6    2    1    2  501    0  0.13956442676E+03  0.21917068285E+02 -0.29187687960E+03  0.36713632600E+03  0.17215801441E+03 0.  0.
         24    2    5    5    0    0  0.11699479051E+03  0.48092299551E+02 -0.11892928053E+03  0.19070647242E+03  0.78893184578E+02 0.  0.
          5    1    5    5  501    0  0.22569636255E+02 -0.26175231265E+02 -0.17294759907E+03  0.17642985358E+03  0.47000000000E+01 0. -1.
        -11    1    6    6    0    0  0.10417142390E+03  0.53299975043E+02 -0.12856402924E+03  0.17384269473E+03  0.00000000000E+00 0.  1.
         12    1    6    6    0    0  0.12823366605E+02 -0.52076754920E+01  0.96347487103E+01  0.16863777686E+02  0.00000000000E+00 0. -1.
         -5    1    3    3    0  503 -0.11061734499E+03 -0.26221405352E+02  0.14936160519E+02  0.11475599332E+03  0.47000000000E+01 0.  1.
         13    1    4    4    0    0 -0.28534295053E+02  0.31551849022E+02  0.26917798193E+02  0.50341762290E+02  0.00000000000E+00 0. -1.
        -14    1    4    4    0    0 -0.41278671493E+00 -0.27247511956E+02  0.90347515638E+02  0.94367742807E+02  0.00000000000E+00 0.  1.
</event>
<event>
12    1  0.8449700E-002  0.1739811E+03  0.7818608E-02  0.1173978E+00
         21   -1    0    0  503  502  0.00000000000E+00  0.00000000000E+00  0.31162861068E+03  0.31162861068E+03  0.00000000000E+00 0.  1.
         21   -1    0    0  501  503 -0.00000000000E+00 -0.00000000000E+00 -0.10751969625E+03  0.10751969625E+03  0.00000000000E+00 0.  1.
          6    2    1    2  501    0 -0.21912144521E+02  0.12638068162E+02  0.35651305032E+02  0.17759631671E+03  0.17213242958E+03 0.  0.
         24    2    3    3    0    0  0.19592798714E+01 -0.58275386099E+02  0.18972024398E+02  0.10079233699E+03  0.79995612905E+02 0.  0.
         -6    2    1    2    0  502  0.21912144521E+02 -0.12638068162E+02  0.16845760940E+03  0.24155199023E+03  0.17125867853E+03 0.  0.
        -24    2    5    5    0    0 -0.50655795959E+02  0.11285538827E+02  0.94653274667E+02  0.13521472121E+03  0.81427301165E+02 0.  0.
          5    1    3    3  501    0 -0.23871424392E+02  0.70913454262E+02  0.16679280634E+02  0.76803979717E+02  0.47000000000E+01 0. -1.
        -11    1    4    4    0    0 -0.29662853111E+02 -0.26501840148E+02  0.35202108473E+02  0.53117048364E+02  0.00000000000E+00 0.  1.
         12    1    4    4    0    0  0.31622132983E+02 -0.31773545951E+02 -0.16230084075E+02  0.47675288628E+02  0.00000000000E+00 0. -1.
         -5    1    5    5    0  502  0.72567940480E+02 -0.23923606990E+02  0.73804334735E+02  0.10633726902E+03  0.47000000000E+01 0.  1.
         11    1    6    6    0    0 -0.10435805936E+02 -0.31462914641E+02  0.55544884544E+02  0.64684273531E+02  0.00000000000E+00 0. -1.
        -12    1    6    6    0    0 -0.40219990023E+02  0.42748453468E+02  0.39108390123E+02  0.70530447676E+02  0.00000000000E+00 0.  1.
</event>
<event>
12    1  0.8449700E-002  0.2046443E+03  0.7818608E-02  0.1146182E+00
         21   -1    0    0  501  502  0.00000000000E+00  0.00000000000E+00  0.37678220138E+03  0.37678220138E+03  0.00000000000E+00 0. -1.
         21   -1    0    0  502  503 -0.00000000000E+00 -0.00000000000E+00 -0.11738492551E+03  0.11738492551E+03  0.00000000000E+00 0. -1.
         -6    2    1    2    0  503 -0.10571712924E+03 -0.27415466885E+02  0.19063009153E+03  0.27967679561E+03  0.17306518703E+03 0.  0.
        -24    2    3    3    0    0 -0.76584068823E+02  0.38634774112E+02  0.16721374929E+03  0.20363874836E+03  0.78425356323E+02 0.  0.
          6    2    1    2  501    0  0.10571712924E+03  0.27415466885E+02  0.68767184331E+02  0.21449033128E+03  0.17131683319E+03 0.  0.
         24    2    5    5    0    0  0.12663558951E+01  0.44643161827E+02  0.91125248917E+01  0.92886359648E+02  0.80933442677E+02 0.  0.
          5    1    5    5  501    0  0.10445077334E+03 -0.17227694941E+02  0.59654659440E+02  0.12160397164E+03  0.47000000000E+01 0. -1.
        -13    1    6    6    0    0  0.56898314150E+01  0.62700143565E+02  0.25671161837E+02  0.67990372367E+02  0.00000000000E+00 0.  1.
         14    1    6    6    0    0 -0.44234755198E+01 -0.18056981738E+02 -0.16558636945E+02  0.24895987280E+02  0.00000000000E+00 0. -1.
         -5    1    3    3    0  503 -0.29133060414E+02 -0.66050240997E+02  0.23416342246E+02  0.76038047246E+02  0.47000000000E+01 0.  1.
         13    1    4    4    0    0 -0.45297769791E+02  0.62236362458E+02  0.11385243892E+03  0.13743227644E+03  0.00000000000E+00 0. -1.
        -14    1    4    4    0    0 -0.31286299032E+02 -0.23601588346E+02  0.53361310369E+02  0.66206471918E+02  0.00000000000E+00 0.  1.
</event>
<event>
12    1  0.8449700E-002  0.2390319E+03  0.7818608E-02  0.1120587E+00
         21   -1    0    0  501  502  0.00000000000E+00  0.00000000000E+00  0.56472489719E+03  0.56472489719E+03  0.00000000000E+00 0. -1.
         21   -1    0    0  502  503 -0.00000000000E+00 -0.00000000000E+00 -0.10259450855E+03  0.10259450855E+03  0.00000000000E+00 0. -1.
         -6    2    1    2    0  503 -0.16439544082E+03 -0.71443254302E+01  0.27473083815E+03  0.36358456430E+03  0.17216213177E+03 0.  0.
        -24    2    3    3    0    0 -0.95149784764E+02 -0.64719467362E+02  0.11939468545E+03  0.18397034385E+03  0.79673744148E+02 0.  0.
          6    2    1    2  501    0  0.16439544082E+03  0.71443254302E+01  0.18739955050E+03  0.30373484144E+03  0.17337635373E+03 0.  0.
         24    2    5    5    0    0  0.89641812205E+02  0.48467190334E+02  0.44260934049E+02  0.13698221726E+03  0.80127239607E+02 0.  0.
          5    1    5    5  501    0  0.74753628616E+02 -0.41322864904E+02  0.14313861645E+03  0.16675262419E+03  0.47000000000E+01 0. -1.
        -13    1    6    6    0    0  0.35152868446E+02 -0.10922569089E+02 -0.11968381431E+02  0.38707477696E+02  0.00000000000E+00 0.  1.
         14    1    6    6    0    0  0.54488943759E+02  0.59389759422E+02  0.56229315480E+02  0.98274739560E+02  0.00000000000E+00 0. -1.
         -5    1    3    3    0  503 -0.69245656057E+02  0.57575141932E+02  0.15533615270E+03  0.17961422045E+03  0.47000000000E+01 0.  1.
         11    1    4    4    0    0 -0.10625813367E+03 -0.52933037555E+02  0.11852261481E+03  0.16775073072E+03  0.00000000000E+00 0. -1.
        -12    1    4    4    0    0  0.11108348902E+02 -0.11786429808E+02  0.87207063728E+00  0.16219613131E+02  0.00000000000E+00 0.  1.
</event>
<event>
12    1  0.8449700E-002  0.1815181E+03  0.7818608E-02  0.1167086E+00
         21   -1    0    0  501  502  0.00000000000E+00  0.00000000000E+00  0.59041612283E+03  0.59041612283E+03  0.00000000000E+00 0.  1.
         21   -1    0    0  502  503 -0.00000000000E+00 -0.00000000000E+00 -0.68795822622E+02  0.68795822622E+02  0.00000000000E+00 0. -1.
         -6    2    1    2    0  503 -0.51237433727E+02  0.13480012643E+02  0.11426407443E+03  0.21448799973E+03  0.17361404888E+03 0.  0.
        -24    2    3    3    0    0 -0.10209944994E+03  0.12393534100E+02  0.75675545588E+02  0.15046230421E+03  0.79587809513E+02 0.  0.
          6    2    1    2  501    0  0.51237433727E+02 -0.13480012643E+02  0.40735622578E+03  0.44472394572E+03  0.17039163084E+03 0.  0.
         24    2    5    5    0    0  0.66300496775E+02 -0.35239243763E+02  0.40456980841E+03  0.41770147120E+03  0.71834733894E+02 0.  0.
          5    1    5    5  501    0 -0.15063063048E+02  0.21759231121E+02  0.27864173688E+01  0.27022474518E+02  0.47000000000E+01 0. -1.
        -13    1    6    6    0    0  0.11470028127E+02 -0.43599007422E+02  0.13026889500E+03  0.13784926550E+03  0.00000000000E+00 0.  1.
         14    1    6    6    0    0  0.54830468648E+02  0.83597636582E+01  0.27430091341E+03  0.27985220570E+03  0.00000000000E+00 0. -1.
         -5    1    3    3    0  503  0.50862016213E+02  0.10864785431E+01  0.38588528843E+02  0.64025695522E+02  0.47000000000E+01 0.  1.
         13    1    4    4    0    0 -0.20070947016E+01  0.11096429977E+02 -0.12663092047E+02  0.16956210884E+02  0.00000000000E+00 0. -1.
        -14    1    4    4    0    0 -0.10009235524E+03  0.12971041229E+01  0.88338637635E+02  0.13350609333E+03  0.00000000000E+00 0.  1.
</event>
<event>
12    1  0.8449700E-002  0.1875511E+03  0.7818608E-02  0.1160898E+00
         21   -1    0    0  503  502  0.00000000000E+00  0.00000000000E+00  0.14982436422E+03  0.14982436422E+03  0.00000000000E+00 0.  1.
         21   -1    0    0  501  503 -0.00000000000E+00 -0.00000000000E+00 -0.35764369501E+03  0.35764369501E+03  0.00000000000E+00 0.  1.
          6    2    1    2  501    0  0.29530524639E+02  0.66169666642E+02 -0.25315080481E+03  0.31451632240E+03  0.17200206515E+03 0.  0.
         24    2    3    3    0    0  0.49821898332E+02 -0.10435227529E+02 -0.19188688602E+03  0.21423966808E+03  0.80541559616E+02 0.  0.
         -6    2    1    2    0  502 -0.29530524639E+02 -0.66169666642E+02  0.45331474024E+02  0.19295173682E+03  0.17298830463E+03 0.  0.
        -24    2    5    5    0    0 -0.56405319315E+02 -0.52494634919E+02 -0.26833495342E+02  0.11459911156E+03  0.80471567382E+02 0.  0.
          5    1    3    3  501    0 -0.20291373693E+02  0.76604894171E+02 -0.61263918790E+02  0.10027665433E+03  0.47000000000E+01 0. -1.
        -13    1    4    4    0    0  0.13576250529E+02  0.30274363992E+02 -0.35337488658E+02  0.48472567480E+02  0.00000000000E+00 0.  1.
         14    1    4    4    0    0  0.36245647803E+02 -0.40709591521E+02 -0.15654939736E+03  0.16576710060E+03  0.00000000000E+00 0. -1.
         -5    1    5    5    0  502  0.26874794676E+02 -0.13675031723E+02  0.72164969365E+02  0.78352625259E+02  0.47000000000E+01 0.  1.
         11    1    6    6    0    0 -0.41878157098E+02 -0.65558547506E+02 -0.43314822300E+02  0.89038626584E+02  0.00000000000E+00 0. -1.
        -12    1    6    6    0    0 -0.14527162216E+02  0.13063912587E+02  0.16481326959E+02  0.25560484981E+02  0.00000000000E+00 0.  1.
</event>
<event>
12    1  0.8449700E-002  0.1763742E+03  0.7818608E-02  0.1171388E+00
         21   -1    0    0  501  502  0.00000000000E+00  0.00000000000E+00  0.23990770514E+03  0.23990770514E+03  0.00000000000E+00 0.  1.
         21   -1    0    0  502  503 -0.00000000000E+00 -0.00000000000E+00 -0.13228471982E+03  0.13228471982E+03  0.00000000000E+00 0.  1.
         -6    2    1    2    0  503 -0.45978820914E+01 -0.37173048187E+02  0.27190848682E+02  0.17834408980E+03  0.17223326067E+03 0.  0.
        -24    2    3    3    0    0 -0.15906332691E+02  0.26551144460E+02  0.59659288152E+02  0.10578416046E+03  0.81688942030E+02 0.  0.
          6    2    1    2  501    0  0.45978820914E+01  0.37173048187E+02  0.80432136640E+02  0.19384833517E+03  0.17235101512E+03 0.  0.
         24    2    5    5    0    0  0.23615036071E+02  0.42139684640E+02  0.12227570498E+03  0.14738013276E+03  0.66604298318E+02 0.  0.
          5    1    5    5  501    0 -0.19017153980E+02 -0.49666364534E+01 -0.41843568342E+02  0.46468202405E+02  0.47000000000E+01 0. -1.
        -11    1    6    6    0    0  0.37729176323E+02  0.33519676647E+02  0.42713801993E+02  0.66117534355E+02  0.00000000000E+00 0.  1.
         12    1    6    6    0    0 -0.14114140252E+02  0.86200079932E+01  0.79561902990E+02  0.81262598409E+02  0.00000000000E+00 0. -1.
         -5    1    3    3    0  503  0.11308450600E+02 -0.63724192647E+02 -0.32468439470E+02  0.72559929335E+02  0.47000000000E+01 0.  1.
         11    1    4    4    0    0  0.16195348187E+02  0.42320057940E+02  0.13285654965E+02  0.47220601805E+02  0.00000000000E+00 0. -1.
        -12    1    4    4    0    0 -0.32101680878E+02 -0.15768913480E+02  0.46373633188E+02  0.58563558657E+02  0.00000000000E+00 0.  1.
</event>
<event>
12    1  0.8449700E-002  0.1854384E+03  0.7818608E-02  0.1162776E+00
         21   -1    0    0  503  502  0.00000000000E+00  0.00000000000E+00  0.55511258547E+03  0.55511258547E+03  0.00000000000E+00 0. -1.
         21   -1    0    0  501  503 -0.00000000000E+00 -0.00000000000E+00 -0.50563124520E+03  0.50563124520E+03  0.00000000000E+00 0. -1.
          6    2    1    2  501    0  0.62537992930E+02  0.19461492499E+02 -0.47218436482E+03  0.50729228466E+03  0.17348670682E+03 0.  0.
         24    2    3    3    0    0  0.62505429084E+02 -0.51081629247E+02 -0.27365857986E+03  0.29655332201E+03  0.80861566585E+02 0.  0.
         -6    2    1    2    0  502 -0.62537992930E+02 -0.19461492499E+02  0.52166570509E+03  0.55345154601E+03  0.17286918656E+03 0.  0.
        -24    2    5    5    0    0  0.16987994084E+02  0.31879944955E+02  0.20358677226E+03  0.22155303242E+03  0.79581715885E+02 0.  0.
          5    1    3    3  501    0  0.32563845664E-01  0.70543121746E+02 -0.19852578496E+03  0.21073896265E+03  0.47000000000E+01 0. -1.
        -13    1    4    4    0    0 -0.19677920325E+02 -0.69821728147E+01 -0.55262672223E+02  0.59075665267E+02  0.00000000000E+00 0.  1.
         14    1    4    4    0    0  0.82183349409E+02 -0.44099456433E+02 -0.21839590764E+03  0.23747765674E+03  0.00000000000E+00 0. -1.
         -5    1    5    5    0  502 -0.79525987014E+02 -0.51341437454E+02  0.31807893283E+03  0.33189851358E+03  0.47000000000E+01 0.  1.
         13    1    6    6    0    0 -0.18322733512E+02  0.30999436841E+02  0.16645194743E+03  0.17030249103E+03  0.00000000000E+00 0. -1.
        -14    1    6    6    0    0  0.35310727595E+02  0.88050811399E+00  0.37134824829E+02  0.51250541392E+02  0.00000000000E+00 0.  1.
</event>
<event>
12    1  0.8449700E-002  0.1765476E+03  0.7818608E-02  0.1171399E+00
         21   -1    0    0  503  502  0.00000000000E+00  0.00000000000E+00  0.20259114049E+03  0.20259114049E+03  0.00000000000E+00 0.  1.
         21   -1    0    0  501  503 -0.00000000000E+00 -0.00000000000E+00 -0.15331650059E+03  0.15331650059E+03  0.00000000000E+00 0.  1.
          6    2    1    2  501    0 -0.10696201454E+02  0.35695560912E+02  0.31237096181E+02  0.17928977434E+03  0.17257023269E+03 0.  0.
         24    2    3    3    0    0  0.13820254767E+02 -0.11957362150E+02  0.75058210146E+02  0.10990506615E+03  0.78175512175E+02 0.  0.
         -6    2    1    2    0  502  0.10696201454E+02 -0.35695560912E+02  0.18037543713E+02  0.17661786674E+03  0.17169722209E+03 0.  0.
        -24    2    5    5    0    0 -0.17923214159E+02  0.14816618060E+02  0.62456648239E+02  0.10336694168E+03  0.79013403592E+02 0.  0.
          5    1    3    3  501    0 -0.24516456221E+02  0.47652923062E+02 -0.43821113965E+02  0.69384708193E+02  0.47000000000E+01 0. -1.
        -11    1    4    4    0    0 -0.22742153265E+02  0.20953691577E+02  0.32453400899E+02  0.44827290301E+02  0.00000000000E+00 0.  1.
         12    1    4    4    0    0  0.36562408033E+02 -0.32911053727E+02  0.42604809247E+02  0.65077775849E+02  0.00000000000E+00 0. -1.
         -5    1    5    5    0  502  0.28619415612E+02 -0.50512178971E+02 -0.44419104526E+02  0.73250925054E+02  0.47000000000E+01 0.  1.
         13    1    6    6    0    0 -0.33549298705E+02 -0.23393125749E+02  0.34528389339E+02  0.53525726957E+02  0.00000000000E+00 0. -1.
        -14    1    6    6    0    0  0.15626084546E+02  0.38209743809E+02  0.27928258899E+02  0.49841214726E+02  0.00000000000E+00 0.  1.
</event>
<event>
12    1  0.8449700E-002  0.2164185E+03  0.7818608E-02  0.1136806E+00
         21   -1    0    0  501  502  0.00000000000E+00  0.00000000000E+00  0.11528594237E+03  0.11528594237E+03  0.00000000000E+00 0. -1.
         21   -1    0    0  502  503 -0.00000000000E+00 -0.00000000000E+00 -0.44417523117E+03  0.44417523117E+03  0.00000000000E+00 0. -1.
         -6    2    1    2    0  503  0.72394173621E+02 -0.10993923908E+03 -0.24809286618E+03  0.32845246427E+03  0.17030384133E+03 0.  0.
        -24    2    3    3    0    0  0.38285378048E+02 -0.71959351017E+00 -0.16865151653E+03  0.18907757791E+03  0.76424527824E+02 0.  0.
          6    2    1    2  501    0 -0.72394173621E+02  0.10993923908E+03 -0.80796422619E+02  0.23100870927E+03  0.17178302939E+03 0.  0.
         24    2    5    5    0    0 -0.10578958004E+03  0.49691116404E+02 -0.74100340592E+02  0.16164000616E+03  0.83522385163E+02 0.  0.
          5    1    5    5  501    0  0.33395406415E+02  0.60248122675E+02 -0.66960820265E+01  0.69368703102E+02  0.47000000000E+01 0. -1.
        -13    1    6    6    0    0 -0.18399790196E+02  0.40375848816E+02 -0.56786819604E+02  0.72065972050E+02  0.00000000000E+00 0.  1.
         14    1    6    6    0    0 -0.87389789840E+02  0.93152675887E+01 -0.17313520989E+02  0.89574034114E+02  0.00000000000E+00 0. -1.
         -5    1    3    3    0  503  0.34108795573E+02 -0.10921964557E+03 -0.79441349648E+02  0.13937488636E+03  0.47000000000E+01 0.  1.
         11    1    4    4    0    0 -0.13286927731E+02 -0.19750423192E+02 -0.90168816994E+02  0.93257907026E+02  0.00000000000E+00 0. -1.
        -12    1    4    4    0    0  0.51572305779E+02  0.19030829682E+02 -0.78482699536E+02  0.95819670883E+02  0.00000000000E+00 0.  1.
</event>
<event>
12    1  0.8449700E-002  0.2900514E+03  0.7818608E-02  0.1090897E+00
         21   -1    0    0  501  502  0.00000000000E+00  0.00000000000E+00  0.97196331129E+03  0.97196331129E+03  0.00000000000E+00 0.  1.
         21   -1    0    0  502  503 -0.00000000000E+00 -0.00000000000E+00 -0.33142008357E+03  0.33142008357E+03  0.00000000000E+00 0. -1.
         -6    2    1    2    0  503  0.23058514995E+03 -0.15194894287E+02 -0.24199806827E+03  0.37440064849E+03  0.16796542606E+03 0.  0.
        -24    2    3    3    0    0  0.43845408716E+02 -0.10307653710E+02 -0.11739000508E+03  0.14980128186E+03  0.81433059407E+02 0.  0.
          6    2    1    2  501    0 -0.23058514995E+03  0.15194894287E+02  0.88254129599E+03  0.92898274637E+03  0.17529805400E+03 0.  0.
         24    2    5    5    0    0 -0.11311376253E+03  0.42072149848E+01  0.24759477673E+03  0.28315039330E+03  0.77836674050E+02 0.  0.
          5    1    5    5  501    0 -0.11747138742E+03  0.10987679302E+02  0.63494651926E+03  0.64583235308E+03  0.47000000000E+01 0. -1.
        -13    1    6    6    0    0 -0.42576534301E+02 -0.11077510451E+02  0.17627871261E+03  0.18168559940E+03  0.00000000000E+00 0.  1.
         14    1    6    6    0    0 -0.70537228232E+02  0.15284725436E+02  0.71316064122E+02  0.10146479389E+03  0.00000000000E+00 0. -1.
         -5    1    3    3    0  503  0.18673974124E+03 -0.48872405772E+01 -0.12460806320E+03  0.22459936663E+03  0.47000000000E+01 0.  1.
         11    1    4    4    0    0 -0.59380221125E+01  0.28454387378E+02 -0.47099324242E+02  0.55346712745E+02  0.00000000000E+00 0. -1.
        -12    1    4    4    0    0  0.49783430829E+02 -0.38762041088E+02 -0.70290680833E+02  0.94454569113E+02  0.00000000000E+00 0.  1.
</event>
<event>
12    1  0.8449700E-002  0.1744588E+03  0.7818608E-02  0.1173321E+00
         21   -1    0    0  501  502  0.00000000000E+00  0.00000000000E+00  0.87528239423E+03  0.87528239423E+03  0.00000000000E+00 0.  1.
         21   -1    0    0  502  503 -0.00000000000E+00 -0.00000000000E+00 -0.73138107137E+02  0.73138107137E+02  0.00000000000E+00 0.  1.
         -6    2    1    2    0  503 -0.28801039006E+02 -0.11716116509E+02  0.57363781914E+02  0.18348006956E+03  0.17148634120E+03 0.  0.
        -24    2    3    3    0    0 -0.71124978022E+02 -0.47161600718E+02  0.44919534940E+02  0.12669409024E+03  0.82162332013E+02 0.  0.
          6    2    1    2  501    0  0.28801039006E+02  0.11716116509E+02  0.74478050518E+03  0.76494043180E+03  0.17166565202E+03 0.  0.
         24    2    5    5    0    0  0.81972699840E+02 -0.11580192129E+02  0.45601406956E+03  0.47035922424E+03  0.80220594739E+02 0.  0.
          5    1    5    5  501    0 -0.53171660834E+02  0.23296308638E+02  0.28876643561E+03  0.29458120756E+03  0.47000000000E+01 0. -1.
        -13    1    6    6    0    0  0.21292188268E+02  0.31625165350E+02  0.11005444316E+03  0.11647097846E+03  0.00000000000E+00 0.  1.
         14    1    6    6    0    0  0.60680511572E+02 -0.43205357479E+02  0.34595962640E+03  0.35388824578E+03  0.00000000000E+00 0. -1.
         -5    1    3    3    0  503  0.42323939016E+02  0.35445484210E+02  0.12444246974E+02  0.56785979321E+02  0.47000000000E+01 0.  1.
         11    1    4    4    0    0 -0.37905290246E+02  0.11453475183E+02  0.44162872186E+02  0.59315701143E+02  0.00000000000E+00 0. -1.
        -12    1    4    4    0    0 -0.33219687776E+02 -0.58615075901E+02  0.75666275420E+00  0.67378389097E+02  0.00000000000E+00 0.  1.
</event>
<event>
12    1  0.8449700E-002  0.5001047E+03  0.7818608E-02  0.1013783E+00
         21   -1    0    0  503  502  0.00000000000E+00  0.00000000000E+00  0.47182306334E+03  0.47182306334E+03  0.00000000000E+00 0. -1.
         21   -1    0    0  501  503 -0.00000000000E+00 -0.00000000000E+00 -0.58348874865E+03  0.58348874865E+03  0.00000000000E+00 0.  1.
          6    2    1    2  501    0 -0.14705753527E+03 -0.44535969935E+03 -0.21620699087E+03  0.54439731748E+03  0.17219696831E+03 0.  0.
         24    2    3    3    0    0 -0.47827566531E+02 -0.29733128588E+03 -0.18583404052E+03  0.36355593946E+03  0.83338231430E+02 0.  0.
         -6    2    1    2    0  502  0.14705753527E+03  0.44535969935E+03  0.10454130556E+03  0.51091449452E+03  0.17359019459E+03 0.  0.
        -24    2    5    5    0    0  0.15128072879E+03  0.30725659942E+03  0.27174710037E+02  0.35249106924E+03  0.78860714167E+02 0.  0.
          5    1    3    3  501    0 -0.99229968741E+02 -0.14802841346E+03 -0.30372950345E+02  0.18084137801E+03  0.47000000000E+01 0. -1.
        -11    1    4    4    0    0 -0.32785769436E+02 -0.97039516737E+02 -0.10603750796E+03  0.14742973778E+03  0.00000000000E+00 0.  1.
         12    1    4    4    0    0 -0.15041797095E+02 -0.20029176915E+03 -0.79796532560E+02  0.21612620169E+03  0.00000000000E+00 0. -1.
         -5    1    5    5    0  502 -0.42231935195E+01  0.13810309993E+03  0.77366595522E+02  0.15842342527E+03  0.47000000000E+01 0.  1.
         11    1    6    6    0    0  0.99364163559E+01  0.98366592708E+02  0.14822328689E+02  0.99972097901E+02  0.00000000000E+00 0. -1.
        -12    1    6    6    0    0  0.14134431244E+03  0.20889000671E+03  0.12352381348E+02  0.25251897134E+03  0.00000000000E+00 0.  1.
</event>
<event>
12    1  0.8449700E-002  0.1969419E+03  0.7818608E-02  0.1154525E+00
         21   -1    0    0  501  502  0.00000000000E+00  0.00000000000E+00  0.88815509234E+03  0.88815509234E+03  0.00000000000E+00 0. -1.
         21   -1    0    0  502  503 -0.00000000000E+00 -0.00000000000E+00 -0.85011531217E+02  0.85011531217E+02  0.00000000000E+00 0. -1.
         -6    2    1    2    0  503 -0.66103662016E+02  0.25282323485E+02  0.48529979823E+02  0.19327702824E+03  0.17318187171E+03 0.  0.
        -24    2    3    3    0    0  0.29320445376E+02  0.10959235386E+02  0.20096495578E-01  0.85174253505E+02  0.79214012011E+02 0.  0.
          6    2    1    2  501    0  0.66103662016E+02 -0.25282323485E+02  0.75461358130E+03  0.77988959532E+03  0.18378583676E+03 0.  0.
         24    2    5    5    0    0  0.19143523127E+02  0.21008974209E+02  0.15329979262E+03  0.17495282065E+03  0.79371352278E+02 0.  0.
          5    1    5    5  501    0  0.46960138889E+02 -0.46291297694E+02  0.60131378868E+03  0.60493677467E+03  0.47000000000E+01 0. -1.
        -11    1    6    6    0    0  0.37980765725E+02  0.16847086493E+02  0.32847035013E+02  0.52964994077E+02  0.00000000000E+00 0.  1.
         12    1    6    6    0    0 -0.18837242598E+02  0.41618877158E+01  0.12045275760E+03  0.12198782657E+03  0.00000000000E+00 0. -1.
         -5    1    3    3    0  503 -0.95424107392E+02  0.14323088099E+02  0.48509883328E+02  0.10810277473E+03  0.47000000000E+01 0.  1.
         11    1    4    4    0    0 -0.18029794092E+02  0.12304168957E+02  0.23696133285E+02  0.32217584972E+02  0.00000000000E+00 0. -1.
        -12    1    4    4    0    0  0.47350239469E+02 -0.13449335713E+01 -0.23676036790E+02  0.52956668533E+02  0.00000000000E+00 0.  1.
</event>
<event>
12    1  0.8449700E-002  0.2102523E+03  0.7818608E-02  0.1141375E+00
         21   -1    0    0  503  502  0.00000000000E+00  0.00000000000E+00  0.98445956954E+03  0.98445956954E+03  0.00000000000E+00 0.  1.
         21   -1    0    0  501  503 -0.00000000000E+00 -0.00000000000E+00 -0.47934380093E+02  0.47934380093E+02  0.00000000000E+00 0. -1.
          6    2    1    2  501    0  0.11394223224E+03 -0.38865721135E+02  0.59831129018E+03  0.63417854456E+03  0.17237357646E+03 0.  0.
         24    2    3    3    0    0  0.84611215125E+02  0.19953706585E+02  0.51459419432E+03  0.52763899425E+03  0.77707884368E+02 0.  0.
         -6    2    1    2    0  502 -0.11394223224E+03  0.38865721135E+02  0.33821389927E+03  0.39821540507E+03  0.17231799270E+03 0.  0.
        -24    2    5    5    0    0 -0.14439601778E+03  0.33708722625E+02  0.22763924884E+03  0.28331165838E+03  0.80370269547E+02 0.  0.
          5    1    3    3  501    0  0.29331017114E+02 -0.58819427720E+02  0.83717095859E+02  0.10653955031E+03  0.47000000000E+01 0. -1.
        -13    1    4    4    0    0  0.53349715644E+02 -0.65519142432E+01  0.43306058638E+03  0.43638353683E+03  0.00000000000E+00 0.  1.
         14    1    4    4    0    0  0.31261499480E+02  0.26505620828E+02  0.81533607941E+02  0.91255457421E+02  0.00000000000E+00 0. -1.
         -5    1    5    5    0  502  0.30453785540E+02  0.51569985095E+01  0.11057465042E+03  0.11490374669E+03  0.47000000000E+01 0.  1.
         11    1    6    6    0    0 -0.11209694910E+03  0.43885385052E+02  0.11803037642E+03  0.16859069600E+03  0.00000000000E+00 0. -1.
        -12    1    6    6    0    0 -0.32299068679E+02 -0.10176662427E+02  0.10960887242E+03  0.11472096238E+03  0.00000000000E+00 0.  1.
</event>
<event>
12    1  0.8449700E-002  0.1928716E+03  0.7818608E-02  0.1156501E+00
         21   -1    0    0  501  502  0.00000000000E+00  0.00000000000E+00  0.11343654273E+03  0.11343654273E+03  0.00000000000E+00 0.  1.
         21   -1    0    0  502  503 -0.00000000000E+00 -0.00000000000E+00 -0.49924208165E+03  0.49924208165E+03  0.00000000000E+00 0. -1.
         -6    2    1    2    0  503 -0.15271207134E+02 -0.78937244402E+02 -0.37562453100E+03  0.42224784076E+03  0.17531443869E+03 0.  0.
        -24    2    3    3    0    0 -0.48532634473E+02 -0.28135781866E+02 -0.10110536661E+03  0.14105400590E+03  0.80789223248E+02 0.  0.
          6    2    1    2  501    0  0.15271207134E+02  0.78937244402E+02 -0.10181007917E+02  0.19043078363E+03  0.17232507684E+03 0.  0.
         24    2    5    5    0    0 -0.57335647256E+02  0.41647780383E+02 -0.23858793288E+02  0.10753668707E+03  0.77285076126E+02 0.  0.
          5    1    5    5  501    0  0.72606854389E+02  0.37289464020E+02  0.13677785371E+02  0.82894096556E+02  0.47000000000E+01 0. -1.
        -13    1    6    6    0    0 -0.12802197895E+02 -0.22882918014E+02 -0.29164111150E+01  0.26382374070E+02  0.00000000000E+00 0.  1.
         14    1    6    6    0    0 -0.44533449361E+02  0.64530698396E+02 -0.20942382173E+02  0.81154313001E+02  0.00000000000E+00 0. -1.
         -5    1    3    3    0  503  0.33261427340E+02 -0.50801462537E+02 -0.27451916439E+03  0.28119383485E+03  0.47000000000E+01 0.  1.
         11    1    4    4    0    0 -0.18256374045E+02 -0.54913520364E+02 -0.62103257471E+02  0.84885832154E+02  0.00000000000E+00 0. -1.
        -12    1    4    4    0    0 -0.30276260428E+02  0.26777738499E+02 -0.39002109142E+02  0.56168173747E+02  0.00000000000E+00 0.  1.
</event>
<event>
12    1  0.8449700E-002  0.2006366E+03  0.7818608E-02  0.1149389E+00
         21   -1    0    0  501  502  0.00000000000E+00  0.00000000000E+00  0.93647406396E+02  0.93647406396E+02  0.00000000000E+00 0.  1.
         21   -1    0    0  502  503 -0.00000000000E+00 -0.00000000000E+00 -0.81563541517E+03  0.81563541517E+03  0.00000000000E+00 0. -1.
         -6    2    1    2    0  503 -0.74288314640E+02 -0.69800380614E+02 -0.67484874941E+03  0.70404252858E+03  0.17281261712E+03 0.  0.
        -24    2    3    3    0    0 -0.43064529335E+02 -0.10037459338E+03 -0.61339903501E+03  0.62849211722E+03  0.82549091946E+02 0.  0.
          6    2    1    2  501    0  0.74288314640E+02  0.69800380614E+02 -0.47139259364E+02  0.20524029299E+03  0.17178655730E+03 0.  0.
         24    2    5    5    0    0  0.10550622396E+03  0.50012138952E+02  0.44728382623E+01  0.14158472771E+03  0.79959061408E+02 0.  0.
          5    1    5    5  501    0 -0.31217909318E+02  0.19788241662E+02 -0.51612097626E+02  0.63655565285E+02  0.47000000000E+01 0. -1.
        -11    1    6    6    0    0  0.48558905952E+02  0.41804981117E+02  0.38488313173E+02  0.74746063738E+02  0.00000000000E+00 0.  1.
         12    1    6    6    0    0  0.56947318006E+02  0.82071578350E+01 -0.34015474910E+02  0.66838663969E+02  0.00000000000E+00 0. -1.
         -5    1    3    3    0  503 -0.31223785305E+02  0.30574212770E+02 -0.61449714408E+02  0.75550411356E+02  0.47000000000E+01 0.  1.
         11    1    4    4    0    0 -0.34021523848E+02 -0.47189181393E+02 -0.49469469389E+03  0.49810352648E+03  0.00000000000E+00 0. -1.
        -12    1    4    4    0    0 -0.90430054867E+01 -0.53185411991E+02 -0.11870434111E+03  0.13038859074E+03  0.00000000000E+00 0.  1.
</event>
<event>
12    1  0.8449700E-002  0.1862698E+03  0.7818608E-02  0.1161909E+00
         21   -1    0    0  503  502  0.00000000000E+00  0.00000000000E+00  0.83680043222E+03  0.83680043222E+03  0.00000000000E+00 0.  1.
         21   -1    0    0  501  503 -0.00000000000E+00 -0.00000000000E+00 -0.50291988319E+02  0.50291988319E+02  0.00000000000E+00 0.  1.
          6    2    1    2  501    0  0.30834891653E+02 -0.62569545938E+02  0.20686699128E+03  0.27825693172E+03  0.17253182125E+03 0.  0.
         24    2    3    3    0    0 -0.34735051158E+02 -0.76721695221E+02  0.13686480361E+03  0.18118944484E+03  0.83695269628E+02 0.  0.
         -6    2    1    2    0  502 -0.30834891653E+02  0.62569545938E+02  0.57964145262E+03  0.60883548882E+03  0.17271566297E+03 0.  0.
        -24    2    5    5    0    0 -0.41621491322E+02  0.89094701590E+02  0.28855074765E+03  0.31630203239E+03  0.84351806927E+02 0.  0.
          5    1    3    3  501    0  0.65569942811E+02  0.14152149282E+02  0.70002187670E+02  0.97067486875E+02  0.47000000000E+01 0. -1.
        -11    1    4    4    0    0 -0.56564175207E+01 -0.42726838960E+02  0.67826482419E+01  0.43630060095E+02  0.00000000000E+00 0.  1.
         12    1    4    4    0    0 -0.29078633637E+02 -0.33994856261E+02  0.13008215537E+03  0.13755938475E+03  0.00000000000E+00 0. -1.
         -5    1    5    5    0  502  0.10786599669E+02 -0.26525155652E+02  0.29109070497E+03  0.29253345643E+03  0.47000000000E+01 0.  1.
         13    1    6    6    0    0 -0.67229303523E+02  0.72761328237E+02  0.21493635389E+03  0.23666775522E+03  0.00000000000E+00 0. -1.
        -14    1    6    6    0    0  0.25607812201E+02  0.16333373353E+02  0.73614393763E+02  0.79634277167E+02  0.00000000000E+00 0.  1.
</event>
<event>
12    1  0.8449700E-002  0.3095128E+03  0.7818608E-02  0.1080691E+00
         21   -1    0    0  503  502  0.00000000000E+00  0.00000000000E+00  0.51037580251E+03  0.51037580251E+03  0.00000000000E+00 0.  1.
         21   -1    0    0  501  503 -0.00000000000E+00 -0.00000000000E+00 -0.24300464800E+03  0.24300464800E+03  0.00000000000E+00 0.  1.
          6    2    1    2  501    0 -0.19770964255E+03 -0.16265633459E+03 -0.46772954772E+02  0.31302692981E+03  0.17393091601E+03 0.  0.
         24    2    3    3    0    0 -0.28636798006E+02 -0.22818054220E+02 -0.26860124282E+02  0.92665902765E+02  0.80776069850E+02 0.  0.
         -6    2    1    2    0  502  0.19770964255E+03  0.16265633459E+03  0.31414410929E+03  0.44035352071E+03  0.17227453631E+03 0.  0.
        -24    2    5    5    0    0  0.76801650852E+02  0.14824440586E+03  0.16602022563E+03  0.24854835640E+03  0.79615781784E+02 0.  0.
          5    1    3    3  501    0 -0.16907284454E+03 -0.13983828037E+03 -0.19912830490E+02  0.22036102704E+03  0.47000000000E+01 0. -1.
        -13    1    4    4    0    0 -0.48298292033E+02 -0.33365005928E+02 -0.12713474818E+01  0.58715968512E+02  0.00000000000E+00 0.  1.
         14    1    4    4    0    0  0.19661494027E+02  0.10546951707E+02 -0.25588776800E+02  0.33949934254E+02  0.00000000000E+00 0. -1.
         -5    1    5    5    0  502  0.12090799170E+03  0.14411928737E+02  0.14812388366E+03  0.19180516431E+03  0.47000000000E+01 0.  1.
         11    1    6    6    0    0 -0.44149276760E+01  0.16120941622E+02 -0.52250795050E+01  0.17512218620E+02  0.00000000000E+00 0. -1.
        -12    1    6    6    0    0  0.81216578528E+02  0.13212346424E+03  0.17124530513E+03  0.23103613778E+03  0.00000000000E+00 0.  1.
</event>
<event>
12    1  0.8449700E-002  0.1857394E+03  0.7818608E-02  0.1163508E+00
         21   -1    0    0  501  502  0.00000000000E+00  0.00000000000E+00  0.45508234796E+02  0.45508234796E+02  0.00000000000E+00 0. -1.
         21   -1    0    0  502  503 -0.00000000000E+00 -0.00000000000E+00 -0.74079203514E+03  0.74079203514E+03  0.00000000000E+00 0. -1.
         -6    2    1    2    0  503  0.47844352114E+02 -0.27628459946E+02 -0.32048691739E+03  0.36800391382E+03  0.17222834417E+03 0.  0.
        -24    2    3    3    0    0  0.42249613302E+02 -0.80251311844E+02 -0.16570712941E+03  0.20435997591E+03  0.77966942620E+02 0.  0.
          6    2    1    2  501    0 -0.47844352114E+02  0.27628459946E+02 -0.37479688295E+03  0.41829635611E+03  0.17733224254E+03 0.  0.
         24    2    5    5    0    0 -0.50829193137E+00  0.83531998139E+02 -0.19424836119E+03  0.22339697981E+03  0.72082811328E+02 0.  0.
          5    1    5    5  501    0 -0.47336060183E+02 -0.55903538193E+02 -0.18054852176E+03  0.19489937631E+03  0.47000000000E+01 0. -1.
        -13    1    6    6    0    0 -0.11361072377E+02  0.42522972049E+00  0.49938878054E+00  0.11379990115E+02  0.00000000000E+00 0.  1.
         14    1    6    6    0    0  0.10852780445E+02  0.83106768418E+02 -0.19474774997E+03  0.21201698969E+03  0.00000000000E+00 0. -1.
         -5    1    3    3    0  503  0.55947388124E+01  0.52622851898E+02 -0.15477978799E+03  0.16364393791E+03  0.47000000000E+01 0.  1.
         11    1    4    4    0    0 -0.99378221473E+01 -0.64198411091E+02 -0.87521458499E+02  0.10899633936E+03  0.00000000000E+00 0. -1.
        -12    1    4    4    0    0  0.52187435449E+02 -0.16052900752E+02 -0.78185670907E+02  0.95363636553E+02  0.00000000000E+00 0.  1.
</event>
<event>
12    1  0.8449700E-002  0.2076081E+03  0.7818608E-02  0.1143574E+00
         21   -1    0    0  503  502  0.00000000000E+00  0.00000000000E+00  0.64997876041E+03  0.64997876041E+03  0.00000000000E+00 0. -1.
         21   -1    0    0  501  503 -0.00000000000E+00 -0.00000000000E+00 -0.69820024709E+02  0.69820024709E+02  0.00000000000E+00 0. -1.
          6    2    1    2  501    0  0.11325962017E+03  0.18944460790E+02  0.37222578124E+03  0.42596680877E+03  0.17236315093E+03 0.  0.
         24    2    3    3    0    0  0.12507256672E+03 -0.34015241764E+02  0.28709835199E+03  0.32490719759E+03  0.79618086611E+02 0.  0.
         -6    2    1    2    0  502 -0.11325962017E+03 -0.18944460790E+02  0.20793295447E+03  0.29383197635E+03  0.17295803716E+03 0.  0.
        -24    2    5    5    0    0 -0.13720173739E+03 -0.34874633477E+02  0.12224698686E+03  0.20332689129E+03  0.79730434088E+02 0.  0.
          5    1    3    3  501    0 -0.11812946540E+02  0.52959702554E+02  0.85127429250E+02  0.10105961118E+03  0.47000000000E+01 0. -1.
        -11    1    4    4    0    0 -0.10345761865E+02  0.26208614309E+01  0.32630712126E+02  0.34331721150E+02  0.00000000000E+00 0.  1.
         12    1    4    4    0    0  0.13541832858E+03 -0.36636103195E+02  0.25446763986E+03  0.29057547644E+03  0.00000000000E+00 0. -1.
         -5    1    5    5    0  502  0.23942117216E+02  0.15930172686E+02  0.85685967606E+02  0.90505085068E+02  0.47000000000E+01 0.  1.
         11    1    6    6    0    0 -0.11173259224E+02  0.13144042824E+02  0.44334965314E+02  0.47573067306E+02  0.00000000000E+00 0. -1.
        -12    1    6    6    0    0 -0.12602847817E+03 -0.48018676301E+02  0.77912021547E+02  0.15575382398E+03  0.00000000000E+00 0.  1.
</event>
<event>
12    1  0.8449700E-002  0.2246264E+03  0.7818608E-02  0.1130485E+00
         21   -1    0    0  503  502  0.00000000000E+00  0.00000000000E+00  0.68935375583E+03  0.68935375583E+03  0.00000000000E+00 0. -1.
         21   -1    0    0  501  503 -0.00000000000E+00 -0.00000000000E+00 -0.77761496628E+02  0.77761496628E+02  0.00000000000E+00 0. -1.
          6    2    1    2  501    0 -0.13590601091E+03 -0.55888661249E+02  0.21273293370E+03  0.30935356615E+03  0.16985388295E+03 0.  0.
         24    2    3    3    0    0 -0.23753898881E+02 -0.70203710057E+02  0.12544955110E+03  0.16644276973E+03  0.80453695425E+02 0.  0.
         -6    2    1    2    0  502  0.13590601091E+03  0.55888661249E+02  0.39885932551E+03  0.45776168631E+03  0.16989118180E+03 0.  0.
        -24    2    5    5    0    0  0.13440666441E+03  0.12342475810E+02  0.19837012351E+03  0.25253856768E+03  0.78787905892E+02 0.  0.
          5    1    3    3  501    0 -0.11215211203E+03  0.14315048808E+02  0.87283382597E+02  0.14291079641E+03  0.47000000000E+01 0. -1.
        -11    1    4    4    0    0 -0.35896366831E+02 -0.45987164301E+02  0.26907247085E+02  0.64244598044E+02  0.00000000000E+00 0.  1.
         12    1    4    4    0    0  0.12142467950E+02 -0.24216545757E+02  0.98542304012E+02  0.10219817169E+03  0.00000000000E+00 0. -1.
         -5    1    5    5    0  502  0.14993464969E+01  0.43546185439E+02  0.20048920200E+03  0.20522311864E+03  0.47000000000E+01 0.  1.
         11    1    6    6    0    0  0.55453811578E+02 -0.32296533266E+02  0.65804684586E+02  0.91915438273E+02  0.00000000000E+00 0. -1.
        -12    1    6    6    0    0  0.78952852831E+02  0.44639009075E+02  0.13256543893E+03  0.16062312940E+03  0.00000000000E+00 0.  1.
</event>
<event>
12    1  0.8449700E-002  0.2205731E+03  0.7818608E-02  0.1133537E+00
         21   -1    0    0  503  502  0.00000000000E+00  0.00000000000E+00  0.21939341292E+03  0.21939341292E+03  0.00000000000E+00 0. -1.
         21   -1    0    0  501  503 -0.00000000000E+00 -0.00000000000E+00 -0.45964547213E+03  0.45964547213E+03  0.00000000000E+00 0.  1.
          6    2    1    2  501    0 -0.12448482047E+03  0.60107143453E+02 -0.36454509120E+03  0.42585660581E+03  0.17132246197E+03 0.  0.
         24    2    3    3    0    0 -0.44464339682E+02  0.94685788275E+02 -0.17552273842E+03  0.21764877726E+03  0.74968543625E+02 0.  0.
         -6    2    1    2    0  502  0.12448482047E+03 -0.60107143453E+02  0.12429303199E+03  0.25318227924E+03  0.17188126570E+03 0.  0.
        -24    2    5    5    0    0  0.54917691684E+02 -0.84115029585E+02  0.12610448781E+03  0.17941687152E+03  0.78719634646E+02 0.  0.
          5    1    3    3  501    0 -0.80020480790E+02 -0.34578644823E+02 -0.18902235277E+03  0.20820782856E+03  0.47000000000E+01 0. -1.
        -13    1    4    4    0    0 -0.24217860167E+02  0.41403534908E+02 -0.14554871878E+03  0.15324877485E+03  0.00000000000E+00 0.  1.
         14    1    4    4    0    0 -0.20246479515E+02  0.53282253368E+02 -0.29974019643E+02  0.64400002409E+02  0.00000000000E+00 0. -1.
         -5    1    5    5    0  502  0.69567128789E+02  0.24007886132E+02 -0.18114558192E+01  0.73765407723E+02  0.47000000000E+01 0.  1.
         11    1    6    6    0    0  0.46134561394E+01 -0.24096314247E+02  0.89814450626E+02  0.93105058290E+02  0.00000000000E+00 0. -1.
        -12    1    6    6    0    0  0.50304235545E+02 -0.60018715337E+02  0.36290037183E+02  0.86311813231E+02  0.00000000000E+00 0.  1.
</event>
<event>
12    1  0.8449700E-002  0.5315740E+03  0.7818608E-02  0.1005930E+00
         21   -1    0    0  501  502  0.00000000000E+00  0.00000000000E+00  0.38437918812E+03  0.38437918812E+03  0.00000000000E+00 0. -1.
         21   -1    0    0  502  503 -0.00000000000E+00 -0.00000000000E+00 -0.91522282377E+03  0.91522282377E+03  0.00000000000E+00 0. -1.
         -6    2    1    2    0  503 -0.39376557913E+03  0.31330836444E+03 -0.55483756388E+03  0.76748676981E+03  0.16726552848E+03 0.  0.
        -24    2    3    3    0    0 -0.78081304238E+02  0.88235371102E+02 -0.10443477265E+03  0.17318114298E+03  0.72131239835E+02 0.  0.
          6    2    1    2  501    0  0.39376557913E+03 -0.31330836444E+03  0.23993928231E+02  0.53211524208E+03  0.17134018714E+03 0.  0.
         24    2    5    5    0    0  0.11196304950E+03 -0.15433434207E+03 -0.11387731369E+02  0.20660125263E+03  0.78737434339E+02 0.  0.
          5    1    5    5  501    0  0.28180252963E+03 -0.15897402237E+03  0.35381659600E+02  0.32551398945E+03  0.47000000000E+01 0. -1.
        -11    1    6    6    0    0  0.10560895656E+03 -0.16233612838E+03 -0.35064794586E+01  0.19369709776E+03  0.00000000000E+00 0.  1.
         12    1    6    6    0    0  0.63540929399E+01  0.80017863072E+01 -0.78812519106E+01  0.12904154869E+02  0.00000000000E+00 0. -1.
         -5    1    3    3    0  503 -0.31568427489E+03  0.22507299334E+03 -0.45040279122E+03  0.59430562683E+03  0.47000000000E+01 0.  1.
         11    1    4    4    0    0 -0.65459513235E+02  0.10053103154E+03 -0.85494532846E+02  0.14731174876E+03  0.00000000000E+00 0. -1.
        -12    1    4    4    0    0 -0.12621791003E+02 -0.12295660435E+02 -0.18940239808E+02  0.25869394226E+02  0.00000000000E+00 0.  1.
</event>
<event>
12    1  0.8449700E-002  0.1754550E+03  0.7818608E-02  0.1173053E+00
         21   -1    0    0  503  502  0.00000000000E+00  0.00000000000E+00  0.66291197729E+02  0.66291197729E+02  0.00000000000E+00 0.  1.
         21   -1    0    0  501  503 -0.00000000000E+00 -0.00000000000E+00 -0.77394941968E+03  0.77394941968E+03  0.00000000000E+00 0.  1.
          6    2    1    2  501    0  0.32943438618E+02  0.11529233223E+02 -0.62483097321E+03  0.64899785785E+03  0.17194848369E+03 0.  0.
         24    2    3    3    0    0  0.56599919358E+02 -0.79869912169E+01 -0.60359543444E+03  0.61140064779E+03  0.78841364416E+02 0.  0.
         -6    2    1    2    0  502 -0.32943438618E+02 -0.11529233223E+02 -0.82827248740E+02  0.19124275956E+03  0.16880535117E+03 0.  0.
        -24    2    5    5    0    0 -0.26353983350E+01  0.93082143579E+01  0.14598368863E+02  0.86999690281E+02  0.85218809875E+02 0.  0.
          5    1    3    3  501    0 -0.23656480740E+02  0.19516224440E+02 -0.21235538778E+02  0.37597210064E+02  0.47000000000E+01 0. -1.
        -11    1    4    4    0    0  0.43644924905E+02  0.26754895084E+02 -0.21370424100E+03  0.21975032765E+03  0.00000000000E+00 0.  1.
         12    1    4    4    0    0  0.12954994453E+02 -0.34741886301E+02 -0.38989119343E+03  0.39165032013E+03  0.00000000000E+00 0. -1.
         -5    1    5    5    0  502 -0.30308040283E+02 -0.20837447581E+02 -0.97425617602E+02  0.10424306928E+03  0.47000000000E+01 0.  1.
         13    1    6    6    0    0  0.10872005923E+02  0.17597801352E+02 -0.31818803172E+02  0.37951539633E+02  0.00000000000E+00 0. -1.
        -14    1    6    6    0    0 -0.13507404258E+02 -0.82895869943E+01  0.46417172034E+02  0.49048150648E+02  0.00000000000E+00 0.  1.
</event>
<event>
12    1  0.8449700E-002  0.1908390E+03  0.7818608E-02  0.1157931E+00
         21   -1    0    0  501  502  0.00000000000E+00  0.00000000000E+00  0.12976427302E+04  0.12976427302E+04  0.00000000000E+00 0. -1.
         21   -1    0    0  502  503 -0.00000000000E+00 -0.00000000000E+00 -0.28126368019E+02  0.28126368019E+02  0.00000000000E+00 0.  1.
         -6    2    1    2    0  503  0.75121706068E+01 -0.79892054508E+02  0.68995033679E+03  0.71559183322E+03  0.17204950292E+03 0.  0.
        -24    2    3    3    0    0  0.60704156481E+02 -0.44145803481E+02  0.55637443210E+03  0.56736297592E+03  0.81941388616E+02 0.  0.
          6    2    1    2  501    0 -0.75121706068E+01  0.79892054508E+02  0.57956602534E+03  0.61017726495E+03  0.17314832904E+03 0.  0.
         24    2    5    5    0    0  0.22878680195E+02 -0.67739855384E+01  0.14480058130E+03  0.16579264815E+03  0.77140605068E+02 0.  0.
          5    1    5    5  501    0 -0.30390850802E+02  0.86666040046E+02  0.43476544405E+03  0.44438461680E+03  0.47000000000E+01 0. -1.
        -11    1    6    6    0    0  0.15880263038E+02  0.34510449403E+02  0.81175355465E+02  0.89624729886E+02  0.00000000000E+00 0.  1.
         12    1    6    6    0    0  0.69984171567E+01 -0.41284434941E+02  0.63625225831E+02  0.76167918267E+02  0.00000000000E+00 0. -1.
         -5    1    3    3    0  503 -0.53191985874E+02 -0.35746251027E+02  0.13357590469E+03  0.14822885730E+03  0.47000000000E+01 0.  1.
         11    1    4    4    0    0  0.26814343303E+02 -0.65520707604E+02  0.33630011991E+03  0.34367098042E+03  0.00000000000E+00 0. -1.
        -12    1    4    4    0    0  0.33889813178E+02  0.21374904123E+02  0.22007431220E+03  0.22369199550E+03  0.00000000000E+00 0.  1.
</event>
<event>
12    1  0.8449700E-002  0.2628287E+03  0.7818608E-02  0.1105595E+00
         21   -1    0    0  501  502  0.00000000000E+00  0.00000000000E+00  0.80498934171E+02  0.80498934171E+02  0.00000000000E+00 0.  1.
         21   -1    0    0  502  503 -0.00000000000E+00 -0.00000000000E+00 -0.17422998321E+04  0.17422998321E+04  0.00000000000E+00 0.  1.
         -6    2    1    2    0  503  0.98104563633E+02  0.17246906397E+03 -0.14820104983E+04  0.15051358863E+04  0.17236251236E+03 0.  0.
        -24    2    3    3    0    0  0.23958105295E+02  0.14275117280E+03 -0.70869627306E+03  0.72769274926E+03  0.79589206136E+02 0.  0.
          6    2    1    2  501    0 -0.98104563633E+02 -0.17246906397E+03 -0.17979039963E+03  0.31766287999E+03  0.17092405943E+03 0.  0.
         24    2    5    5    0    0 -0.12066853785E+03 -0.16320471407E+03 -0.19114802976E+03  0.29034902136E+03  0.81045112130E+02 0.  0.
          5    1    5    5  501    0  0.22563974213E+02 -0.92643499009E+01  0.11357630132E+02  0.27313858636E+02  0.47000000000E+01 0. -1.
        -11    1    6    6    0    0 -0.77788899492E+02 -0.69237514144E+02 -0.14165351094E+03  0.17581428671E+03  0.00000000000E+00 0.  1.
         12    1    6    6    0    0 -0.42879638354E+02 -0.93967199926E+02 -0.49494518820E+02  0.11453473465E+03  0.00000000000E+00 0. -1.
         -5    1    3    3    0  503  0.74146458339E+02  0.29717891172E+02 -0.77331422528E+03  0.77744313706E+03  0.47000000000E+01 0.  1.
         13    1    4    4    0    0  0.11100038215E+02 -0.81291411213E+01 -0.58777064681E+02  0.60365860519E+02  0.00000000000E+00 0. -1.
        -14    1    4    4    0    0  0.12858067079E+02  0.15088031392E+03 -0.64991920838E+03  0.66732688874E+03  0.00000000000E+00 0.  1.
</event>
<event>
12    1  0.8449700E-002  0.2147542E+03  0.7818608E-02  0.1138175E+00
         21   -1    0    0  501  502  0.00000000000E+00  0.00000000000E+00  0.10750752819E+03  0.10750752819E+03  0.00000000000E+00 0.  1.
         21   -1    0    0  502  503 -0.00000000000E+00 -0.00000000000E+00 -0.47687683750E+03  0.47687683750E+03  0.00000000000E+00 0.  1.
         -6    2    1    2    0  503  0.29985215714E+02 -0.12209740923E+03 -0.28105163055E+03  0.35370802086E+03  0.17410472276E+03 0.  0.
        -24    2    3    3    0    0  0.54246118337E+02 -0.26141939077E+02 -0.20818829287E+03  0.23071533967E+03  0.79127494205E+02 0.  0.
          6    2    1    2  501    0 -0.29985215714E+02  0.12209740923E+03 -0.88317678770E+02  0.23067634483E+03  0.17206008595E+03 0.  0.
         24    2    5    5    0    0  0.29736407501E+02  0.90001757273E+02 -0.55508230404E+01  0.12358178119E+03  0.79101673574E+02 0.  0.
          5    1    5    5  501    0 -0.59721623214E+02  0.32095651960E+02 -0.82766855729E+02  0.10709456364E+03  0.47000000000E+01 0. -1.
        -13    1    6    6    0    0  0.23398627627E+02  0.82539183919E+02 -0.34918049966E+02  0.92625497949E+02  0.00000000000E+00 0.  1.
         14    1    6    6    0    0  0.63377798731E+01  0.74625733542E+01  0.29367226925E+02  0.30956283241E+02  0.00000000000E+00 0. -1.
         -5    1    3    3    0  503 -0.24260902623E+02 -0.95955470156E+02 -0.72863337676E+02  0.12299268119E+03  0.47000000000E+01 0.  1.
         11    1    4    4    0    0  0.56534868531E+02  0.14694413728E+02 -0.12799750898E+03  0.14069640884E+03  0.00000000000E+00 0. -1.
        -12    1    4    4    0    0 -0.22887501947E+01 -0.40836352806E+02 -0.80190783884E+02  0.90018930831E+02  0.00000000000E+00 0.  1.
</event>
<event>
12    1  0.8449700E-002  0.1900303E+03  0.7818608E-02  0.1158518E+00
         21   -1    0    0  503  502  0.00000000000E+00  0.00000000000E+00  0.38184106556E+03  0.38184106556E+03  0.00000000000E+00 0.  1.
         21   -1    0    0  501  503 -0.00000000000E+00 -0.00000000000E+00 -0.11364661843E+03  0.11364661843E+03  0.00000000000E+00 0.  1.
          6    2    1    2  501    0 -0.71450400877E+02 -0.32676215678E+02  0.32000279447E+02  0.19233887627E+03  0.17261903309E+03 0.  0.
         24    2    3    3    0    0 -0.40295605561E+02 -0.80146612642E+02 -0.12691093418E+02  0.11992707704E+03  0.78576234389E+02 0.  0.
         -6    2    1    2    0  502  0.71450400877E+02  0.32676215678E+02  0.23619416768E+03  0.30314880772E+03  0.17302780100E+03 0.  0.
        -24    2    5    5    0    0  0.10958917067E+03 -0.85947319346E+01  0.16524146562E+03  0.21251640287E+03  0.75992261350E+02 0.  0.
          5    1    3    3  501    0 -0.31154795316E+02  0.47470396964E+02  0.44691372865E+02  0.72411799230E+02  0.47000000000E+01 0. -1.
        -11    1    4    4    0    0 -0.27247429064E+02 -0.48355072138E+02  0.31599286941E+02  0.63868226273E+02  0.00000000000E+00 0.  1.
         12    1    4    4    0    0 -0.13048176497E+02 -0.31791540504E+02 -0.44290380359E+02  0.56058850772E+02  0.00000000000E+00 0. -1.
         -5    1    5    5    0  502 -0.38138769794E+02  0.41270947613E+02  0.70952702063E+02  0.90632404846E+02  0.47000000000E+01 0.  1.
         11    1    6    6    0    0  0.21657054832E+02 -0.35221013020E+02  0.43741577420E+02  0.60190309664E+02  0.00000000000E+00 0. -1.
        -12    1    6    6    0    0  0.87932115838E+02  0.26626281086E+02  0.12149988820E+03  0.15232609321E+03  0.00000000000E+00 0.  1.
</event>
<event>
12    1  0.8449700E-002  0.1788947E+03  0.7818608E-02  0.1169149E+00
         21   -1    0    0  501  502  0.00000000000E+00  0.00000000000E+00  0.10163659831E+03  0.10163659831E+03  0.00000000000E+00 0.  1.
         21   -1    0    0  502  503 -0.00000000000E+00 -0.00000000000E+00 -0.37776655511E+03  0.37776655511E+03  0.00000000000E+00 0.  1.
         -6    2    1    2    0  503  0.33246865329E+02  0.25893210454E+02 -0.38399017726E+02  0.18188118244E+03  0.17271498939E+03 0.  0.
        -24    2    3    3    0    0  0.24904023333E+02 -0.15971962959E+02 -0.83367084031E+02  0.11969989309E+03  0.80639194738E+02 0.  0.
          6    2    1    2  501    0 -0.33246865329E+02 -0.25893210454E+02 -0.23773093907E+03  0.29752197098E+03  0.17386060917E+03 0.  0.
         24    2    5    5    0    0 -0.11150478057E+02  0.41672993246E+02 -0.19899009524E+03  0.21642705626E+03  0.73366485184E+02 0.  0.
          5    1    5    5  501    0 -0.22096387272E+02 -0.67566203700E+02 -0.38740843829E+02  0.81094914720E+02  0.47000000000E+01 0. -1.
        -13    1    6    6    0    0  0.22846361339E+02  0.44147322621E+02 -0.98854765464E+02  0.11064902610E+03  0.00000000000E+00 0.  1.
         14    1    6    6    0    0 -0.33996839396E+02 -0.24743293749E+01 -0.10013532978E+03  0.10577803016E+03  0.00000000000E+00 0. -1.
         -5    1    3    3    0  503  0.83428419967E+01  0.41865173414E+02  0.44968066305E+02  0.62181289346E+02  0.47000000000E+01 0.  1.
         11    1    4    4    0    0  0.12474684231E+02  0.31410238939E+02 -0.50295362398E+02  0.60595745194E+02  0.00000000000E+00 0. -1.
        -12    1    4    4    0    0  0.12429339102E+02 -0.47382201898E+02 -0.33071721633E+02  0.59104147900E+02  0.00000000000E+00 0.  1.
</event>
<event>
12    1  0.8449700E-002  0.1753907E+03  0.7818608E-02  0.1172711E+00
         21   -1    0    0  503  502  0.00000000000E+00  0.00000000000E+00  0.62467388471E+02  0.62467388471E+02  0.00000000000E+00 0.  1.
         21   -1    0    0  501  503 -0.00000000000E+00 -0.00000000000E+00 -0.75895415196E+03  0.75895415196E+03  0.00000000000E+00 0.  1.
          6    2    1    2  501    0 -0.35385196391E+01 -0.27991162126E+02 -0.59444954392E+03  0.61978395665E+03  0.17310651741E+03 0.  0.
         24    2    3    3    0    0  0.11761619348E+02 -0.69565428908E+02 -0.53459122137E+03  0.54516745250E+03  0.80262648344E+02 0.  0.
         -6    2    1    2    0  502  0.35385196391E+01  0.27991162126E+02 -0.10203721956E+03  0.20163758378E+03  0.17161029904E+03 0.  0.
        -24    2    5    5    0    0 -0.43284767388E+02 -0.31728312231E+02 -0.38035423687E+02  0.10225370329E+03  0.78287096617E+02 0.  0.
          5    1    3    3  501    0 -0.15300138987E+02  0.41574266781E+02 -0.59858322558E+02  0.74616504145E+02  0.47000000000E+01 0. -1.
        -11    1    4    4    0    0 -0.32549983920E+02 -0.17293724261E+02 -0.23233484324E+03  0.23524041688E+03  0.00000000000E+00 0.  1.
         12    1    4    4    0    0  0.44311603268E+02 -0.52271704647E+02 -0.30225637813E+03  0.30992703562E+03  0.00000000000E+00 0. -1.
         -5    1    5    5    0  502  0.46823287027E+02  0.59719474358E+02 -0.64001795874E+02  0.99383880487E+02  0.47000000000E+01 0.  1.
         13    1    6    6    0    0 -0.15742572945E+01  0.56433444310E+01 -0.45392371133E+02  0.45768908437E+02  0.00000000000E+00 0. -1.
        -14    1    6    6    0    0 -0.41710510093E+02 -0.37371656662E+02  0.73569474462E+01  0.56484794854E+02  0.00000000000E+00 0.  1.
</event>
<event>
12    1  0.8449700E-002  0.1860884E+03  0.7818608E-02  0.1162140E+00
         21   -1    0    0  503  502  0.00000000000E+00  0.00000000000E+00  0.31502268912E+03  0.31502268912E+03  0.00000000000E+00 0.  1.
         21   -1    0    0  501  503 -0.00000000000E+00 -0.00000000000E+00 -0.10972841746E+03  0.10972841746E+03  0.00000000000E+00 0.  1.
          6    2    1    2  501    0 -0.53272968339E+02 -0.43742914014E+02  0.10794710255E+03  0.21513126799E+03  0.17285090059E+03 0.  0.
         24    2    3    3    0    0 -0.99829603776E+02 -0.21260489248E+01  0.56451194717E+02  0.13405474681E+03  0.69379160297E+02 0.  0.
         -6    2    1    2    0  502  0.53272968339E+02  0.43742914014E+02  0.97347169105E+02  0.20961983859E+03  0.17237329757E+03 0.  0.
        -24    2    5    5    0    0  0.79727247571E+01 -0.40289517054E+02  0.48631642597E+02  0.10234051130E+03  0.80135722790E+02 0.  0.
          5    1    3    3  501    0  0.46556635437E+02 -0.41616865089E+02  0.51495907835E+02  0.81076521181E+02  0.47000000000E+01 0. -1.
        -11    1    4    4    0    0 -0.94225959051E+02 -0.22268515120E+02  0.58377050073E+02  0.11305882584E+03  0.00000000000E+00 0.  1.
         12    1    4    4    0    0 -0.56036447244E+01  0.20142466195E+02 -0.19258553560E+01  0.20995920972E+02  0.00000000000E+00 0. -1.
         -5    1    5    5    0  502  0.45300243582E+02  0.84032431068E+02  0.48715526509E+02  0.10727932729E+03  0.47000000000E+01 0.  1.
         11    1    6    6    0    0  0.25488467426E+00  0.15467360692E+02  0.43086706074E+02  0.45779563708E+02  0.00000000000E+00 0. -1.
        -12    1    6    6    0    0  0.77178400829E+01 -0.55756877746E+02  0.55449365225E+01  0.56560947593E+02  0.00000000000E+00 0.  1.
</event>
<event>
12    1  0.8449700E-002  0.3009096E+03  0.7818608E-02  0.1084805E+00
         21   -1    0    0  503  502  0.00000000000E+00  0.00000000000E+00  0.52253614463E+03  0.52253614463E+03  0.00000000000E+00 0.  1.
         21   -1    0    0  501  503 -0.00000000000E+00 -0.00000000000E+00 -0.24742941985E+03  0.24742941985E+03  0.00000000000E+00 0. -1.
          6    2    1    2  501    0 -0.23757169800E+03 -0.68275466257E+02 -0.73288147192E+02  0.30970584615E+03  0.17159460259E+03 0.  0.
         24    2    3    3    0    0 -0.23453439017E+03 -0.10105493287E+03 -0.65524494960E+02  0.27555788917E+03  0.80126220503E+02 0.  0.
         -6    2    1    2    0  502  0.23757169800E+03  0.68275466257E+02  0.34839487198E+03  0.46025971833E+03  0.17134226132E+03 0.  0.
        -24    2    5    5    0    0  0.19275968562E+03  0.11991683429E+02  0.17419433038E+03  0.27172882071E+03  0.78694284406E+02 0.  0.
          5    1    3    3  501    0 -0.30373078307E+01  0.32779466612E+02 -0.77636522325E+01  0.34147956985E+02  0.47000000000E+01 0. -1.
        -11    1    4    4    0    0 -0.14438819063E+03 -0.18832051650E+02 -0.37735688180E+02  0.15042133468E+03  0.00000000000E+00 0.  1.
         12    1    4    4    0    0 -0.90146199537E+02 -0.82222881220E+02 -0.27788806779E+02  0.12513655449E+03  0.00000000000E+00 0. -1.
         -5    1    5    5    0  502  0.44812012379E+02  0.56283782829E+02  0.17420054159E+03  0.18853089761E+03  0.47000000000E+01 0.  1.
         13    1    6    6    0    0  0.24725389556E+02  0.24490488481E+02  0.94177533494E+01  0.36053058024E+02  0.00000000000E+00 0. -1.
        -14    1    6    6    0    0  0.16803429606E+03 -0.12498805052E+02  0.16477657703E+03  0.23567576269E+03  0.00000000000E+00 0.  1.
</event>
<event>
12    1  0.8449700E-002  0.2146066E+03  0.7818608E-02  0.1139855E+00
         21   -1    0    0  503  502  0.00000000000E+00  0.00000000000E+00  0.15360776021E+03  0.15360776021E+03  0.00000000000E+00 0.  1.
         21   -1    0    0  501  503 -0.00000000000E+00 -0.00000000000E+00 -0.69167202678E+03  0.69167202678E+03  0.00000000000E+00 0.  1.
          6    2    1    2  501    0  0.38784877791E+02  0.11323192190E+03 -0.58988485729E+03  0.62450527849E+03  0.16648412272E+03 0.  0.
         24    2    3    3    0    0 -0.31866214983E+02  0.55352532472E+02 -0.39781385796E+03  0.41177314783E+03  0.84981769701E+02 0.  0.
         -6    2    1    2    0  502 -0.38784877791E+02 -0.11323192190E+03  0.51820590723E+02  0.22077450849E+03  0.17812993880E+03 0.  0.
        -24    2    5    5    0    0 -0.55975860898E+02 -0.12401853613E+03 -0.80061815903E+01  0.15742457848E+03  0.78768678161E+02 0.  0.
          5    1    3    3  501    0  0.70651092774E+02  0.57879389424E+02 -0.19207099933E+03  0.21273213066E+03  0.47000000000E+01 0. -1.
        -11    1    4    4    0    0  0.17726503430E+02  0.19217866619E+02 -0.25497918303E+03  0.25631609216E+03  0.00000000000E+00 0.  1.
         12    1    4    4    0    0 -0.49592718413E+02  0.36134665852E+02 -0.14283467493E+03  0.15545705567E+03  0.00000000000E+00 0. -1.
         -5    1    5    5    0  502  0.17190983107E+02  0.10786614237E+02  0.59826772313E+02  0.63349930010E+02  0.47000000000E+01 0.  1.
         13    1    6    6    0    0 -0.14481288679E+02 -0.10648343873E+03  0.12005434506E+02  0.10813214556E+03  0.00000000000E+00 0. -1.
        -14    1    6    6    0    0 -0.41494572219E+02 -0.17535097399E+02 -0.20011616096E+02  0.49292432921E+02  0.00000000000E+00 0.  1.
</event>
<event>
12    1  0.8449700E-002  0.2936734E+03  0.7818608E-02  0.1088480E+00
         21   -1    0    0  503  502  0.00000000000E+00  0.00000000000E+00  0.16248090252E+03  0.16248090252E+03  0.00000000000E+00 0. -1.
         21   -1    0    0  501  503 -0.00000000000E+00 -0.00000000000E+00 -0.53825493652E+03  0.53825493652E+03  0.00000000000E+00 0. -1.
          6    2    1    2  501    0  0.22554123544E+03 -0.75803173413E+02 -0.23031200665E+03  0.37301142065E+03  0.17169429095E+03 0.  0.
         24    2    3    3    0    0  0.65171174434E+02 -0.47462713798E+02 -0.39494218603E+02  0.12210256000E+03  0.82760199834E+02 0.  0.
         -6    2    1    2    0  502 -0.22554123544E+03  0.75803173413E+02 -0.14546202735E+03  0.32772441839E+03  0.17213112160E+03 0.  0.
        -24    2    5    5    0    0 -0.16771517137E+03  0.85690241743E+02 -0.41514902473E+02  0.20827274374E+03  0.78631116099E+02 0.  0.
          5    1    3    3  501    0  0.16037006101E+03 -0.28340459616E+02 -0.19081778805E+03  0.25090886065E+03  0.47000000000E+01 0. -1.
        -13    1    4    4    0    0  0.14219584642E+02 -0.26522517260E+02 -0.56868962804E+02  0.64340651533E+02  0.00000000000E+00 0.  1.
         14    1    4    4    0    0  0.50951589792E+02 -0.20940196538E+02  0.17374744201E+02  0.57761908464E+02  0.00000000000E+00 0. -1.
         -5    1    5    5    0  502 -0.57826064074E+02 -0.98870683297E+01 -0.10394712488E+03  0.11945167465E+03  0.47000000000E+01 0.  1.
         11    1    6    6    0    0 -0.40011098143E+02  0.15746173153E+02  0.23287688328E+02  0.48899349395E+02  0.00000000000E+00 0. -1.
        -12    1    6    6    0    0 -0.12770407323E+03  0.69944068590E+02 -0.64802590801E+02  0.15937339434E+03  0.00000000000E+00 0.  1.
</event>
<event>
12    1  0.8449700E-002  0.2364349E+03  0.7818608E-02  0.1122277E+00
         21   -1    0    0  501  502  0.00000000000E+00  0.00000000000E+00  0.19421800903E+03  0.19421800903E+03  0.00000000000E+00 0.  1.
         21   -1    0    0  502  503 -0.00000000000E+00 -0.00000000000E+00 -0.39399208283E+03  0.39399208283E+03  0.00000000000E+00 0.  1.
         -6    2    1    2    0  503 -0.15308713804E+03  0.50576397012E+02  0.53302442327E+02  0.24187329039E+03  0.17224370664E+03 0.  0.
        -24    2    3    3    0    0 -0.59001084870E+02  0.89539845437E+02  0.26598836155E+02  0.13649061488E+03  0.80147850440E+02 0.  0.
          6    2    1    2  501    0  0.15308713804E+03 -0.50576397012E+02 -0.25307651613E+03  0.34633680146E+03  0.17293875582E+03 0.  0.
         24    2    5    5    0    0  0.67223221396E+02  0.90594173865E+01 -0.38034086969E+02  0.10718333844E+03  0.73760705856E+02 0.  0.
          5    1    5    5  501    0  0.85863916641E+02 -0.59635814399E+02 -0.21504242916E+03  0.23915346303E+03  0.47000000000E+01 0. -1.
        -11    1    6    6    0    0  0.83054334338E+02  0.41990895717E+01 -0.27650238966E+02  0.87636696198E+02  0.00000000000E+00 0.  1.
         12    1    6    6    0    0 -0.15831112942E+02  0.48603278148E+01 -0.10383848003E+02  0.19546642238E+02  0.00000000000E+00 0. -1.
         -5    1    3    3    0  503 -0.94086053167E+02 -0.38963448425E+02  0.26703606172E+02  0.10538267550E+03  0.47000000000E+01 0.  1.
         11    1    4    4    0    0 -0.37628221813E+02  0.92104040646E+02 -0.34185136877E+01  0.99552617323E+02  0.00000000000E+00 0. -1.
        -12    1    4    4    0    0 -0.21372863057E+02 -0.25641952084E+01  0.30017349842E+02  0.36937997562E+02  0.00000000000E+00 0.  1.
</event>
<event>
12    1  0.8449700E-002  0.2128197E+03  0.7818608E-02  0.1139979E+00
         21   -1    0    0  503  502  0.00000000000E+00  0.00000000000E+00  0.34472216170E+03  0.34472216170E+03  0.00000000000E+00 0.  1.
         21   -1    0    0  501  503 -0.00000000000E+00 -0.00000000000E+00 -0.13248908878E+03  0.13248908878E+03  0.00000000000E+00 0. -1.
          6    2    1    2  501    0 -0.12226389771E+03 -0.59173787183E+01  0.69029912711E+02  0.22069738279E+03  0.17017264723E+03 0.  0.
         24    2    3    3    0    0 -0.14965361818E+03 -0.83415269471E+01  0.33471322528E+02  0.17550250899E+03  0.84941242762E+02 0.  0.
         -6    2    1    2    0  502  0.12226389771E+03  0.59173787183E+01  0.14320316022E+03  0.25651386769E+03  0.17409406414E+03 0.  0.
        -24    2    5    5    0    0  0.94755660900E+02 -0.62821723659E+02  0.89031774716E+02  0.16465312365E+03  0.79112514712E+02 0.  0.
          5    1    3    3  501    0  0.27389720468E+02  0.24241482289E+01  0.35558590183E+02  0.45194873800E+02  0.47000000000E+01 0. -1.
        -11    1    4    4    0    0 -0.92807513851E+02  0.27884081012E+02 -0.65194771244E+01  0.97124971985E+02  0.00000000000E+00 0.  1.
         12    1    4    4    0    0 -0.56846104331E+02 -0.36225607959E+02  0.39990799653E+02  0.78377537002E+02  0.00000000000E+00 0. -1.
         -5    1    5    5    0  502  0.27508236814E+02  0.68739102377E+02  0.54171385502E+02  0.91860744039E+02  0.47000000000E+01 0.  1.
         13    1    6    6    0    0 -0.10062084450E+02 -0.24980992489E+02  0.14493500708E+02  0.30583608224E+02  0.00000000000E+00 0. -1.
        -14    1    6    6    0    0  0.10481774535E+03 -0.37840731169E+02  0.74538274007E+02  0.13406951543E+03  0.00000000000E+00 0.  1.
</event>
<event>
12    1  0.8449700E-002  0.1908371E+03  0.7818608E-02  0.1159738E+00
         21   -1    0    0  501  502  0.00000000000E+00  0.00000000000E+00  0.46709931637E+02  0.46709931637E+02  0.00000000000E+00 0. -1.
         21   -1    0    0  502  503 -0.00000000000E+00 -0.00000000000E+00 -0.75224846961E+03  0.75224846961E+03  0.00000000000E+00 0. -1.
         -6    2    1    2    0  503 -0.31524846351E+02 -0.52296556798E+02 -0.40275844151E+03  0.44568278859E+03  0.18080387177E+03 0.  0.
        -24    2    3    3    0    0  0.42797874910E+02  0.11811204798E+02 -0.16098300853E+03  0.18470171267E+03  0.78917874868E+02 0.  0.
          6    2    1    2  501    0  0.31524846351E+02  0.52296556798E+02 -0.30278009647E+03  0.35327561266E+03  0.17146173304E+03 0.  0.
         24    2    5    5    0    0  0.21590441230E+02  0.23670439290E+02 -0.65822639755E+02  0.11434241426E+03  0.87835818123E+02 0.  0.
          5    1    5    5  501    0  0.99344051214E+01  0.28626117509E+02 -0.23695745671E+03  0.23893319841E+03  0.47000000000E+01 0. -1.
        -11    1    6    6    0    0  0.44898708610E+02 -0.15140310379E+02 -0.41299653768E+02  0.62855265766E+02  0.00000000000E+00 0.  1.
         12    1    6    6    0    0 -0.23308267380E+02  0.38810749669E+02 -0.24522985987E+02  0.51487148492E+02  0.00000000000E+00 0. -1.
         -5    1    3    3    0  503 -0.74322721261E+02 -0.64107761596E+02 -0.24177543298E+03  0.26098107591E+03  0.47000000000E+01 0.  1.
         11    1    4    4    0    0  0.64496118588E+01  0.19264455519E+02 -0.85757498639E+00  0.20333523414E+02  0.00000000000E+00 0. -1.
        -12    1    4    4    0    0  0.36348263051E+02 -0.74532507212E+01 -0.16012543354E+03  0.16436818926E+03  0.00000000000E+00 0.  1.
</event>
<event>
12    1  0.8449700E-002  0.2119368E+03  0.7818608E-02  0.1140082E+00
         21   -1    0    0  503  502  0.00000000000E+00  0.00000000000E+00  0.28178186520E+03  0.28178186520E+03  0.00000000000E+00 0.  1.
         21   -1    0    0  501  503 -0.00000000000E+00 -0.00000000000E+00 -0.41542822793E+03  0.41542822793E+03  0.00000000000E+00 0.  1.
          6    2    1    2  501    0 -0.12089819088E+03  0.29206288689E+02 -0.34056263747E+03  0.40101497739E+03  0.17134970730E+03 0.  0.
         24    2    3    3    0    0 -0.35668967311E+02  0.73658991763E+02 -0.20966556110E+03  0.23854590968E+03  0.79035316257E+02 0.  0.
         -6    2    1    2    0  502  0.12089819088E+03 -0.29206288689E+02  0.20691627475E+03  0.29619511573E+03  0.17160367704E+03 0.  0.
        -24    2    5    5    0    0  0.69445597499E+02 -0.83662534079E+02  0.14544983942E+03  0.19917416594E+03  0.81808202332E+02 0.  0.
          5    1    3    3  501    0 -0.85229223573E+02 -0.44452703075E+02 -0.13089707637E+03  0.16246906771E+03  0.47000000000E+01 0. -1.
        -11    1    4    4    0    0 -0.29091243250E+02  0.94420890528E+01 -0.16232622331E+02  0.34625879155E+02  0.00000000000E+00 0.  1.
         12    1    4    4    0    0 -0.65777240613E+01  0.64216902711E+02 -0.19343293877E+03  0.20392003052E+03  0.00000000000E+00 0. -1.
         -5    1    5    5    0  502  0.51452593385E+02  0.54456245390E+02  0.61466435323E+02  0.97020949796E+02  0.47000000000E+01 0.  1.
         13    1    6    6    0    0 -0.68258580476E+01 -0.53542571040E+02  0.54221780396E+02  0.76507520682E+02  0.00000000000E+00 0. -1.
        -14    1    6    6    0    0  0.76271455547E+02 -0.30119963039E+02  0.91228059027E+02  0.12266664526E+03  0.00000000000E+00 0.  1.
</event>
<event>
12    1  0.8449700E-002  0.1770472E+03  0.7818608E-02  0.1170775E+00
         21   -1    0    0  501  502  0.00000000000E+00  0.00000000000E+00  0.98461994276E+02  0.98461994276E+02  0.00000000000E+00 0.  1.
         21   -1    0    0  502  503 -0.00000000000E+00 -0.00000000000E+00 -0.32745333002E+03  0.32745333002E+03  0.00000000000E+00 0.  1.
         -6    2    1    2    0  503  0.32031978664E+02 -0.25650369215E+02 -0.15126674985E+03  0.23286760954E+03  0.17222573810E+03 0.  0.
        -24    2    3    3    0    0 -0.45043805959E+02 -0.13731101815E+02 -0.11713684340E+03  0.14760515576E+03  0.76477148957E+02 0.  0.
          6    2    1    2  501    0 -0.32031978664E+02  0.25650369215E+02 -0.77724585894E+02  0.19304771476E+03  0.17187879399E+03 0.  0.
         24    2    5    5    0    0 -0.10575450518E+02 -0.48708230056E+02 -0.66733386269E+02  0.11473755989E+03  0.78911538943E+02 0.  0.
          5    1    5    5  501    0 -0.21456528146E+02  0.74358599271E+02 -0.10991199625E+02  0.78310154864E+02  0.47000000000E+01 0. -1.
        -13    1    6    6    0    0 -0.16726313901E+02 -0.54028126268E+02 -0.80717784836E+02  0.98560482921E+02  0.00000000000E+00 0.  1.
         14    1    6    6    0    0  0.61508633830E+01  0.53198962120E+01  0.13984398567E+02  0.16177076972E+02  0.00000000000E+00 0. -1.
         -5    1    3    3    0  503  0.77075784622E+02 -0.11919267401E+02 -0.34129906454E+02  0.85262453783E+02  0.47000000000E+01 0.  1.
         11    1    4    4    0    0 -0.54065615087E+02  0.55407993964E+01 -0.39717487392E+02  0.67314708626E+02  0.00000000000E+00 0. -1.
        -12    1    4    4    0    0  0.90218091283E+01 -0.19271901211E+02 -0.77419356003E+02  0.80290447129E+02  0.00000000000E+00 0.  1.
</event>
<event>
12    1  0.8449700E-002  0.1775809E+03  0.7818608E-02  0.1170385E+00
         21   -1    0    0  501  502  0.00000000000E+00  0.00000000000E+00  0.66259284658E+03  0.66259284658E+03  0.00000000000E+00 0.  1.
         21   -1    0    0  502  503 -0.00000000000E+00 -0.00000000000E+00 -0.37448290354E+03  0.37448290354E+03  0.00000000000E+00 0.  1.
         -6    2    1    2    0  503 -0.23956363836E+02 -0.37416207548E+02 -0.34054376751E+03  0.38406383503E+03  0.17193339360E+03 0.  0.
        -24    2    3    3    0    0  0.19249186768E+02 -0.77464078600E+02 -0.17738981434E+03  0.21053615997E+03  0.80542620753E+02 0.  0.
          6    2    1    2  501    0  0.23956363836E+02  0.37416207548E+02  0.62865371055E+03  0.65301191509E+03  0.17101226130E+03 0.  0.
         24    2    5    5    0    0 -0.11510847653E+02 -0.38126858639E+02  0.40016152006E+03  0.40971076620E+03  0.78406076549E+02 0.  0.
          5    1    5    5  501    0  0.35467211489E+02  0.75543066186E+02  0.22849219049E+03  0.24330114889E+03  0.47000000000E+01 0. -1.
        -11    1    6    6    0    0  0.16563805721E+02 -0.42507231957E+01  0.17284998139E+02  0.24314593731E+02  0.00000000000E+00 0.  1.
         12    1    6    6    0    0 -0.28074653374E+02 -0.33876135443E+02  0.38287652192E+03  0.38539617247E+03  0.00000000000E+00 0. -1.
         -5    1    3    3    0  503 -0.43205550604E+02  0.40047871053E+02 -0.16315395317E+03  0.17352767506E+03  0.47000000000E+01 0.  1.
         13    1    4    4    0    0 -0.63940366224E+01  0.12037644648E+01  0.63090214910E+01  0.90629192531E+01  0.00000000000E+00 0. -1.
        -14    1    4    4    0    0  0.25643223390E+02 -0.78667843065E+02 -0.18369883583E+03  0.20147324072E+03  0.00000000000E+00 0.  1.
</event>
<event>
12    1  0.8449700E-002  0.1986367E+03  0.7818608E-02  0.1152660E+00
         21   -1    0    0  501  502  0.00000000000E+00  0.00000000000E+00  0.20042543676E+03  0.20042543676E+03  0.00000000000E+00 0.  1.
         21   -1    0    0  502  503 -0.00000000000E+00 -0.00000000000E+00 -0.18890778470E+03  0.18890778470E+03  0.00000000000E+00 0.  1.
         -6    2    1    2    0  503 -0.92853341981E+02  0.22106940243E+02  0.64888507762E+01  0.19874265921E+03  0.17420126142E+03 0.  0.
        -24    2    3    3    0    0 -0.12909873873E+03  0.60765619155E+01  0.29052330818E+02  0.15289614956E+03  0.76353033197E+02 0.  0.
          6    2    1    2  501    0  0.92853341981E+02 -0.22106940243E+02  0.50288012918E+01  0.19059056225E+03  0.16489091440E+03 0.  0.
         24    2    5    5    0    0  0.27043269870E+02  0.43227946809E+02 -0.13168149757E+02  0.95971155760E+02  0.80231345117E+02 0.  0.
          5    1    5    5  501    0  0.65810072111E+02 -0.65334887053E+02  0.18196951048E+02  0.94619406492E+02  0.47000000000E+01 0. -1.
        -13    1    6    6    0    0  0.37116173968E+02 -0.11655179213E+02 -0.95268377003E+01  0.40052642973E+02  0.00000000000E+00 0.  1.
         14    1    6    6    0    0 -0.10072904098E+02  0.54883126022E+02 -0.36413120563E+01  0.55918512788E+02  0.00000000000E+00 0. -1.
         -5    1    3    3    0  503  0.36245396750E+02  0.16030378328E+02 -0.22563480041E+02  0.45846509644E+02  0.47000000000E+01 0.  1.
         11    1    4    4    0    0 -0.29561583332E+02 -0.25598552769E+02  0.28587058508E+02  0.48439581203E+02  0.00000000000E+00 0. -1.
        -12    1    4    4    0    0 -0.99537155399E+02  0.31675114684E+02  0.46527230992E+00  0.10445656836E+03  0.00000000000E+00 0.  1.
</event>
<event>
12    1  0.8449700E-002  0.2100764E+03  0.7818608E-02  0.1141654E+00
         21   -1    0    0  503  502  0.00000000000E+00  0.00000000000E+00  0.36195816664E+03  0.36195816664E+03  0.00000000000E+00 0.  1.
         21   -1    0    0  501  503 -0.00000000000E+00 -0.00000000000E+00 -0.18970604086E+03  0.18970604086E+03  0.00000000000E+00 0.  1.
          6    2    1    2  501    0  0.15891449208E+02  0.11901092477E+03 -0.79178528307E+02  0.22450241545E+03  0.17238316862E+03 0.  0.
         24    2    3    3    0    0  0.22258659189E+02  0.13497216574E+03 -0.10739301038E+03  0.19113402360E+03  0.79284442760E+02 0.  0.
         -6    2    1    2    0  502 -0.15891449208E+02 -0.11901092477E+03  0.25143065409E+03  0.32716179205E+03  0.17146814861E+03 0.  0.
        -24    2    5    5    0    0 -0.44976132916E+02 -0.67096241035E+02  0.68315997478E+02  0.13456345176E+03  0.83159418868E+02 0.  0.
          5    1    3    3  501    0 -0.63672099803E+01 -0.15961240967E+02  0.28214482073E+02  0.33368391852E+02  0.47000000000E+01 0. -1.
        -11    1    4    4    0    0  0.44116900330E+02  0.45889934591E+02 -0.26930209972E+02  0.69118906245E+02  0.00000000000E+00 0.  1.
         12    1    4    4    0    0 -0.21858241141E+02  0.89082231150E+02 -0.80462800409E+02  0.12201511735E+03  0.00000000000E+00 0. -1.
         -5    1    5    5    0  502  0.29084683708E+02 -0.51914683738E+02  0.18311465662E+03  0.19259834029E+03  0.47000000000E+01 0.  1.
         13    1    6    6    0    0 -0.51463338344E+02 -0.95026700307E+01  0.11873934818E+02  0.53663453665E+02  0.00000000000E+00 0. -1.
        -14    1    6    6    0    0  0.64872054276E+01 -0.57593571004E+02  0.56442062660E+02  0.80899998100E+02  0.00000000000E+00 0.  1.
</event>
<event>
12    1  0.8449700E-002  0.2230272E+03  0.7818608E-02  0.1132121E+00
         21   -1    0    0  501  502  0.00000000000E+00  0.00000000000E+00  0.16782522483E+03  0.16782522483E+03  0.00000000000E+00 0. -1.
         21   -1    0    0  502  503 -0.00000000000E+00 -0.00000000000E+00 -0.53761009655E+03  0.53761009655E+03  0.00000000000E+00 0. -1.
         -6    2    1    2    0  503 -0.10009737855E+03  0.97712469695E+02 -0.42223890418E+03  0.47632282329E+03  0.17038347295E+03 0.  0.
        -24    2    3    3    0    0 -0.20894494372E+02  0.96171422267E+02 -0.17206412049E+03  0.21386333293E+03  0.80286619390E+02 0.  0.
          6    2    1    2  501    0  0.10009737855E+03 -0.97712469695E+02  0.52454032462E+02  0.22911249809E+03  0.17370635951E+03 0.  0.
         24    2    5    5    0    0  0.42160546060E+02  0.24625292750E+01  0.66811636756E+02  0.11240800898E+03  0.79926153310E+02 0.  0.
          5    1    5    5  501    0  0.57936832487E+02 -0.10017499897E+03 -0.14357604293E+02  0.11670448911E+03  0.47000000000E+01 0. -1.
        -13    1    6    6    0    0  0.58590974617E+02  0.16822991161E+02  0.26293243915E+02  0.66387122348E+02  0.00000000000E+00 0.  1.
         14    1    6    6    0    0 -0.16430428557E+02 -0.14360461886E+02  0.40518392841E+02  0.46020886634E+02  0.00000000000E+00 0. -1.
         -5    1    3    3    0  503 -0.79202884174E+02  0.15410474287E+01 -0.25017478369E+03  0.26245949036E+03  0.47000000000E+01 0.  1.
         11    1    4    4    0    0 -0.32019665863E+02  0.78772747807E+02 -0.17344347646E+03  0.19316584669E+03  0.00000000000E+00 0. -1.
        -12    1    4    4    0    0  0.11125171491E+02  0.17398674460E+02  0.13793559696E+01  0.20697486238E+02  0.00000000000E+00 0.  1.
</event>
<event>
12    1  0.8449700E-002  0.2532314E+03  0.7818608E-02  0.1111424E+00
         21   -1    0    0  503  502  0.00000000000E+00  0.00000000000E+00  0.17825455136E+04  0.17825455136E+04  0.00000000000E+00 0.  1.
         21   -1    0    0  501  503 -0.00000000000E+00 -0.00000000000E+00 -0.36271064193E+02  0.36271064193E+02  0.00000000000E+00 0. -1.
          6    2    1    2  501    0 -0.66212315589E+02  0.17321767318E+03  0.77590472139E+03  0.81618276322E+03  0.17244631998E+03 0.  0.
         24    2    3    3    0    0 -0.24033732242E+02  0.18975321077E+03  0.65922600106E+03  0.69092913783E+03  0.78868572626E+02 0.  0.
         -6    2    1    2    0  502  0.66212315589E+02 -0.17321767318E+03  0.97036972806E+03  0.10026338146E+04  0.17108104520E+03 0.  0.
        -24    2    5    5    0    0  0.31500521482E+02 -0.17636705809E+03  0.61782156680E+03  0.64833574337E+03  0.80858677309E+02 0.  0.
          5    1    3    3  501    0 -0.42178583347E+02 -0.16535537588E+02  0.11667872032E+03  0.12525362539E+03  0.47000000000E+01 0. -1.
        -11    1    4    4    0    0  0.23567942329E+02  0.22656730100E+02  0.12213943636E+03  0.12643898623E+03  0.00000000000E+00 0.  1.
         12    1    4    4    0    0 -0.47601674571E+02  0.16709648067E+03  0.53708656470E+03  0.56449015160E+03  0.00000000000E+00 0. -1.
         -5    1    5    5    0  502  0.34711794107E+02  0.31493849096E+01  0.35254816126E+03  0.35429807124E+03  0.47000000000E+01 0.  1.
         13    1    6    6    0    0  0.29741906517E+02 -0.66991922219E+02  0.13860091487E+03  0.15678875039E+03  0.00000000000E+00 0. -1.
        -14    1    6    6    0    0  0.17586149653E+01 -0.10937513587E+03  0.47922065192E+03  0.49154699298E+03  0.00000000000E+00 0.  1.
</event>
<event>
12    1  0.8449700E-002  0.2455270E+03  0.7818608E-02  0.1118415E+00
         21   -1    0    0  501  502  0.00000000000E+00  0.00000000000E+00  0.10636031816E+04  0.10636031816E+04  0.00000000000E+00 0.  1.
         21   -1    0    0  502  503 -0.00000000000E+00 -0.00000000000E+00 -0.55954207117E+02  0.55954207117E+02  0.00000000000E+00 0. -1.
         -6    2    1    2    0  503 -0.31542451172E+02  0.15620909564E+03  0.40281399765E+03  0.47174425619E+03  0.18678147328E+03 0.  0.
        -24    2    3    3    0    0  0.44696219543E+02  0.13936163997E+03  0.25729061753E+03  0.30653131530E+03  0.79646510640E+02 0.  0.
          6    2    1    2  501    0  0.31542451172E+02 -0.15620909564E+03  0.60483497682E+03  0.64781313251E+03  0.16864251446E+03 0.  0.
         24    2    5    5    0    0  0.78216687652E+02 -0.81526085894E+02  0.29969496374E+03  0.33018354655E+03  0.80248054267E+02 0.  0.
          5    1    5    5  501    0 -0.46674236480E+02 -0.74683009748E+02  0.30514001308E+03  0.31762958596E+03  0.47000000000E+01 0. -1.
        -13    1    6    6    0    0  0.57996372133E+02 -0.96744662404E+02  0.25471483437E+03  0.27857271175E+03  0.00000000000E+00 0.  1.
         14    1    6    6    0    0  0.20220315519E+02  0.15218576510E+02  0.44980129375E+02  0.51610834805E+02  0.00000000000E+00 0. -1.
         -5    1    3    3    0  503 -0.76238670715E+02  0.16847455675E+02  0.14552338012E+03  0.16521294088E+03  0.47000000000E+01 0.  1.
         13    1    4    4    0    0  0.17546465619E+02  0.13819705922E+03  0.21048285416E+03  0.25240708692E+03  0.00000000000E+00 0. -1.
        -14    1    4    4    0    0  0.27149753924E+02  0.11645807501E+01  0.46807763374E+02  0.54124228387E+02  0.00000000000E+00 0.  1.
</event>
<event>
12    1  0.8449700E-002  0.2108115E+03  0.7818608E-02  0.1140936E+00
         21   -1    0    0  501  502  0.00000000000E+00  0.00000000000E+00  0.20538120227E+02  0.20538120227E+02  0.00000000000E+00 0. -1.
         21   -1    0    0  502  503 -0.00000000000E+00 -0.00000000000E+00 -0.21669518434E+04  0.21669518434E+04  0.00000000000E+00 0. -1.
         -6    2    1    2    0  503 -0.10620304101E+03  0.60660839231E+02 -0.11183692124E+04  0.11380646662E+04  0.17170517140E+03 0.  0.
        -24    2    3    3    0    0 -0.10394500028E+03  0.10356809301E+03 -0.85356930892E+03  0.86976034262E+03  0.79822149070E+02 0.  0.
          6    2    1    2  501    0  0.10620304101E+03 -0.60660839231E+02 -0.10280445108E+04  0.10494252974E+04  0.17163657943E+03 0.  0.
         24    2    5    5    0    0  0.75170904740E+02 -0.56898382051E+01 -0.88372388376E+03  0.89183298221E+03  0.93354840449E+02 0.  0.
          5    1    5    5  501    0  0.31032136269E+02 -0.54971001026E+02 -0.14432062703E+03  0.15759231523E+03  0.47000000000E+01 0. -1.
        -13    1    6    6    0    0 -0.17632164265E+02 -0.17829068133E+02 -0.24655062375E+03  0.24782247468E+03  0.00000000000E+00 0.  1.
         14    1    6    6    0    0  0.92803069005E+02  0.12139229927E+02 -0.63717326002E+03  0.64401050752E+03  0.00000000000E+00 0. -1.
         -5    1    3    3    0  503 -0.22580407326E+01 -0.42907253780E+02 -0.26479990344E+03  0.26830432355E+03  0.47000000000E+01 0.  1.
         11    1    4    4    0    0 -0.27876213576E+02  0.69471254316E+02 -0.26690828997E+03  0.27720637387E+03  0.00000000000E+00 0. -1.
        -12    1    4    4    0    0 -0.76068786700E+02  0.34096838695E+02 -0.58666101895E+03  0.59255396874E+03  0.00000000000E+00 0.  1.
</event>
<event>
12    1  0.8449700E-002  0.1898520E+03  0.7818608E-02  0.1159707E+00
         21   -1    0    0  501  502  0.00000000000E+00  0.00000000000E+00  0.24731481348E+03  0.24731481348E+03  0.00000000000E+00 0. -1.
         21   -1    0    0  502  503 -0.00000000000E+00 -0.00000000000E+00 -0.16372050842E+03  0.16372050842E+03  0.00000000000E+00 0. -1.
         -6    2    1    2    0  503 -0.68633992327E+02  0.24215416652E+02  0.11612189659E+03  0.21841700025E+03  0.17007257223E+03 0.  0.
        -24    2    3    3    0    0  0.16664545806E+02 -0.25842179552E+01  0.97023309438E+02  0.12686970617E+03  0.79987589657E+02 0.  0.
          6    2    1    2  501    0  0.68633992327E+02 -0.24215416652E+02 -0.32527591529E+02  0.19261832165E+03  0.17534754722E+03 0.  0.
         24    2    5    5    0    0  0.24603392427E+02 -0.80768919911E+02 -0.16948628458E+02  0.11912147444E+03  0.82302638622E+02 0.  0.
          5    1    5    5  501    0  0.44030599900E+02  0.56553503259E+02 -0.15578963070E+02  0.73496847203E+02  0.47000000000E+01 0. -1.
        -13    1    6    6    0    0  0.33576557896E+02 -0.93062148071E+02 -0.37974161168E+01  0.99006913965E+02  0.00000000000E+00 0.  1.
         14    1    6    6    0    0 -0.89731654692E+01  0.12293228160E+02 -0.13151212342E+02  0.20114560477E+02  0.00000000000E+00 0. -1.
         -5    1    3    3    0  503 -0.85298538132E+02  0.26799634607E+02  0.19098587152E+02  0.91547294082E+02  0.47000000000E+01 0.  1.
         13    1    4    4    0    0 -0.19239780135E+02 -0.14417261875E+02  0.14437463305E+01  0.24085493208E+02  0.00000000000E+00 0. -1.
        -14    1    4    4    0    0  0.35904325941E+02  0.11833043920E+02  0.95579563108E+02  0.10278421296E+03  0.00000000000E+00 0.  1.
</event>
<event>
12    1  0.8449700E-002  0.2181600E+03  0.7818608E-02  0.1135493E+00
         21   -1    0    0  503  502  0.00000000000E+00  0.00000000000E+00  0.29174928554E+03  0.29174928554E+03  0.00000000000E+00 0. -1.
         21   -1    0    0  501  503 -0.00000000000E+00 -0.00000000000E+00 -0.16448518339E+03  0.16448518339E+03  0.00000000000E+00 0. -1.
          6    2    1    2  501    0  0.10189948043E+03 -0.88541218468E+02  0.36681915566E+02  0.22001652109E+03  0.16981947811E+03 0.  0.
         24    2    3    3    0    0  0.79358155132E+01 -0.93435266941E+02  0.33906184274E+02  0.12576729447E+03  0.76646309432E+02 0.  0.
         -6    2    1    2    0  502 -0.10189948043E+03  0.88541218468E+02  0.90582186580E+02  0.23621794783E+03  0.17137892190E+03 0.  0.
        -24    2    5    5    0    0 -0.78545831620E+01 -0.13094252206E+02  0.40190566549E+02  0.88787906895E+02  0.77684341110E+02 0.  0.
          5    1    3    3  501    0  0.93963664919E+02  0.48940484722E+01  0.27757312928E+01  0.94249226627E+02  0.47000000000E+01 0. -1.
        -13    1    4    4    0    0 -0.29242906115E+02 -0.27640594240E+02 -0.53743106851E+01  0.40595975457E+02  0.00000000000E+00 0.  1.
         14    1    4    4    0    0  0.37178721628E+02 -0.65794672701E+02  0.39280494959E+02  0.85171319010E+02  0.00000000000E+00 0. -1.
         -5    1    5    5    0  502 -0.94044897271E+02  0.10163547067E+03  0.50391620031E+02  0.14743004094E+03  0.47000000000E+01 0.  1.
         13    1    6    6    0    0 -0.21161693767E+02  0.18705074468E+02 -0.81679110151E+01  0.29400882033E+02  0.00000000000E+00 0. -1.
        -14    1    6    6    0    0  0.13307110605E+02 -0.31799326675E+02  0.48358477564E+02  0.59387024862E+02  0.00000000000E+00 0.  1.
</event>
<event>
12    1  0.8449700E-002  0.1832637E+03  0.7818608E-02  0.1165136E+00
         21   -1    0    0  503  502  0.00000000000E+00  0.00000000000E+00  0.37360644409E+02  0.37360644409E+02  0.00000000000E+00 0. -1.
         21   -1    0    0  501  503 -0.00000000000E+00 -0.00000000000E+00 -0.10407119635E+04  0.10407119635E+04  0.00000000000E+00 0. -1.
          6    2    1    2  501    0  0.11043333130E+01 -0.58367202854E+02 -0.70932425494E+03  0.73261618015E+03  0.17371706548E+03 0.  0.
         24    2    3    3    0    0 -0.60511209199E+02 -0.90712441467E+01 -0.46358442974E+03  0.47447529165E+03  0.80451134086E+02 0.  0.
         -6    2    1    2    0  502 -0.11043333130E+01  0.58367202854E+02 -0.29402706410E+03  0.34545642772E+03  0.17169822104E+03 0.  0.
        -24    2    5    5    0    0  0.18522111085E+02  0.55402456270E+02 -0.66196278965E+02  0.11671433781E+03  0.76339953764E+02 0.  0.
          5    1    3    3  501    0  0.61615542512E+02 -0.49295958707E+02 -0.24573982520E+03  0.25814088849E+03  0.47000000000E+01 0. -1.
        -11    1    4    4    0    0  0.49437872820E+01  0.13032471229E+02 -0.14519538255E+02  0.20127178892E+02  0.00000000000E+00 0.  1.
         12    1    4    4    0    0 -0.65454996482E+02 -0.22103715376E+02 -0.44906489149E+03  0.45434811276E+03  0.00000000000E+00 0. -1.
         -5    1    5    5    0  502 -0.19626444398E+02  0.29647465833E+01 -0.22783078513E+03  0.22874208991E+03  0.47000000000E+01 0.  1.
         11    1    6    6    0    0  0.45372393361E+02  0.18326131034E+02 -0.44140092524E+02  0.65900295340E+02  0.00000000000E+00 0. -1.
        -12    1    6    6    0    0 -0.26850282275E+02  0.37076325237E+02 -0.22056186441E+02  0.50814042465E+02  0.00000000000E+00 0.  1.
</event>
<event>
12    1  0.8449700E-002  0.1739961E+03  0.7818608E-02  0.1174087E+00
         21   -1    0    0  501  502  0.00000000000E+00  0.00000000000E+00  0.16613331756E+03  0.16613331756E+03  0.00000000000E+00 0.  1.
         21   -1    0    0  502  503 -0.00000000000E+00 -0.00000000000E+00 -0.18205308811E+03  0.18205308811E+03  0.00000000000E+00 0.  1.
         -6    2    1    2    0  503  0.93121249745E+01  0.16664897219E+02  0.64159396315E+01  0.17276254976E+03  0.17158467253E+03 0.  0.
        -24    2    3    3    0    0  0.68127560473E+02  0.11615121365E+02 -0.19497653201E+02  0.10812231475E+03  0.80833167237E+02 0.  0.
          6    2    1    2  501    0 -0.93121249745E+01 -0.16664897219E+02 -0.22335710186E+02  0.17542385591E+03  0.17294568743E+03 0.  0.
         24    2    5    5    0    0  0.72889835878E+01 -0.55388218824E+02 -0.63225722176E+02  0.11652414859E+03  0.80370399990E+02 0.  0.
          5    1    5    5  501    0 -0.16601108562E+02  0.38723321605E+02  0.40890011990E+02  0.58899707318E+02  0.47000000000E+01 0. -1.
        -13    1    6    6    0    0  0.33344304403E+02 -0.61873088329E+02 -0.51957132717E+02  0.87405179112E+02  0.00000000000E+00 0.  1.
         14    1    6    6    0    0 -0.26055320815E+02  0.64848695048E+01 -0.11268589459E+02  0.29118969482E+02  0.00000000000E+00 0. -1.
         -5    1    3    3    0  503 -0.58815435498E+02  0.50497758549E+01  0.25913592832E+02  0.64640235013E+02  0.47000000000E+01 0.  1.
         13    1    4    4    0    0 -0.14358927659E+00  0.98353333722E+01 -0.36451262327E+02  0.37755117873E+02  0.00000000000E+00 0. -1.
        -14    1    4    4    0    0  0.68271149749E+02  0.17797879924E+01  0.16953609126E+02  0.70367196873E+02  0.00000000000E+00 0.  1.
</event>
<event>
12    1  0.8449700E-002  0.1889789E+03  0.7818608E-02  0.1159772E+00
         21   -1    0    0  503  502  0.00000000000E+00  0.00000000000E+00  0.17507840575E+04  0.17507840575E+04  0.00000000000E+00 0.  1.
         21   -1    0    0  501  503 -0.00000000000E+00 -0.00000000000E+00 -0.22418588723E+02  0.22418588723E+02  0.00000000000E+00 0. -1.
          6    2    1    2  501    0  0.29483032988E+01 -0.78964466555E+02  0.58978592309E+03  0.61932257911E+03  0.17166520454E+03 0.  0.
         24    2    3    3    0    0 -0.22118117486E+00 -0.12213980332E+03  0.43665711476E+03  0.46012246203E+03  0.78262786291E+02 0.  0.
         -6    2    1    2    0  502 -0.29483032988E+01  0.78964466555E+02  0.11385795457E+04  0.11538800671E+04  0.16979914003E+03 0.  0.
        -24    2    5    5    0    0 -0.40910549337E+02 -0.87661002318E+01  0.43060769908E+03  0.43946841403E+03  0.77194422487E+02 0.  0.
          5    1    3    3  501    0  0.31694844737E+01  0.43175336769E+02  0.15312880833E+03  0.15920011708E+03  0.47000000000E+01 0. -1.
        -11    1    4    4    0    0 -0.11039043216E+02 -0.43452921760E+02  0.28901325776E+03  0.29246996435E+03  0.00000000000E+00 0.  1.
         12    1    4    4    0    0  0.10817862041E+02 -0.78686881564E+02  0.14764385699E+03  0.16765249768E+03  0.00000000000E+00 0. -1.
         -5    1    5    5    0  502  0.37962246038E+02  0.87730566787E+02  0.70797184661E+03  0.71441165309E+03  0.47000000000E+01 0.  1.
         11    1    6    6    0    0 -0.10947223165E+02  0.32829127675E+02  0.13032807914E+03  0.13484436040E+03  0.00000000000E+00 0. -1.
        -12    1    6    6    0    0 -0.29963326172E+02 -0.41595227907E+02  0.30027961993E+03  0.30462405363E+03  0.00000000000E+00 0.  1.
</event>
<event>
12    1  0.8449700E-002  0.1932615E+03  0.7818608E-02  0.1156595E+00
         21   -1    0    0  503  502  0.00000000000E+00  0.00000000000E+00  0.87258342754E+03  0.87258342754E+03  0.00000000000E+00 0.  1.
         21   -1    0    0  501  503 -0.00000000000E+00 -0.00000000000E+00 -0.43160650124E+02  0.43160650124E+02  0.00000000000E+00 0.  1.
          6    2    1    2  501    0 -0.74167301053E+02  0.25201498427E+02  0.49178769226E+03  0.52671009037E+03  0.17155897228E+03 0.  0.
         24    2    3    3    0    0 -0.53885535825E+02 -0.40765584698E+02  0.38802486922E+03  0.40200315591E+03  0.80484497651E+02 0.  0.
         -6    2    1    2    0  502  0.74167301053E+02 -0.25201498427E+02  0.33763508516E+03  0.38903398730E+03  0.17667509296E+03 0.  0.
        -24    2    5    5    0    0 -0.20898654258E+02  0.14510748230E+02  0.20529635205E+03  0.22125368847E+03  0.78481124691E+02 0.  0.
          5    1    3    3  501    0 -0.20281765228E+02  0.65967083124E+02  0.10376282304E+03  0.12470693445E+03  0.47000000000E+01 0. -1.
        -13    1    4    4    0    0 -0.34516923407E+02  0.15647980463E+02  0.83585580366E+02  0.91775958395E+02  0.00000000000E+00 0.  1.
         14    1    4    4    0    0 -0.19368612418E+02 -0.56413565160E+02  0.30443928886E+03  0.31022719752E+03  0.00000000000E+00 0. -1.
         -5    1    5    5    0  502  0.95065955310E+02 -0.39712246657E+02  0.13233873311E+03  0.16778029883E+03  0.47000000000E+01 0.  1.
         11    1    6    6    0    0 -0.36871948593E+02 -0.10197500840E+02  0.17456938897E+03  0.17871206222E+03  0.00000000000E+00 0. -1.
        -12    1    6    6    0    0  0.15973294336E+02  0.24708249070E+02  0.30726963072E+02  0.42541626246E+02  0.00000000000E+00 0.  1.
</event>
<event>
12    1  0.8449700E-002  0.3843238E+03  0.7818608E-02  0.1049348E+00
         21   -1    0    0  503  502  0.00000000000E+00  0.00000000000E+00  0.26641667163E+03  0.26641667163E+03  0.00000000000E+00 0.  1.
         21   -1    0    0  501  503 -0.00000000000E+00 -0.00000000000E+00 -0.56321276314E+03  0.56321276314E+03  0.00000000000E+00 0. -1.
          6    2    1    2  501    0 -0.26023682726E+03 -0.22443795469E+03 -0.96497132562E+02  0.39625305374E+03  0.17207319442E+03 0.  0.
         24    2    3    3    0    0 -0.18769745546E+03 -0.81033260058E+02 -0.82211741245E+02  0.23484354563E+03  0.81215740496E+02 0.  0.
         -6    2    1    2    0  502  0.26023682726E+03  0.22443795469E+03 -0.20029895894E+03  0.43337638103E+03  0.17204596162E+03 0.  0.
        -24    2    5    5    0    0  0.17732622007E+03  0.11035581678E+03 -0.53476583245E+02  0.22973993296E+03  0.79358031851E+02 0.  0.
          5    1    3    3  501    0 -0.72539371802E+02 -0.14340469463E+03 -0.14285391318E+02  0.16140950811E+03  0.47000000000E+01 0. -1.
        -13    1    4    4    0    0 -0.80917339658E+02  0.18935513954E+01 -0.52325918767E+02  0.96380512392E+02  0.00000000000E+00 0.  1.
         14    1    4    4    0    0 -0.10678011580E+03 -0.82926811453E+02 -0.29885822478E+02  0.13846303324E+03  0.00000000000E+00 0. -1.
         -5    1    5    5    0  502  0.82910607193E+02  0.11408213791E+03 -0.14682237570E+03  0.20363644807E+03  0.47000000000E+01 0.  1.
         13    1    6    6    0    0  0.92635766811E+02  0.10277986382E+03 -0.35094376390E+02  0.14274698229E+03  0.00000000000E+00 0. -1.
        -14    1    6    6    0    0  0.84690453259E+02  0.75759529557E+01 -0.18382206855E+02  0.86992950664E+02  0.00000000000E+00 0.  1.
</event>
<event>
12    1  0.8449700E-002  0.2315241E+03  0.7818608E-02  0.1125640E+00
         21   -1    0    0  503  502  0.00000000000E+00  0.00000000000E+00  0.64649104531E+02  0.64649104531E+02  0.00000000000E+00 0.  1.
         21   -1    0    0  501  503 -0.00000000000E+00 -0.00000000000E+00 -0.16446044188E+04  0.16446044188E+04  0.00000000000E+00 0.  1.
          6    2    1    2  501    0 -0.63156962905E+02  0.14121450189E+03 -0.13926275762E+04  0.14117418250E+04  0.17225874972E+03 0.  0.
         24    2    3    3    0    0 -0.10069297925E+03  0.13773101095E+03 -0.10193679645E+04  0.10365539854E+04  0.78893663540E+02 0.  0.
         -6    2    1    2    0  502  0.63156962905E+02 -0.14121450189E+03 -0.18732773803E+03  0.29751169833E+03  0.17172999651E+03 0.  0.
        -24    2    5    5    0    0  0.87919284339E+01 -0.72130073756E+02 -0.18117355249E+03  0.20926103724E+03  0.75407426949E+02 0.  0.
          5    1    3    3  501    0  0.37536016345E+02  0.34834909318E+01 -0.37325961169E+03  0.37518783956E+03  0.47000000000E+01 0.  1.
        -13    1    4    4    0    0 -0.76404088640E+02  0.12351395668E+03 -0.64590786765E+03  0.66203493544E+03  0.00000000000E+00 0.  1.
         14    1    4    4    0    0 -0.24288890610E+02  0.14217054277E+02 -0.37346009690E+03  0.37451905000E+03  0.00000000000E+00 0. -1.
         -5    1    5    5    0  502  0.54365034471E+02 -0.69084428130E+02 -0.61541855406E+01  0.88250661090E+02  0.47000000000E+01 0.  1.
         11    1    6    6    0    0 -0.31076206026E+02 -0.25556632311E+02 -0.97969551921E+02  0.10590989160E+03  0.00000000000E+00 0. -1.
        -12    1    6    6    0    0  0.39868134460E+02 -0.46573441445E+02 -0.83204000566E+02  0.10335114563E+03  0.00000000000E+00 0.  1.
</event>
<event>
12    1  0.8449700E-002  0.1940779E+03  0.7818608E-02  0.1154956E+00
         21   -1    0    0  503  502  0.00000000000E+00  0.00000000000E+00  0.38311167397E+03  0.38311167397E+03  0.00000000000E+00 0. -1.
         21   -1    0    0  501  503 -0.00000000000E+00 -0.00000000000E+00 -0.98294879844E+02  0.98294879844E+02  0.00000000000E+00 0. -1.
          6    2    1    2  501    0  0.41519388942E+02 -0.78402692156E+02  0.15495905553E+03  0.24835166614E+03  0.17261343918E+03 0.  0.
         24    2    3    3    0    0 -0.28445584508E+01  0.12828050304E+02  0.28254602964E+02  0.85971505716E+02  0.80125693876E+02 0.  0.
         -6    2    1    2    0  502 -0.41519388942E+02  0.78402692156E+02  0.12985773860E+03  0.23305488768E+03  0.17199042590E+03 0.  0.
        -24    2    5    5    0    0 -0.10185246423E+02  0.10858957741E+03  0.55374653656E+02  0.14666683022E+03  0.80928185768E+02 0.  0.
          5    1    3    3  501    0  0.44363947393E+02 -0.91230742460E+02  0.12670445257E+03  0.16238016042E+03  0.47000000000E+01 0. -1.
        -13    1    4    4    0    0  0.22530949331E+02  0.22947907367E+02 -0.14465392302E+02  0.35263262820E+02  0.00000000000E+00 0.  1.
         14    1    4    4    0    0 -0.25375507782E+02 -0.10119857063E+02  0.42719995266E+02  0.50708242896E+02  0.00000000000E+00 0. -1.
         -5    1    5    5    0  502 -0.31334142519E+02 -0.30186885258E+02  0.74483084945E+02  0.86388057461E+02  0.47000000000E+01 0.  1.
         13    1    6    6    0    0  0.33058537759E+02  0.25668691088E+02  0.11744504293E+02  0.43470472760E+02  0.00000000000E+00 0. -1.
        -14    1    6    6    0    0 -0.43243784182E+02  0.82920886327E+02  0.43630149363E+02  0.10319635746E+03  0.00000000000E+00 0.  1.
</event>
<event>
12    1  0.8449700E-002  0.1777210E+03  0.7818608E-02  0.1170462E+00
         21   -1    0    0  503  502  0.00000000000E+00  0.00000000000E+00  0.12533141226E+03  0.12533141226E+03  0.00000000000E+00 0. -1.
         21   -1    0    0  501  503 -0.00000000000E+00 -0.00000000000E+00 -0.25061829899E+03  0.25061829899E+03  0.00000000000E+00 0. -1.
          6    2    1    2  501    0  0.39714327651E+02 -0.19412121974E+02 -0.49909201889E+02  0.18290429003E+03  0.17032026473E+03 0.  0.
         24    2    3    3    0    0  0.21698023193E+02  0.55331942635E+02 -0.29396880052E+02  0.10319163251E+03  0.79069010225E+02 0.  0.
         -6    2    1    2    0  502 -0.39714327651E+02  0.19412121974E+02 -0.75377684842E+02  0.19304542122E+03  0.17213564704E+03 0.  0.
        -24    2    5    5    0    0 -0.26976276219E+02 -0.26844464020E+02  0.16795397071E+02  0.89026688620E+02  0.78710362703E+02 0.  0.
          5    1    3    3  501    0  0.18016304458E+02 -0.74744064609E+02 -0.20512321836E+02  0.79712657513E+02  0.47000000000E+01 0. -1.
        -13    1    4    4    0    0  0.16481368825E+02  0.26162966944E+02 -0.55610470595E+02  0.63629087668E+02  0.00000000000E+00 0.  1.
         14    1    4    4    0    0  0.52166543685E+01  0.29168975690E+02  0.26213590542E+02  0.39562544847E+02  0.00000000000E+00 0. -1.
         -5    1    5    5    0  502 -0.12738051433E+02  0.46256585994E+02 -0.92173081913E+02  0.10401873260E+03  0.47000000000E+01 0.  1.
         11    1    6    6    0    0 -0.25052775069E+02  0.21357628409E+02 -0.92612827376E+01  0.34198847756E+02  0.00000000000E+00 0. -1.
        -12    1    6    6    0    0 -0.19235011498E+01 -0.48202092429E+02  0.26056679808E+02  0.54827840864E+02  0.00000000000E+00 0.  1.
</event>
<event>
12    1  0.8449700E-002  0.2607022E+03  0.7818608E-02  0.1107292E+00
         21   -1    0    0  503  502  0.00000000000E+00  0.00000000000E+00  0.28398254516E+03  0.28398254516E+03  0.00000000000E+00 0.  1.
         21   -1    0    0  501  503 -0.00000000000E+00 -0.00000000000E+00 -0.26962077284E+03  0.26962077284E+03  0.00000000000E+00 0.  1.
          6    2    1    2  501    0 -0.81214366388E+02 -0.17801445271E+03  0.10515045574E+03  0.28110901613E+03  0.17228099700E+03 0.  0.
         24    2    3    3    0    0 -0.93441205575E+02 -0.14576302579E+03  0.39125786636E+02  0.20646990397E+03  0.10545556162E+03 0.  0.
         -6    2    1    2    0  502  0.81214366388E+02  0.17801445271E+03 -0.90788683424E+02  0.27249430187E+03  0.16651018236E+03 0.  0.
        -24    2    5    5    0    0  0.50208802731E+00  0.24793404845E+02 -0.34373024530E+02  0.90296667535E+02  0.79730912051E+02 0.  0.
          5    1    3    3  501    0  0.12226839187E+02 -0.32251426919E+02  0.66024669103E+02  0.74639112166E+02  0.47000000000E+01 0. -1.
        -11    1    4    4    0    0 -0.29700665295E+02 -0.10080205811E+03  0.65853480504E+02  0.12401558504E+03  0.00000000000E+00 0.  1.
         12    1    4    4    0    0 -0.63740540280E+02 -0.44960967689E+02 -0.26727693868E+02  0.82454318930E+02  0.00000000000E+00 0. -1.
         -5    1    5    5    0  502  0.80712278361E+02  0.15322104787E+03 -0.56415658894E+02  0.18219763433E+03  0.47000000000E+01 0.  1.
         13    1    6    6    0    0  0.11488459172E+02  0.21904159701E+02 -0.58563038126E+02  0.63572056290E+02  0.00000000000E+00 0. -1.
        -14    1    6    6    0    0 -0.10986371145E+02  0.28892451437E+01  0.24190013596E+02  0.26724611245E+02  0.00000000000E+00 0.  1.
</event>
<event>
12    1  0.8449700E-002  0.2722448E+03  0.7818608E-02  0.1100177E+00
         21   -1    0    0  501  502  0.00000000000E+00  0.00000000000E+00  0.42916842301E+03  0.42916842301E+03  0.00000000000E+00 0. -1.
         21   -1    0    0  502  503 -0.00000000000E+00 -0.00000000000E+00 -0.17554414461E+03  0.17554414461E+03  0.00000000000E+00 0. -1.
         -6    2    1    2    0  503  0.20407884351E+03  0.47610995709E+02  0.83637258183E+02  0.28480243515E+03  0.17378795940E+03 0.  0.
        -24    2    3    3    0    0  0.22335083671E+03  0.34516432404E+02  0.93988393574E+02  0.25887728686E+03  0.84300955862E+02 0.  0.
          6    2    1    2  501    0 -0.20407884351E+03 -0.47610995709E+02  0.16998702021E+03  0.31991013247E+03  0.17184855116E+03 0.  0.
         24    2    5    5    0    0 -0.20925611398E+03 -0.78585978800E+02  0.15980862952E+03  0.28656431798E+03  0.81341459089E+02 0.  0.
          5    1    5    5  501    0  0.51772704731E+01  0.30974983091E+02  0.10178390692E+02  0.33345814492E+02  0.47000000000E+01 0. -1.
        -13    1    6    6    0    0 -0.10279700876E+03  0.38732985135E+01  0.76797914836E+02  0.12837502551E+03  0.00000000000E+00 0.  1.
         14    1    6    6    0    0 -0.10645910522E+03 -0.82459277314E+02  0.83010714687E+02  0.15818929247E+03  0.00000000000E+00 0. -1.
         -5    1    3    3    0  503 -0.19271993202E+02  0.13094563305E+02 -0.10351135391E+02  0.25925148293E+02  0.47000000000E+01 0.  1.
         11    1    4    4    0    0  0.10021379388E+03  0.48025796531E+02  0.15434304515E+02  0.11219402556E+03  0.00000000000E+00 0. -1.
        -12    1    4    4    0    0  0.12313704283E+03 -0.13509364127E+02  0.78554089059E+02  0.14668326129E+03  0.00000000000E+00 0.  1.
</event>
<event>
12    1  0.8449700E-002  0.1795990E+03  0.7818608E-02  0.1170059E+00
         21   -1    0    0  501  502  0.00000000000E+00  0.00000000000E+00  0.21736758813E+03  0.21736758813E+03  0.00000000000E+00 0.  1.
         21   -1    0    0  502  503 -0.00000000000E+00 -0.00000000000E+00 -0.14721300406E+03  0.14721300406E+03  0.00000000000E+00 0.  1.
         -6    2    1    2    0  503  0.82748492346E+01  0.11102526485E+02  0.69284109855E+02  0.19249955564E+03  0.17906437898E+03 0.  0.
        -24    2    3    3    0    0 -0.41783368373E+02  0.35995764221E+02 -0.67680641589E+01  0.97992827797E+02  0.80717053295E+02 0.  0.
          6    2    1    2  501    0 -0.82748492346E+01 -0.11102526485E+02  0.87047421551E+00  0.17208103655E+03  0.17152080396E+03 0.  0.
         24    2    5    5    0    0  0.21780136991E+02  0.31696405262E+02 -0.47616108708E+02  0.10061013703E+03  0.79850293613E+02 0.  0.
          5    1    5    5  501    0 -0.30054986226E+02 -0.42798931748E+02  0.48486582923E+02  0.71470899528E+02  0.47000000000E+01 0. -1.
        -13    1    6    6    0    0  0.30401733899E+02 -0.57641283510E+01  0.89566096744E+01  0.32213529092E+02  0.00000000000E+00 0.  1.
         14    1    6    6    0    0 -0.86215969074E+01  0.37460533613E+02 -0.56572718382E+02  0.68396607935E+02  0.00000000000E+00 0. -1.
         -5    1    3    3    0  503  0.50058217608E+02 -0.24893237736E+02  0.76052174014E+02  0.94506727841E+02  0.47000000000E+01 0.  1.
         11    1    4    4    0    0  0.12252806596E+02  0.18257790162E+02  0.24639327318E+02  0.33023849288E+02  0.00000000000E+00 0. -1.
        -12    1    4    4    0    0 -0.54036174970E+02  0.17737974059E+02 -0.31407391477E+02  0.64968978509E+02  0.00000000000E+00 0.  1.
</event>
<event>
12    1  0.8449700E-002  0.2672118E+03  0.7818608E-02  0.1103027E+00
         21   -1    0    0  503  502  0.00000000000E+00  0.00000000000E+00  0.89726472534E+03  0.89726472534E+03  0.00000000000E+00 0.  1.
         21   -1    0    0  501  503 -0.00000000000E+00 -0.00000000000E+00 -0.14409333506E+03  0.14409333506E+03  0.00000000000E+00 0. -1.
          6    2    1    2  501    0  0.12123915534E+03  0.16490223029E+03  0.27781446039E+02  0.26865206146E+03  0.17178603854E+03 0.  0.
         24    2    3    3    0    0  0.83555678068E+02  0.79320848241E+02  0.79592888401E+02  0.16164396376E+03  0.80748961800E+02 0.  0.
         -6    2    1    2    0  502 -0.12123915534E+03 -0.16490223029E+03  0.72538994423E+03  0.77270599894E+03  0.17027128726E+03 0.  0.
        -24    2    5    5    0    0 -0.23462495702E+01 -0.43472746053E+02  0.16707721497E+03  0.18908297305E+03  0.77085604375E+02 0.  0.
          5    1    3    3  501    0  0.37683477271E+02  0.85581382054E+02 -0.51811442362E+02  0.10700809770E+03  0.47000000000E+01 0. -1.
        -11    1    4    4    0    0  0.19511586771E+02 -0.16140772119E+02  0.97462648756E+01  0.27133304663E+02  0.00000000000E+00 0.  1.
         12    1    4    4    0    0  0.64044091298E+02  0.95461620360E+02  0.69846623526E+02  0.13451065909E+03  0.00000000000E+00 0. -1.
         -5    1    5    5    0  502 -0.11889290577E+03 -0.12142948424E+03  0.55831272927E+03  0.58362302589E+03  0.47000000000E+01 0.  1.
         13    1    6    6    0    0 -0.18923206437E+02 -0.25578651791E+01  0.31970925760E+01  0.19361090286E+02  0.00000000000E+00 0. -1.
        -14    1    6    6    0    0  0.16576956867E+02 -0.40914880874E+02  0.16388012239E+03  0.16972188277E+03  0.00000000000E+00 0.  1.
</event>
<event>
12    1  0.8449700E-002  0.1747964E+03  0.7818608E-02  0.1173007E+00
         21   -1    0    0  503  502  0.00000000000E+00  0.00000000000E+00  0.48451579899E+02  0.48451579899E+02  0.00000000000E+00 0. -1.
         21   -1    0    0  501  503 -0.00000000000E+00 -0.00000000000E+00 -0.92199789399E+03  0.92199789399E+03  0.00000000000E+00 0. -1.
          6    2    1    2  501    0  0.32293416758E+02  0.97100213599E+01 -0.70979200534E+03  0.73093071009E+03  0.17122459761E+03 0.  0.
         24    2    3    3    0    0  0.53376110501E+02 -0.49333951160E+02 -0.41486795883E+03  0.42937979585E+03  0.83478966904E+02 0.  0.
         -6    2    1    2    0  502 -0.32293416758E+02 -0.97100213599E+01 -0.16375430875E+03  0.23951876380E+03  0.17151272634E+03 0.  0.
        -24    2    5    5    0    0  0.38937423012E+02 -0.50886237433E+01 -0.13680163777E+03  0.16307449440E+03  0.79602673490E+02 0.  0.
          5    1    3    3  501    0 -0.21082693744E+02  0.59043972520E+02 -0.29492404651E+03  0.30155091424E+03  0.47000000000E+01 0. -1.
        -11    1    4    4    0    0  0.71637250641E+02 -0.45474448879E+02 -0.38436574376E+03  0.39362018007E+03  0.00000000000E+00 0.  1.
         12    1    4    4    0    0 -0.18261140139E+02 -0.38595022809E+01 -0.30502215066E+02  0.35759615783E+02  0.00000000000E+00 0. -1.
         -5    1    5    5    0  502 -0.71230839769E+02 -0.46213976166E+01 -0.26952670984E+02  0.76444269395E+02  0.47000000000E+01 0.  1.
         11    1    6    6    0    0  0.55533136013E+02  0.15513552261E+01 -0.50946157511E+02  0.75378026398E+02  0.00000000000E+00 0. -1.
        -12    1    6    6    0    0 -0.16595713001E+02 -0.66399789694E+01 -0.85855480255E+02  0.87696468005E+02  0.00000000000E+00 0.  1.
</event>
<event>
12    1  0.8449700E-002  0.3091158E+03  0.7818608E-02  0.1080985E+00
         21   -1    0    0  501  502  0.00000000000E+00  0.00000000000E+00  0.41928531762E+03  0.41928531762E+03  0.00000000000E+00 0.  1.
         21   -1    0    0  502  503 -0.00000000000E+00 -0.00000000000E+00 -0.23544425154E+03  0.23544425154E+03  0.00000000000E+00 0. -1.
         -6    2    1    2    0  503 -0.25327249169E+03  0.29535504133E+02  0.15516426712E+03  0.34428641394E+03  0.17157471836E+03 0.  0.
        -24    2    3    3    0    0 -0.24343428460E+03  0.45874202256E+02  0.90701430697E+02  0.27689731501E+03  0.84146777575E+02 0.  0.
          6    2    1    2  501    0  0.25327249169E+03 -0.29535504133E+02  0.28676798965E+02  0.31044315523E+03  0.17473778292E+03 0.  0.
         24    2    5    5    0    0  0.22671520033E+03 -0.13206309359E+02  0.76904227756E+02  0.25282451924E+03  0.80198432735E+02 0.  0.
          5    1    5    5  501    0  0.26557291360E+02 -0.16329194774E+02 -0.48227428791E+02  0.57618635997E+02  0.47000000000E+01 0. -1.
        -11    1    6    6    0    0  0.14083170456E+03 -0.19031934467E+02  0.86250802744E+02  0.16623773492E+03  0.00000000000E+00 0.  1.
         12    1    6    6    0    0  0.85883495769E+02  0.58256251076E+01 -0.93465749882E+01  0.86586784312E+02  0.00000000000E+00 0. -1.
         -5    1    3    3    0  503 -0.98382070851E+01 -0.16338698123E+02  0.64462836418E+02  0.67389098926E+02  0.47000000000E+01 0.  1.
         13    1    4    4    0    0  0.37780954030E+01  0.21090610474E+01 -0.63929258356E+01  0.77195624302E+01  0.00000000000E+00 0. -1.
        -14    1    4    4    0    0 -0.24721238001E+03  0.43765141208E+02  0.97094356533E+02  0.26917775258E+03  0.00000000000E+00 0.  1.
</event>
<event>
12    1  0.8449700E-002  0.2085472E+03  0.7818608E-02  0.1142747E+00
         21   -1    0    0  503  502  0.00000000000E+00  0.00000000000E+00  0.62005668845E+03  0.62005668845E+03  0.00000000000E+00 0. -1.
         21   -1    0    0  501  503 -0.00000000000E+00 -0.00000000000E+00 -0.71009965054E+02  0.71009965054E+02  0.00000000000E+00 0.  1.
          6    2    1    2  501    0 -0.10988315340E+03 -0.41579602952E+02  0.31373648713E+03  0.37672607328E+03  0.17230432424E+03 0.  0.
         24    2    3    3    0    0 -0.92358998787E+02 -0.31364146204E+02  0.10274559457E+03  0.16471027601E+03  0.84017399951E+02 0.  0.
         -6    2    1    2    0  502  0.10988315340E+03  0.41579602952E+02  0.23531023627E+03  0.31434058023E+03  0.17215087075E+03 0.  0.
        -24    2    5    5    0    0  0.13974611170E+03  0.39842656527E+02  0.22940507618E+03  0.28348974268E+03  0.81383857212E+02 0.  0.
          5    1    3    3  501    0 -0.17524154611E+02 -0.10215456749E+02  0.21099089255E+03  0.21201579727E+03  0.47000000000E+01 0. -1.
        -11    1    4    4    0    0 -0.88960486403E+01 -0.37418580876E+02  0.98940382777E+01  0.39713749125E+02  0.00000000000E+00 0.  1.
         12    1    4    4    0    0 -0.83462950147E+02  0.60544346720E+01  0.92851556293E+02  0.12499652688E+03  0.00000000000E+00 0. -1.
         -5    1    5    5    0  502 -0.29862958301E+02  0.17369464256E+01  0.59051600877E+01  0.30850837542E+02  0.47000000000E+01 0.  1.
         11    1    6    6    0    0  0.12030029639E+03  0.22493722935E+01  0.14019218778E+03  0.18474596207E+03  0.00000000000E+00 0. -1.
        -12    1    6    6    0    0  0.19445815309E+02  0.37593284233E+02  0.89212888405E+02  0.98743780615E+02  0.00000000000E+00 0.  1.
</event>
<event>
12    1  0.8449700E-002  0.1934921E+03  0.7818608E-02  0.1155509E+00
         21   -1    0    0  501  502  0.00000000000E+00  0.00000000000E+00  0.12292821906E+03  0.12292821906E+03  0.00000000000E+00 0. -1.
         21   -1    0    0  502  503 -0.00000000000E+00 -0.00000000000E+00 -0.31170277648E+03  0.31170277648E+03  0.00000000000E+00 0. -1.
         -6    2    1    2    0  503  0.85300586839E+02  0.10643001048E+02 -0.12998292118E+03  0.23309818558E+03  0.17334861043E+03 0.  0.
        -24    2    3    3    0    0  0.68998726481E+02  0.64627578190E+02 -0.63358905267E+02  0.14568574530E+03  0.90952940513E+02 0.  0.
          6    2    1    2  501    0 -0.85300586839E+02 -0.10643001048E+02 -0.58791636241E+02  0.20153280996E+03  0.17253855631E+03 0.  0.
         24    2    5    5    0    0 -0.35920867877E+02 -0.57550254760E+02 -0.77729821199E+02  0.13068514278E+03  0.80214343281E+02 0.  0.
          5    1    5    5  501    0 -0.49379718961E+02  0.46907253712E+02  0.18938184958E+02  0.70847667181E+02  0.47000000000E+01 0. -1.
        -11    1    6    6    0    0 -0.57932920855E+02 -0.22363294545E+02 -0.35764794515E+02  0.71662129388E+02  0.00000000000E+00 0.  1.
         12    1    6    6    0    0  0.22012052977E+02 -0.35186960215E+02 -0.41965026684E+02  0.59023013393E+02  0.00000000000E+00 0. -1.
         -5    1    3    3    0  503  0.16301860358E+02 -0.53984577142E+02 -0.66624015912E+02  0.87412440285E+02  0.47000000000E+01 0.  1.
         11    1    4    4    0    0  0.61730436768E+02  0.10758587825E+02 -0.66330291865E+02  0.91247474784E+02  0.00000000000E+00 0. -1.
        -12    1    4    4    0    0  0.72682897133E+01  0.53868990366E+02  0.29713865984E+01  0.54438270515E+02  0.00000000000E+00 0.  1.
</event>
<event>
12    1  0.8449700E-002  0.1773666E+03  0.7818608E-02  0.1170395E+00
         21   -1    0    0  503  502  0.00000000000E+00  0.00000000000E+00  0.48613692863E+02  0.48613692863E+02  0.00000000000E+00 0. -1.
         21   -1    0    0  501  503 -0.00000000000E+00 -0.00000000000E+00 -0.87010111946E+03  0.87010111946E+03  0.00000000000E+00 0. -1.
          6    2    1    2  501    0 -0.22832084658E+02 -0.39663910856E+02 -0.64349154877E+03  0.66748803077E+03  0.17136034538E+03 0.  0.
         24    2    3    3    0    0 -0.39587185508E+02  0.36772142556E+02 -0.38722730819E+03  0.39950173510E+03  0.82081133133E+02 0.  0.
         -6    2    1    2    0  502  0.22832084658E+02  0.39663910856E+02 -0.17799587783E+03  0.25122678156E+03  0.17128290438E+03 0.  0.
        -24    2    5    5    0    0  0.89172133286E+01 -0.86936663926E+01 -0.18397890411E+02  0.83818040716E+02  0.80820078254E+02 0.  0.
          5    1    3    3  501    0  0.16755100850E+02 -0.76436053412E+02 -0.25626424058E+03  0.26798629567E+03  0.47000000000E+01 0. -1.
        -11    1    4    4    0    0 -0.48903101993E+02  0.90709462069E+01 -0.10980588184E+03  0.12054512490E+03  0.00000000000E+00 0.  1.
         12    1    4    4    0    0  0.93159164848E+01  0.27701196349E+02 -0.27742142635E+03  0.27895661020E+03  0.00000000000E+00 0. -1.
         -5    1    5    5    0  502  0.13914871329E+02  0.48357577249E+02 -0.15959798742E+03  0.16740874084E+03  0.47000000000E+01 0.  1.
         11    1    6    6    0    0 -0.12772542738E+02  0.26917673336E+02  0.12100704863E+02  0.32157830213E+02  0.00000000000E+00 0. -1.
        -12    1    6    6    0    0  0.21689756066E+02 -0.35611339729E+02 -0.30498595275E+02  0.51660210503E+02  0.00000000000E+00 0.  1.
</event>
<event>
12    1  0.8449700E-002  0.1810258E+03  0.7818608E-02  0.1166825E+00
         21   -1    0    0  503  502  0.00000000000E+00  0.00000000000E+00  0.51932062443E+03  0.51932062443E+03  0.00000000000E+00 0. -1.
         21   -1    0    0  501  503 -0.00000000000E+00 -0.00000000000E+00 -0.71599810240E+02  0.71599810240E+02  0.00000000000E+00 0. -1.
          6    2    1    2  501    0 -0.55472870604E+02  0.16889576481E+02  0.12195821005E+03  0.21823878629E+03  0.17144056019E+03 0.  0.
         24    2    3    3    0    0 -0.70223988416E+02  0.61773104571E+02  0.50024599452E+02  0.13204910650E+03  0.78658635754E+02 0.  0.
         -6    2    1    2    0  502  0.55472870604E+02 -0.16889576481E+02  0.32576260415E+03  0.37268164838E+03  0.17148714124E+03 0.  0.
        -24    2    5    5    0    0  0.57842222709E+02 -0.61711112970E+01  0.33884360844E+03  0.35497001382E+03  0.88345426512E+02 0.  0.
          5    1    3    3  501    0  0.14751117812E+02 -0.44883528090E+02  0.71933610594E+02  0.86189679798E+02  0.47000000000E+01 0. -1.
        -13    1    4    4    0    0 -0.39758937381E+01  0.55424140719E+02  0.25269419806E+02  0.61042498988E+02  0.00000000000E+00 0.  1.
         14    1    4    4    0    0 -0.66248094678E+02  0.63489638521E+01  0.24755179646E+02  0.71006607508E+02  0.00000000000E+00 0. -1.
         -5    1    5    5    0  502 -0.23693521056E+01 -0.10718465184E+02 -0.13081004298E+02  0.17711634559E+02  0.47000000000E+01 0.  1.
         13    1    6    6    0    0  0.57221490616E+02  0.14353844161E+02  0.10672502775E+03  0.12194491945E+03  0.00000000000E+00 0. -1.
        -14    1    6    6    0    0  0.62073209360E+00 -0.20524955458E+02  0.23211858069E+03  0.23302509437E+03  0.00000000000E+00 0.  1.
</event>
<event>
12    1  0.8449700E-002  0.1982491E+03  0.7818608E-02  0.1152130E+00
         21   -1    0    0  503  502  0.00000000000E+00  0.00000000000E+00  0.41207419054E+02  0.41207419054E+02  0.00000000000E+00 0.  1.
         21   -1    0    0  501  503 -0.00000000000E+00 -0.00000000000E+00 -0.10321832078E+04  0.10321832078E+04  0.00000000000E+00 0. -1.
          6    2    1    2  501    0  0.88838811903E+02  0.99357766084E+00 -0.65646903183E+03  0.68454944833E+03  0.17251966773E+03 0.  0.
         24    2    3    3    0    0  0.23398420729E+01  0.51742501166E+02 -0.30403727858E+03  0.31809651039E+03  0.77871444524E+02 0.  0.
         -6    2    1    2    0  502 -0.88838811903E+02 -0.99357766084E+00 -0.33450675696E+03  0.38884117857E+03  0.17722688849E+03 0.  0.
        -24    2    5    5    0    0 -0.38953725470E+02 -0.60881324933E+02 -0.98686369876E+02  0.14042940533E+03  0.68974559281E+02 0.  0.
          5    1    3    3  501    0  0.86498969830E+02 -0.50748923505E+02 -0.35243175326E+03  0.36645293794E+03  0.47000000000E+01 0. -1.
        -13    1    4    4    0    0 -0.15946986712E+01 -0.17203119782E+02 -0.12524525766E+03  0.12643126576E+03  0.00000000000E+00 0.  1.
         14    1    4    4    0    0  0.39345407440E+01  0.68945620948E+02 -0.17879202091E+03  0.19166524464E+03  0.00000000000E+00 0. -1.
         -5    1    5    5    0  502 -0.49885086433E+02  0.59887747272E+02 -0.23582038708E+03  0.24841177324E+03  0.47000000000E+01 0.  1.
         11    1    6    6    0    0 -0.23627918581E+02 -0.53491835203E+02 -0.10666043277E+03  0.12163923252E+03  0.00000000000E+00 0. -1.
        -12    1    6    6    0    0 -0.15325806889E+02 -0.73894897302E+01  0.79740628898E+01  0.18790172810E+02  0.00000000000E+00 0.  1.
</event>
<event>
12    1  0.8449700E-002  0.1997947E+03  0.7818608E-02  0.1149970E+00
         21   -1    0    0  501  502  0.00000000000E+00  0.00000000000E+00  0.11379289106E+02  0.11379289106E+02  0.00000000000E+00 0.  1.
         21   -1    0    0  502  503 -0.00000000000E+00 -0.00000000000E+00 -0.36509640352E+04  0.36509640352E+04  0.00000000000E+00 0. -1.
         -6    2    1    2    0  503  0.32183259642E+02 -0.96300312876E+02 -0.21894045914E+04  0.21985018499E+04  0.17207093557E+03 0.  0.
        -24    2    3    3    0    0 -0.46576395914E+02 -0.33201706368E+02 -0.92266252322E+03  0.92773748359E+03  0.78223990788E+02 0.  0.
          6    2    1    2  501    0 -0.32183259642E+02  0.96300312876E+02 -0.14501801548E+04  0.14638414744E+04  0.17175525772E+03 0.  0.
         24    2    5    5    0    0  0.99520411198E+01  0.12345327575E+03 -0.97845101182E+03  0.98943327335E+03  0.79196372739E+02 0.  0.
          5    1    5    5  501    0 -0.42135300762E+02 -0.27152962869E+02 -0.47172914294E+03  0.47440820109E+03  0.47000000000E+01 0. -1.
        -11    1    6    6    0    0 -0.22181472443E+02  0.14282240873E+02 -0.92022169420E+02  0.95729200293E+02  0.00000000000E+00 0.  1.
         12    1    6    6    0    0  0.32133513563E+02  0.10917103487E+03 -0.88642884240E+03  0.89370407305E+03  0.00000000000E+00 0. -1.
         -5    1    3    3    0  503  0.78759655556E+02 -0.63098606508E+02 -0.12667420681E+04  0.12707643663E+04  0.47000000000E+01 0.  1.
         11    1    4    4    0    0 -0.18598814048E+02  0.42488007001E+01 -0.69811329281E+03  0.69837392405E+03  0.00000000000E+00 0. -1.
        -12    1    4    4    0    0 -0.27977581866E+02 -0.37450507069E+02 -0.22454923041E+03  0.22936355954E+03  0.00000000000E+00 0.  1.
</event>
<event>
12    1  0.8449700E-002  0.2324974E+03  0.7818608E-02  0.1124919E+00
         21   -1    0    0  501  502  0.00000000000E+00  0.00000000000E+00  0.31348959925E+03  0.31348959925E+03  0.00000000000E+00 0. -1.
         21   -1    0    0  502  503 -0.00000000000E+00 -0.00000000000E+00 -0.29614625757E+03  0.29614625757E+03  0.00000000000E+00 0.  1.
         -6    2    1    2    0  503  0.17995312625E+02  0.15539980433E+03 -0.18842500877E+03  0.29926416395E+03  0.17199455060E+03 0.  0.
        -24    2    3    3    0    0 -0.26021406611E+02  0.71579660014E+02 -0.31712010050E+02  0.11611301836E+03  0.81705692100E+02 0.  0.
          6    2    1    2  501    0 -0.17995312625E+02 -0.15539980433E+03  0.20576835045E+03  0.31037169287E+03  0.17180524796E+03 0.  0.
         24    2    5    5    0    0 -0.27304842842E+02 -0.18351504015E+03  0.17406659933E+03  0.26673426785E+03  0.80154003280E+02 0.  0.
          5    1    5    5  501    0  0.93095302168E+01  0.28115235819E+02  0.31701751121E+02  0.43637425017E+02  0.47000000000E+01 0. -1.
        -11    1    6    6    0    0  0.66592551157E+01 -0.30755469433E+02 -0.15552333095E+01  0.31506560100E+02  0.00000000000E+00 0.  1.
         12    1    6    6    0    0 -0.33964097958E+02 -0.15275957071E+03  0.17562183264E+03  0.23522770775E+03  0.00000000000E+00 0. -1.
         -5    1    3    3    0  503  0.44016719236E+02  0.83820144312E+02 -0.15671299872E+03  0.18315114559E+03  0.47000000000E+01 0.  1.
         13    1    4    4    0    0 -0.47620322363E+01  0.15542105480E+01  0.23760730272E+02  0.24283015144E+02  0.00000000000E+00 0. -1.
        -14    1    4    4    0    0 -0.21259374375E+02  0.70025449466E+02 -0.55472740322E+02  0.91830003216E+02  0.00000000000E+00 0.  1.
</event>
<event>
12    1  0.8449700E-002  0.2342970E+03  0.7818608E-02  0.1123802E+00
         21   -1    0    0  501  502  0.00000000000E+00  0.00000000000E+00  0.32364064392E+02  0.32364064392E+02  0.00000000000E+00 0. -1.
         21   -1    0    0  502  503 -0.00000000000E+00 -0.00000000000E+00 -0.17050870320E+04  0.17050870320E+04  0.00000000000E+00 0.  1.
         -6    2    1    2    0  503  0.58521424701E+02  0.14420285030E+03 -0.92003964741E+03  0.94940403135E+03  0.17514520477E+03 0.  0.
        -24    2    3    3    0    0  0.80976227349E+02  0.71591520848E+02 -0.40650156314E+03  0.43025080028E+03  0.90497154981E+02 0.  0.
          6    2    1    2  501    0 -0.58521424701E+02 -0.14420285030E+03 -0.75268332016E+03  0.78804706501E+03  0.17397349520E+03 0.  0.
         24    2    5    5    0    0 -0.10212416346E+03 -0.12940715530E+03 -0.64986180970E+03  0.67528863103E+03  0.80739128624E+02 0.  0.
          5    1    5    5  501    0  0.43602738762E+02 -0.14795694994E+02 -0.10282151046E+03  0.11275843397E+03  0.47000000000E+01 0. -1.
        -11    1    6    6    0    0 -0.66729979803E+02 -0.12194268648E+03 -0.58219772422E+03  0.59856252729E+03  0.00000000000E+00 0.  1.
         12    1    6    6    0    0 -0.35394183660E+02 -0.74644688248E+01 -0.67664085481E+02  0.76726103744E+02  0.00000000000E+00 0. -1.
         -5    1    3    3    0  503 -0.22454802649E+02  0.72611329450E+02 -0.51353808427E+03  0.51915323106E+03  0.47000000000E+01 0.  1.
         13    1    4    4    0    0  0.31338259591E+02 -0.39312880312E+01 -0.31857097456E+02  0.44859962084E+02  0.00000000000E+00 0. -1.
        -14    1    4    4    0    0  0.49637967758E+02  0.75522808879E+02 -0.37464446568E+03  0.38539083820E+03  0.00000000000E+00 0.  1.
</event>
<event>
12    1  0.8449700E-002  0.2227919E+03  0.7818608E-02  0.1131847E+00
         21   -1    0    0  501  502  0.00000000000E+00  0.00000000000E+00  0.83998208600E+02  0.83998208600E+02  0.00000000000E+00 0.  1.
         21   -1    0    0  502  503 -0.00000000000E+00 -0.00000000000E+00 -0.62812778152E+03  0.62812778152E+03  0.00000000000E+00 0. -1.
         -6    2    1    2    0  503  0.12040047145E+03  0.75018313795E+02 -0.35911988719E+03  0.42253179567E+03  0.17158672457E+03 0.  0.
        -24    2    3    3    0    0  0.44001995765E+02 -0.81647132647E+00 -0.26104692516E+03  0.27683334817E+03  0.80959022174E+02 0.  0.
          6    2    1    2  501    0 -0.12040047145E+03 -0.75018313795E+02 -0.18500968573E+03  0.28959419445E+03  0.17179113107E+03 0.  0.
         24    2    5    5    0    0 -0.40669414037E+02  0.27346962181E+02 -0.78249936861E+02  0.12150069303E+03  0.78977896963E+02 0.  0.
          5    1    5    5  501    0 -0.79731057412E+02 -0.10236527598E+03 -0.10675974887E+03  0.16809350143E+03  0.47000000000E+01 0. -1.
        -11    1    6    6    0    0 -0.31317821567E+02 -0.19882481727E+02 -0.10811848194E+02  0.38639553422E+02  0.00000000000E+00 0.  1.
         12    1    6    6    0    0 -0.93515924698E+01  0.47229443908E+02 -0.67438088667E+02  0.82861139605E+02  0.00000000000E+00 0. -1.
         -5    1    3    3    0  503  0.76398475684E+02  0.75834785121E+02 -0.98072962035E+02  0.14569844750E+03  0.47000000000E+01 0.  1.
         13    1    4    4    0    0  0.21373440238E+02  0.26894001874E+02 -0.21876897684E+03  0.22144971553E+03  0.00000000000E+00 0. -1.
        -14    1    4    4    0    0  0.22628555528E+02 -0.27710473200E+02 -0.42277948319E+02  0.55383632639E+02  0.00000000000E+00 0.  1.
</event>
<event>
12    1  0.8449700E-002  0.2752145E+03  0.7818608E-02  0.1098403E+00
         21   -1    0    0  501  502  0.00000000000E+00  0.00000000000E+00  0.21930478708E+03  0.21930478708E+03  0.00000000000E+00 0. -1.
         21   -1    0    0  502  503 -0.00000000000E+00 -0.00000000000E+00 -0.35568820646E+03  0.35568820646E+03  0.00000000000E+00 0. -1.
         -6    2    1    2    0  503 -0.13296435487E+03 -0.16823379383E+03 -0.17806074645E+02  0.27578994765E+03  0.17251350637E+03 0.  0.
        -24    2    3    3    0    0 -0.51772609500E+02 -0.12795354645E+03 -0.65696124937E+02  0.17317345404E+03  0.81366769682E+02 0.  0.
          6    2    1    2  501    0  0.13296435487E+03  0.16823379383E+03 -0.11857734473E+03  0.29920304588E+03  0.17169667129E+03 0.  0.
         24    2    5    5    0    0  0.98500107656E+02  0.18271023630E+03 -0.13461427189E+03  0.25825643729E+03  0.74095097995E+02 0.  0.
          5    1    5    5  501    0  0.34464247213E+02 -0.14476442474E+02  0.16036927159E+02  0.40946608594E+02  0.47000000000E+01 0. -1.
        -13    1    6    6    0    0 -0.37955716792E+01  0.60320643032E+02 -0.29764828987E+02  0.67371591823E+02  0.00000000000E+00 0.  1.
         14    1    6    6    0    0  0.10229567934E+03  0.12238959327E+03 -0.10484944290E+03  0.19088484547E+03  0.00000000000E+00 0. -1.
         -5    1    3    3    0  503 -0.81191745369E+02 -0.40280247385E+02  0.47890050292E+02  0.10261649362E+03  0.47000000000E+01 0.  1.
         13    1    4    4    0    0 -0.60114172345E+02 -0.49821361746E+02 -0.50938411429E+02  0.93223406728E+02  0.00000000000E+00 0. -1.
        -14    1    4    4    0    0  0.83415628453E+01 -0.78132184699E+02 -0.14757713508E+02  0.79950047307E+02  0.00000000000E+00 0.  1.
</event>
<event>
12    1  0.8449700E-002  0.2415412E+03  0.7818608E-02  0.1118890E+00
         21   -1    0    0  503  502  0.00000000000E+00  0.00000000000E+00  0.60284813978E+03  0.60284813978E+03  0.00000000000E+00 0. -1.
         21   -1    0    0  501  503 -0.00000000000E+00 -0.00000000000E+00 -0.12577734732E+03  0.12577734732E+03  0.00000000000E+00 0.  1.
          6    2    1    2  501    0 -0.13468564856E+03  0.10079233882E+03  0.62462046051E+02  0.24878949183E+03  0.17232348812E+03 0.  0.
         24    2    3    3    0    0 -0.10959452247E+03  0.79201165605E+02  0.10815723941E+03  0.19216896494E+03  0.83349497057E+02 0.  0.
         -6    2    1    2    0  502  0.13468564856E+03 -0.10079233882E+03  0.41460874641E+03  0.47983599526E+03  0.17332873466E+03 0.  0.
        -24    2    5    5    0    0  0.15826715990E+03 -0.92231044471E+02  0.31695484205E+03  0.37890156866E+03  0.97729050781E+02 0.  0.
          5    1    3    3  501    0 -0.25091126093E+02  0.21591173218E+02 -0.45695193363E+02  0.56620526897E+02  0.47000000000E+01 0. -1.
        -11    1    4    4    0    0 -0.94248202398E+02  0.83689756397E+02  0.56560080969E+02  0.13815115541E+03  0.00000000000E+00 0.  1.
         12    1    4    4    0    0 -0.15346320070E+02 -0.44885907918E+01  0.51597158445E+02  0.54017809531E+02  0.00000000000E+00 0. -1.
         -5    1    5    5    0  502 -0.23581511336E+02 -0.85612943523E+01  0.97653904356E+02  0.10093442660E+03  0.47000000000E+01 0.  1.
         13    1    6    6    0    0  0.13349121745E+03 -0.27360473717E+02  0.18472429073E+03  0.22954643156E+03  0.00000000000E+00 0. -1.
        -14    1    6    6    0    0  0.24775942448E+02 -0.64870570754E+02  0.13223055132E+03  0.14935513710E+03  0.00000000000E+00 0.  1.
</event>
<event>
12    1  0.8449700E-002  0.1869473E+03  0.7818608E-02  0.1161651E+00
         21   -1    0    0  503  502  0.00000000000E+00  0.00000000000E+00  0.56780778195E+02  0.56780778195E+02  0.00000000000E+00 0. -1.
         21   -1    0    0  501  503 -0.00000000000E+00 -0.00000000000E+00 -0.20300743449E+04  0.20300743449E+04  0.00000000000E+00 0. -1.
          6    2    1    2  501    0 -0.70936704807E+02  0.25461850557E+00 -0.18608164022E+04  0.18701836724E+04  0.17296590597E+03 0.  0.
         24    2    3    3    0    0  0.30920574460E+02  0.25698464568E+00 -0.82378420257E+03  0.82815066977E+03  0.79101020697E+02 0.  0.
         -6    2    1    2    0  502  0.70936704807E+02 -0.25461850557E+00 -0.11247716451E+03  0.21667145077E+03  0.17106526276E+03 0.  0.
        -24    2    5    5    0    0  0.31648643426E+02  0.18708911920E+02  0.15232627773E+02  0.81634239981E+02  0.71277318780E+02 0.  0.
          5    1    3    3  501    0 -0.10185727927E+03 -0.23661401150E-02 -0.10370321997E+04  0.10420330026E+04  0.47000000000E+01 0. -1.
        -13    1    4    4    0    0  0.19245554142E+02 -0.29810290627E+02 -0.17477816648E+03  0.17834363533E+03  0.00000000000E+00 0.  1.
         14    1    4    4    0    0  0.11675020318E+02  0.30067275272E+02 -0.64900603608E+03  0.64980703444E+03  0.00000000000E+00 0. -1.
         -5    1    5    5    0  502  0.39288061381E+02 -0.18963530426E+02 -0.12770979228E+03  0.13503721079E+03  0.47000000000E+01 0.  1.
         13    1    6    6    0    0  0.29387607139E+02  0.42794871888E+02 -0.19676693246E+01  0.51950979161E+02  0.00000000000E+00 0. -1.
        -14    1    6    6    0    0  0.22610362877E+01 -0.24085959967E+02  0.17200297098E+02  0.29683260820E+02  0.00000000000E+00 0.  1.
</event>
<event>
12    1  0.8449700E-002  0.1801845E+03  0.7818608E-02  0.1169695E+00
         21   -1    0    0  501  502  0.00000000000E+00  0.00000000000E+00  0.37802570433E+03  0.37802570433E+03  0.00000000000E+00 0.  1.
         21   -1    0    0  502  503 -0.00000000000E+00 -0.00000000000E+00 -0.84986838424E+02  0.84986838424E+02  0.00000000000E+00 0.  1.
         -6    2    1    2    0  503  0.15240749814E+01 -0.17807241854E+02  0.99406078716E+02  0.19851280568E+03  0.17089863916E+03 0.  0.
        -24    2    3    3    0    0 -0.56172212293E+02 -0.45190091421E+02  0.54603025902E+02  0.12035856359E+03  0.79418081039E+02 0.  0.
          6    2    1    2  501    0 -0.15240749814E+01  0.17807241854E+02  0.19363278719E+03  0.26449973707E+03  0.17929593963E+03 0.  0.
         24    2    5    5    0    0 -0.23088410508E+02  0.63930268835E+02  0.18508008148E+03  0.21265773711E+03  0.79677616796E+02 0.  0.
          5    1    5    5  501    0  0.21564335526E+02 -0.46123026981E+02  0.85527057072E+01  0.51841999957E+02  0.47000000000E+01 0. -1.
        -13    1    6    6    0    0 -0.37905257906E+02  0.23049013165E+02  0.35300501747E+02  0.56693835717E+02  0.00000000000E+00 0.  1.
         14    1    6    6    0    0  0.14816847398E+02  0.40881255670E+02  0.14977957973E+03  0.15596390139E+03  0.00000000000E+00 0. -1.
         -5    1    3    3    0  503  0.57696287274E+02  0.27382849567E+02  0.44803052813E+02  0.78154242092E+02  0.47000000000E+01 0.  1.
         11    1    4    4    0    0 -0.67104137295E+02 -0.40204178316E+02  0.15889913666E+02  0.79823746796E+02  0.00000000000E+00 0. -1.
        -12    1    4    4    0    0  0.10931925002E+02 -0.49859131050E+01  0.38713112236E+02  0.40534816797E+02  0.00000000000E+00 0.  1.
</event>
<event>
12    1  0.8449700E-002  0.1749220E+03  0.7818608E-02  0.1173059E+00
         21   -1    0    0  501  502  0.00000000000E+00  0.00000000000E+00  0.75923002906E+03  0.75923002906E+03  0.00000000000E+00 0. -1.
         21   -1    0    0  502  503 -0.00000000000E+00 -0.00000000000E+00 -0.45215293235E+02  0.45215293235E+02  0.00000000000E+00 0. -1.
         -6    2    1    2    0  503  0.25239419421E+02 -0.10474335777E+02  0.49174321450E+03  0.52159846084E+03  0.17177550853E+03 0.  0.
        -24    2    3    3    0    0 -0.43979630792E+02 -0.30238032722E+02  0.22163798156E+03  0.24202591659E+03  0.81268707913E+02 0.  0.
          6    2    1    2  501    0 -0.25239419421E+02  0.10474335777E+02  0.22227152132E+03  0.28284686146E+03  0.17277435529E+03 0.  0.
         24    2    5    5    0    0 -0.14956656390E+02 -0.48350477133E+02  0.67337166265E+02  0.11673594007E+03  0.80817792184E+02 0.  0.
          5    1    5    5  501    0 -0.10282763031E+02  0.58824812910E+02  0.15493435505E+03  0.16611092139E+03  0.47000000000E+01 0. -1.
        -11    1    6    6    0    0 -0.36014379054E+02 -0.43614332535E+02  0.74907003316E+02  0.93863223080E+02  0.00000000000E+00 0.  1.
         12    1    6    6    0    0  0.21057722664E+02 -0.47361445978E+01 -0.75698370510E+01  0.22872716988E+02  0.00000000000E+00 0. -1.
         -5    1    3    3    0  503  0.69219050213E+02  0.19763696945E+02  0.27010523295E+03  0.27957254424E+03  0.47000000000E+01 0.  1.
         13    1    4    4    0    0 -0.33904030404E+02  0.11915582999E+02  0.34085067376E+02  0.49530356488E+02  0.00000000000E+00 0. -1.
        -14    1    4    4    0    0 -0.10075600388E+02 -0.42153615721E+02  0.18755291418E+03  0.19249556010E+03  0.00000000000E+00 0.  1.
</event>
<event>
12    1  0.8449700E-002  0.1815665E+03  0.7818608E-02  0.1166586E+00
         21   -1    0    0  501  502  0.00000000000E+00  0.00000000000E+00  0.13588363777E+04  0.13588363777E+04  0.00000000000E+00 0.  1.
         21   -1    0    0  502  503 -0.00000000000E+00 -0.00000000000E+00 -0.43895511450E+02  0.43895511450E+02  0.00000000000E+00 0.  1.
         -6    2    1    2    0  503 -0.86150241724E+01  0.55100876439E+02  0.18526104266E+03  0.25855405574E+03  0.17151740607E+03 0.  0.
        -24    2    3    3    0    0  0.20977388390E+02  0.42623240158E+02  0.20139045762E+03  0.22230974150E+03  0.81281691177E+02 0.  0.
          6    2    1    2  501    0  0.86150241724E+01 -0.55100876439E+02  0.11296798236E+04  0.11441778334E+04  0.17278913571E+03 0.  0.
         24    2    5    5    0    0  0.50444696047E+02 -0.36322139225E+02  0.39824852674E+03  0.41129571845E+03  0.81843227007E+02 0.  0.
          5    1    5    5  501    0 -0.41829671875E+02 -0.18778737214E+02  0.73143129687E+03  0.73288211498E+03  0.47000000000E+01 0. -1.
        -13    1    6    6    0    0  0.46991375935E+02  0.25577798695E+01  0.32411857463E+03  0.32751730042E+03  0.00000000000E+00 0.  1.
         14    1    6    6    0    0  0.34533201122E+01 -0.38879919094E+02  0.74129952104E+02  0.83778418029E+02  0.00000000000E+00 0. -1.
         -5    1    3    3    0  503 -0.29592412563E+02  0.12477636281E+02 -0.16129414951E+02  0.36244314245E+02  0.47000000000E+01 0.  1.
         13    1    4    4    0    0 -0.43539862469E+01 -0.13922970313E+02  0.11541713464E+03  0.11633538270E+03  0.00000000000E+00 0. -1.
        -14    1    4    4    0    0  0.25331374637E+02  0.56546210471E+02  0.85973322972E+02  0.10597435880E+03  0.00000000000E+00 0.  1.
</event>
<event>
12    1  0.8449700E-002  0.1801112E+03  0.7818608E-02  0.1167887E+00
         21   -1    0    0  503  502  0.00000000000E+00  0.00000000000E+00  0.19918677838E+04  0.19918677838E+04  0.00000000000E+00 0. -1.
         21   -1    0    0  501  503 -0.00000000000E+00 -0.00000000000E+00 -0.16216988235E+02  0.16216988235E+02  0.00000000000E+00 0. -1.
          6    2    1    2  501    0  0.16923770883E+02 -0.49689110796E+02  0.99693725361E+03  0.10129364240E+04  0.17146687623E+03 0.  0.
         24    2    3    3    0    0  0.24355088694E+02 -0.11964009732E+02  0.22281970953E+03  0.23785031923E+03  0.78662847181E+02 0.  0.
         -6    2    1    2    0  502 -0.16923770883E+02  0.49689110796E+02  0.97871354196E+03  0.99514834806E+03  0.17229223915E+03 0.  0.
        -24    2    5    5    0    0  0.20517725247E+02  0.25888143160E+01  0.84470514527E+03  0.84817677277E+03  0.73819891632E+02 0.  0.
          5    1    3    3  501    0 -0.74313178108E+01 -0.37725101064E+02  0.77411754408E+03  0.77508610476E+03  0.47000000000E+01 0. -1.
        -11    1    4    4    0    0  0.16324434572E+02 -0.35966308279E+02  0.52702443518E+02  0.65860534830E+02  0.00000000000E+00 0.  1.
         12    1    4    4    0    0  0.80306541215E+01  0.24002298547E+02  0.17011726601E+03  0.17198978440E+03  0.00000000000E+00 0. -1.
         -5    1    5    5    0  502 -0.37441496130E+02  0.47100296480E+02  0.13400839669E+03  0.14697157529E+03  0.47000000000E+01 0.  1.
         11    1    6    6    0    0 -0.20632993860E+02  0.16538811061E+02  0.50680293127E+03  0.50749232886E+03  0.00000000000E+00 0. -1.
        -12    1    6    6    0    0  0.41150719107E+02 -0.13949996745E+02  0.33790221400E+03  0.34068444391E+03  0.00000000000E+00 0.  1.
</event>
<event>
12    1  0.8449700E-002  0.1846658E+03  0.7818608E-02  0.1163911E+00
         21   -1    0    0  501  502  0.00000000000E+00  0.00000000000E+00  0.15156386423E+03  0.15156386423E+03  0.00000000000E+00 0.  1.
         21   -1    0    0  502  503 -0.00000000000E+00 -0.00000000000E+00 -0.22721045572E+03  0.22721045572E+03  0.00000000000E+00 0.  1.
         -6    2    1    2    0  503  0.37181870405E+02  0.51001690924E+02 -0.65794957430E+02  0.19384590980E+03  0.17106605847E+03 0.  0.
        -24    2    3    3    0    0  0.52814958377E+02 -0.28212208248E+02 -0.25943420608E+02  0.10368233485E+03  0.80570571325E+02 0.  0.
          6    2    1    2  501    0 -0.37181870405E+02 -0.51001690924E+02 -0.98516340577E+01  0.18492841015E+03  0.17354480177E+03 0.  0.
         24    2    5    5    0    0 -0.69143557683E+02 -0.77395665042E+02  0.21304236966E+02  0.13286143767E+03  0.80170883567E+02 0.  0.
          5    1    5    5  501    0  0.31961687278E+02  0.26393974118E+02 -0.31155871024E+02  0.52066972475E+02  0.47000000000E+01 0. -1.
        -11    1    6    6    0    0 -0.45928743310E+01  0.93444585710E+01  0.22433726763E+02  0.24732276424E+02  0.00000000000E+00 0.  1.
         12    1    6    6    0    0 -0.64550683352E+02 -0.86740123613E+02 -0.11294897972E+01  0.10812916125E+03  0.00000000000E+00 0. -1.
         -5    1    3    3    0  503 -0.15633087972E+02  0.79213899173E+02 -0.39851536822E+02  0.90163574956E+02  0.47000000000E+01 0.  1.
         13    1    4    4    0    0 -0.12536203915E+02  0.14915905334E+02  0.39315579299E+01  0.19877066893E+02  0.00000000000E+00 0. -1.
        -14    1    4    4    0    0  0.65351162291E+02 -0.43128113582E+02 -0.29874978538E+02  0.83805267953E+02  0.00000000000E+00 0.  1.
</event>
<event>
12    1  0.8449700E-002  0.2126276E+03  0.7818608E-02  0.1139613E+00
         21   -1    0    0  503  502  0.00000000000E+00  0.00000000000E+00  0.18959163737E+03  0.18959163737E+03  0.00000000000E+00 0.  1.
         21   -1    0    0  501  503 -0.00000000000E+00 -0.00000000000E+00 -0.41497365656E+03  0.41497365656E+03  0.00000000000E+00 0.  1.
          6    2    1    2  501    0 -0.10203592828E+03  0.71316364072E+02 -0.31010665997E+03  0.37567936762E+03  0.17167263105E+03 0.  0.
         24    2    3    3    0    0 -0.13083698459E+03  0.86640045597E+02 -0.23083808411E+03  0.28983116916E+03  0.78045316973E+02 0.  0.
         -6    2    1    2    0  502  0.10203592828E+03 -0.71316364072E+02  0.84724640777E+02  0.22888592632E+03  0.17237502159E+03 0.  0.
        -24    2    5    5    0    0  0.58365976549E+01 -0.70099610614E+02  0.11432037883E+02  0.10785003354E+03  0.80950089342E+02 0.  0.
          5    1    3    3  501    0  0.28801056313E+02 -0.15323681525E+02 -0.79268575861E+02  0.85848198462E+02  0.47000000000E+01 0. -1.
        -13    1    4    4    0    0 -0.24917044264E+02  0.60456670439E+02 -0.73688347482E+02  0.98518224964E+02  0.00000000000E+00 0.  1.
         14    1    4    4    0    0 -0.10591994033E+03  0.26183375158E+02 -0.15714973662E+03  0.19131294419E+03  0.00000000000E+00 0. -1.
         -5    1    5    5    0  502  0.96199330624E+02 -0.12167534580E+01  0.73292602893E+02  0.12103589278E+03  0.47000000000E+01 0.  1.
         11    1    6    6    0    0 -0.31511180123E+02 -0.10574706947E+02  0.17046777916E+02  0.37354672225E+02  0.00000000000E+00 0. -1.
        -12    1    6    6    0    0  0.37347777778E+02 -0.59524903667E+02 -0.56147400324E+01  0.70495361317E+02  0.00000000000E+00 0.  1.
</event>
<event>
12    1  0.8449700E-002  0.2009264E+03  0.7818608E-02  0.1149085E+00
         21   -1    0    0  503  502  0.00000000000E+00  0.00000000000E+00  0.24815194206E+03  0.24815194206E+03  0.00000000000E+00 0.  1.
         21   -1    0    0  501  503 -0.00000000000E+00 -0.00000000000E+00 -0.16797924922E+03  0.16797924922E+03  0.00000000000E+00 0.  1.
          6    2    1    2  501    0  0.88738362323E+02 -0.54356620215E+02  0.15691738742E+01  0.20093248680E+03  0.17187862821E+03 0.  0.
         24    2    3    3    0    0  0.62879005421E+02  0.20077804904E+02  0.41852828181E+02  0.11230939282E+03  0.80652668375E+02 0.  0.
         -6    2    1    2    0  502 -0.88738362323E+02  0.54356620215E+02  0.78603518966E+02  0.21519870448E+03  0.17118069432E+03 0.  0.
        -24    2    5    5    0    0 -0.48644398536E+02  0.82070398274E+02  0.21200634862E+01  0.12438357144E+03  0.79780639219E+02 0.  0.
          5    1    3    3  501    0  0.25859356902E+02 -0.74434425119E+02 -0.40283654307E+02  0.88623093980E+02  0.47000000000E+01 0. -1.
        -11    1    4    4    0    0  0.75117664362E+02 -0.31181973355E+01  0.41926449899E+02  0.86082599025E+02  0.00000000000E+00 0.  1.
         12    1    4    4    0    0 -0.12238658940E+02  0.23196002240E+02 -0.73621717739E-01  0.26226793794E+02  0.00000000000E+00 0. -1.
         -5    1    5    5    0  502 -0.40093963788E+02 -0.27713778059E+02  0.76483455479E+02  0.90815133037E+02  0.47000000000E+01 0.  1.
         11    1    6    6    0    0  0.17352198512E+01  0.46217276182E+02  0.31465567857E+02  0.55938623206E+02  0.00000000000E+00 0. -1.
        -12    1    6    6    0    0 -0.50379618387E+02  0.35853122092E+02 -0.29345504370E+02  0.68444948238E+02  0.00000000000E+00 0.  1.
</event>
<event>
12    1  0.8449700E-002  0.2114676E+03  0.7818608E-02  0.1140532E+00
         21   -1    0    0  501  502  0.00000000000E+00  0.00000000000E+00  0.49509297600E+02  0.49509297600E+02  0.00000000000E+00 0. -1.
         21   -1    0    0  502  503 -0.00000000000E+00 -0.00000000000E+00 -0.15054732096E+04  0.15054732096E+04  0.00000000000E+00 0.  1.
         -6    2    1    2    0  503 -0.70227421506E+02  0.99897885687E+02 -0.12201755694E+04  0.12382575697E+04  0.17187760327E+03 0.  0.
        -24    2    3    3    0    0 -0.14538087328E+02 -0.31684880950E+02 -0.29503752133E+03  0.30213908127E+03  0.55005434067E+02 0.  0.
          6    2    1    2  501    0  0.70227421506E+02 -0.99897885687E+02 -0.23578834260E+03  0.31672493749E+03  0.17264722767E+03 0.  0.
         24    2    5    5    0    0 -0.32750074655E+02 -0.44119362297E+02 -0.71711032661E+02  0.11508401400E+03  0.71293566004E+02 0.  0.
          5    1    5    5  501    0  0.10297749616E+03 -0.55778523390E+02 -0.16407730994E+03  0.20164092349E+03  0.47000000000E+01 0. -1.
        -11    1    6    6    0    0 -0.49691333339E+02 -0.89479641840E+01 -0.46284884336E+02  0.68495147201E+02  0.00000000000E+00 0.  1.
         12    1    6    6    0    0  0.16941258684E+02 -0.35171398113E+02 -0.25426148325E+02  0.46588866799E+02  0.00000000000E+00 0. -1.
         -5    1    3    3    0  503 -0.55689334179E+02  0.13158276664E+03 -0.92513804810E+03  0.93611848847E+03  0.47000000000E+01 0.  1.
         11    1    4    4    0    0 -0.29277044425E+02 -0.88172942270E+01 -0.84709444662E+02  0.90058758723E+02  0.00000000000E+00 0. -1.
        -12    1    4    4    0    0  0.14738957097E+02 -0.22867586723E+02 -0.21032807666E+03  0.21208032255E+03  0.00000000000E+00 0.  1.
</event>
<event>
12    1  0.8449700E-002  0.3133811E+03  0.7818608E-02  0.1079008E+00
         21   -1    0    0  503  502  0.00000000000E+00  0.00000000000E+00  0.96148715185E+03  0.96148715185E+03  0.00000000000E+00 0. -1.
         21   -1    0    0  501  503 -0.00000000000E+00 -0.00000000000E+00 -0.10686974203E+03  0.10686974203E+03  0.00000000000E+00 0.  1.
          6    2    1    2  501    0 -0.25421583034E+03  0.62159182766E+02  0.30494428104E+03  0.43562609773E+03  0.16819521424E+03 0.  0.
         24    2    3    3    0    0 -0.26552345591E+03  0.80248087570E+02  0.28859264400E+03  0.40833989414E+03  0.80704979849E+02 0.  0.
         -6    2    1    2    0  502  0.25421583034E+03 -0.62159182766E+02  0.54967312879E+03  0.63273079614E+03  0.17238984736E+03 0.  0.
        -24    2    5    5    0    0  0.17439689998E+03 -0.89652647379E+02  0.47466164471E+03  0.51970086654E+03  0.79582899072E+02 0.  0.
          5    1    3    3  501    0  0.11307625573E+02 -0.18088904804E+02  0.16351637033E+02  0.27286203597E+02  0.47000000000E+01 0. -1.
        -11    1    4    4    0    0 -0.46540262948E+02  0.37007395571E+02  0.98966111141E+02  0.11545490270E+03  0.00000000000E+00 0.  1.
         12    1    4    4    0    0 -0.21898319297E+03  0.43240691999E+02  0.18962653286E+03  0.29288499144E+03  0.00000000000E+00 0. -1.
         -5    1    5    5    0  502  0.79818930360E+02  0.27493464613E+02  0.75011484077E+02  0.11302992959E+03  0.47000000000E+01 0.  1.
         11    1    6    6    0    0  0.14310080813E+03 -0.51158852643E+02  0.27744110728E+03  0.31633627282E+03  0.00000000000E+00 0. -1.
        -12    1    6    6    0    0  0.31296091851E+02 -0.38493794736E+02  0.19722053742E+03  0.20336459372E+03  0.00000000000E+00 0.  1.
</event>
<event>
12    1  0.8449700E-002  0.1934425E+03  0.7818608E-02  0.1155532E+00
         21   -1    0    0  501  502  0.00000000000E+00  0.00000000000E+00  0.12454431310E+03  0.12454431310E+03  0.00000000000E+00 0.  1.
         21   -1    0    0  502  503 -0.00000000000E+00 -0.00000000000E+00 -0.31422208035E+03  0.31422208035E+03  0.00000000000E+00 0.  1.
         -6    2    1    2    0  503  0.67269362794E+02  0.57086275863E+02 -0.14251293592E+03  0.24027058064E+03  0.17215111082E+03 0.  0.
        -24    2    3    3    0    0  0.23205789141E+02 -0.32968667762E+02 -0.90811978120E+02  0.12736987014E+03  0.79692074549E+02 0.  0.
          6    2    1    2  501    0 -0.67269362794E+02 -0.57086275863E+02 -0.47164831337E+02  0.19849581281E+03  0.17144111620E+03 0.  0.
         24    2    5    5    0    0 -0.84122957286E+02 -0.93335069861E+02 -0.52862774640E+02  0.15784393374E+03  0.79574664742E+02 0.  0.
          5    1    5    5  501    0  0.16853594491E+02  0.36248793998E+02  0.56979433036E+01  0.40651879064E+02  0.47000000000E+01 0. -1.
        -13    1    6    6    0    0  0.13411808207E+00 -0.14815548850E+01 -0.31315029396E+02  0.31350343835E+02  0.00000000000E+00 0.  1.
         14    1    6    6    0    0 -0.84257075368E+02 -0.91853514976E+02 -0.21547745245E+02  0.12649358991E+03  0.00000000000E+00 0. -1.
         -5    1    3    3    0  503  0.44063573653E+02  0.90054943625E+02 -0.51700957799E+02  0.11290071050E+03  0.47000000000E+01 0.  1.
         13    1    4    4    0    0  0.26435944761E+02 -0.68528687794E+01  0.52144550642E+01  0.27803084856E+02  0.00000000000E+00 0. -1.
        -14    1    4    4    0    0 -0.32301556198E+01 -0.26115798983E+02 -0.96026433184E+02  0.99566785284E+02  0.00000000000E+00 0.  1.
</event>
<event>
12    1  0.8449700E-002  0.1955421E+03  0.7818608E-02  0.1153806E+00
         21   -1    0    0  503  502  0.00000000000E+00  0.00000000000E+00  0.93343036353E+03  0.93343036353E+03  0.00000000000E+00 0.  1.
         21   -1    0    0  501  503 -0.00000000000E+00 -0.00000000000E+00 -0.26088696017E+03  0.26088696017E+03  0.00000000000E+00 0.  1.
          6    2    1    2  501    0  0.81492917167E+02 -0.47387260436E+02 -0.21245739801E+03  0.28797128131E+03  0.17000783774E+03 0.  0.
         24    2    3    3    0    0  0.12125627039E+03 -0.32922737700E+02 -0.14331722020E+03  0.20677521697E+03  0.80182136291E+02 0.  0.
         -6    2    1    2    0  502 -0.81492917167E+02  0.47387260436E+02  0.88500080137E+03  0.90634604239E+03  0.17131865670E+03 0.  0.
        -24    2    5    5    0    0 -0.82061578768E+02  0.12933302713E+02  0.31838119098E+03  0.33866015085E+03  0.80142011290E+02 0.  0.
          5    1    3    3  501    0 -0.39763353223E+02 -0.14464522736E+02 -0.69140177808E+02  0.81196064344E+02  0.47000000000E+01 0. -1.
        -11    1    4    4    0    0  0.71475486310E+02 -0.44886580735E+02 -0.12802386209E+03  0.15334164320E+03  0.00000000000E+00 0.  1.
         12    1    4    4    0    0  0.49780784080E+02  0.11963843036E+02 -0.15293358107E+02  0.53433573771E+02  0.00000000000E+00 0. -1.
         -5    1    5    5    0  502  0.56866160041E+00  0.34453957723E+02  0.56661961038E+03  0.56768589153E+03  0.47000000000E+01 0.  1.
         13    1    6    6    0    0 -0.23999925102E+02 -0.29493750772E+02  0.16402722803E+03  0.16837698558E+03  0.00000000000E+00 0. -1.
        -14    1    6    6    0    0 -0.58061653666E+02  0.42427053484E+02  0.15435396296E+03  0.17028316527E+03  0.00000000000E+00 0.  1.
</event>
<event>
12    1  0.8449700E-002  0.2347740E+03  0.7818608E-02  0.1123370E+00
         21   -1    0    0  501  502  0.00000000000E+00  0.00000000000E+00  0.38284105520E+03  0.38284105520E+03  0.00000000000E+00 0. -1.
         21   -1    0    0  502  503 -0.00000000000E+00 -0.00000000000E+00 -0.16718233445E+03  0.16718233445E+03  0.00000000000E+00 0. -1.
         -6    2    1    2    0  503 -0.13540392904E+03  0.83669641962E+02  0.21071458906E+03  0.31546709616E+03  0.17258046740E+03 0.  0.
        -24    2    3    3    0    0 -0.12039889004E+03  0.33781308040E+02  0.63259396397E+02  0.15900904778E+03  0.75133591345E+02 0.  0.
          6    2    1    2  501    0  0.13540392904E+03 -0.83669641962E+02  0.49441316822E+01  0.23455629349E+03  0.17221317427E+03 0.  0.
         24    2    5    5    0    0  0.22705541588E+02 -0.11342644385E+02  0.45116222882E+02  0.94670597209E+02  0.79264438485E+02 0.  0.
          5    1    5    5  501    0  0.11269838745E+03 -0.72326997577E+02 -0.40172091200E+02  0.13988569628E+03  0.47000000000E+01 0. -1.
        -11    1    6    6    0    0  0.13330746666E+02  0.29287687785E+02 -0.13893019384E+01  0.32208812806E+02  0.00000000000E+00 0.  1.
         12    1    6    6    0    0  0.93747949225E+01 -0.40630332170E+02  0.46505524820E+02  0.62461784404E+02  0.00000000000E+00 0. -1.
         -5    1    3    3    0  503 -0.15005038999E+02  0.49888333922E+02  0.14745519267E+03  0.15645804837E+03  0.47000000000E+01 0.  1.
         11    1    4    4    0    0 -0.60518601422E+02 -0.10540750171E+02  0.23921208675E+00  0.61430169743E+02  0.00000000000E+00 0. -1.
        -12    1    4    4    0    0 -0.59880288620E+02  0.44322058211E+02  0.63020184310E+02  0.97578878041E+02  0.00000000000E+00 0.  1.
</event>
<event>
12    1  0.8449700E-002  0.2242261E+03  0.7818608E-02  0.1131158E+00
         21   -1    0    0  503  502  0.00000000000E+00  0.00000000000E+00  0.64104345585E+03  0.64104345585E+03  0.00000000000E+00 0.  1.
         21   -1    0    0  501  503 -0.00000000000E+00 -0.00000000000E+00 -0.80121230523E+02  0.80121230523E+02  0.00000000000E+00 0.  1.
          6    2    1    2  501    0 -0.12521913436E+02 -0.13997197979E+03  0.21637722828E+03  0.31008247976E+03  0.17199734270E+03 0.  0.
         24    2    3    3    0    0 -0.39359570567E+02 -0.89369598956E+02  0.54591893706E+02  0.13839251131E+03  0.81462330650E+02 0.  0.
         -6    2    1    2    0  502  0.12521913436E+02  0.13997197979E+03  0.34454499705E+03  0.41108220661E+03  0.17472370233E+03 0.  0.
        -24    2    5    5    0    0 -0.34915255336E+02  0.14773602460E+03  0.29884185293E+03  0.34458835159E+03  0.79935417474E+02 0.  0.
          5    1    3    3  501    0  0.26837657131E+02 -0.50602380834E+02  0.16178533457E+03  0.17168996846E+03  0.47000000000E+01 0. -1.
        -13    1    4    4    0    0 -0.17471068620E+02 -0.60220814644E+02  0.74082578734E+02  0.97056752609E+02  0.00000000000E+00 0.  1.
         14    1    4    4    0    0 -0.21888501947E+02 -0.29148784312E+02 -0.19490685028E+02  0.41335758699E+02  0.00000000000E+00 0. -1.
         -5    1    5    5    0  502  0.47437168772E+02 -0.77640448134E+01  0.45703144115E+02  0.66493855017E+02  0.47000000000E+01 0.  1.
         11    1    6    6    0    0 -0.22587036754E+02  0.72358383567E+01  0.86357150002E+02  0.89554949292E+02  0.00000000000E+00 0. -1.
        -12    1    6    6    0    0 -0.12328218582E+02  0.14050018625E+03  0.21248470293E+03  0.25503340230E+03  0.00000000000E+00 0.  1.
</event>
<event>
12    1  0.8449700E-002  0.2041411E+03  0.7818608E-02  0.1146519E+00
         21   -1    0    0  503  502  0.00000000000E+00  0.00000000000E+00  0.11952139968E+03  0.11952139968E+03  0.00000000000E+00 0.  1.
         21   -1    0    0  501  503 -0.00000000000E+00 -0.00000000000E+00 -0.65582147248E+03  0.65582147248E+03  0.00000000000E+00 0. -1.
          6    2    1    2  501    0  0.41380353747E+02 -0.98526129440E+02 -0.53388406604E+03  0.57118748464E+03  0.17263607613E+03 0.  0.
         24    2    3    3    0    0  0.72314166730E+02 -0.36207001745E+01 -0.27547136514E+03  0.29412583937E+03  0.73369531807E+02 0.  0.
         -6    2    1    2    0  502 -0.41380353747E+02  0.98526129440E+02 -0.24160067640E+01  0.20415538752E+03  0.17393634843E+03 0.  0.
        -24    2    5    5    0    0 -0.55820806150E+01  0.11222026527E+03 -0.47797002158E+02  0.14456872409E+03  0.77401647317E+02 0.  0.
          5    1    3    3  501    0 -0.30933812983E+02 -0.94905429266E+02 -0.25841270090E+03  0.27706164527E+03  0.47000000000E+01 0. -1.
        -11    1    4    4    0    0  0.68314979693E+02 -0.29949080585E+02 -0.17605876456E+03  0.19120819139E+03  0.00000000000E+00 0.  1.
         12    1    4    4    0    0  0.39991870366E+01  0.26328380410E+02 -0.99412600579E+02  0.10291764798E+03  0.00000000000E+00 0. -1.
         -5    1    5    5    0  502 -0.35798273132E+02 -0.13694135834E+02  0.45380995394E+02  0.59586663428E+02  0.47000000000E+01 0.  1.
         11    1    6    6    0    0  0.35168332719E+02  0.38069893576E+02 -0.18405394023E+02  0.54998972283E+02  0.00000000000E+00 0. -1.
        -12    1    6    6    0    0 -0.40750413334E+02  0.74150371699E+02 -0.29391608135E+02  0.89569751807E+02  0.00000000000E+00 0.  1.
</event>
<event>
12    1  0.8449700E-002  0.2035133E+03  0.7818608E-02  0.1146967E+00
         21   -1    0    0  501  502  0.00000000000E+00  0.00000000000E+00  0.68151979563E+02  0.68151979563E+02  0.00000000000E+00 0. -1.
         21   -1    0    0  502  503 -0.00000000000E+00 -0.00000000000E+00 -0.10080310151E+04  0.10080310151E+04  0.00000000000E+00 0. -1.
         -6    2    1    2    0  503 -0.50411021388E+02  0.96179985523E+02 -0.81053483858E+03  0.83569396302E+03  0.17212151112E+03 0.  0.
        -24    2    3    3    0    0 -0.53308314121E+01  0.28639643993E+02 -0.65212388967E+03  0.65762083199E+03  0.79692811561E+02 0.  0.
          6    2    1    2  501    0  0.50411021388E+02 -0.96179985523E+02 -0.12934419697E+03  0.24048903165E+03  0.17121095865E+03 0.  0.
         24    2    5    5    0    0  0.18003821684E+01 -0.11393872658E+03 -0.53814461897E+02  0.14880916467E+03  0.79138463405E+02 0.  0.
          5    1    5    5  501    0  0.48610639220E+02  0.17758741057E+02 -0.75529735069E+02  0.91679866976E+02  0.47000000000E+01 0. -1.
        -13    1    6    6    0    0 -0.78479452271E+01 -0.43304302018E+01  0.16112016606E+02  0.18437460485E+02  0.00000000000E+00 0.  1.
         14    1    6    6    0    0  0.96483273955E+01 -0.10960829638E+03 -0.69926478503E+02  0.13037170419E+03  0.00000000000E+00 0. -1.
         -5    1    3    3    0  503 -0.45080189976E+02  0.67540341530E+02 -0.15841094891E+03  0.17807313104E+03  0.47000000000E+01 0.  1.
         13    1    4    4    0    0 -0.12714520802E+02 -0.25141096932E+02 -0.30230716319E+03  0.30361711860E+03  0.00000000000E+00 0. -1.
        -14    1    4    4    0    0  0.73836893896E+01  0.53780740925E+02 -0.34981672648E+03  0.35400371338E+03  0.00000000000E+00 0.  1.
</event>
<event>
12    1  0.8449700E-002  0.1947684E+03  0.7818608E-02  0.1155303E+00
         21   -1    0    0  503  502  0.00000000000E+00  0.00000000000E+00  0.96644206894E+03  0.96644206894E+03  0.00000000000E+00 0. -1.
         21   -1    0    0  501  503 -0.00000000000E+00 -0.00000000000E+00 -0.84165792370E+02  0.84165792370E+02  0.00000000000E+00 0. -1.
          6    2    1    2  501    0 -0.53424951223E+02 -0.60462821382E+02  0.55817276753E+02  0.20260874358E+03  0.17727029195E+03 0.  0.
         24    2    3    3    0    0 -0.27480408841E+01  0.34413741608E+02  0.18934000708E+02  0.88801109835E+02  0.79594493434E+02 0.  0.
         -6    2    1    2    0  502  0.53424951223E+02  0.60462821382E+02  0.82645899982E+03  0.84799911773E+03  0.17192453900E+03 0.  0.
        -24    2    5    5    0    0  0.93561809428E+02  0.26765535383E+02  0.69841573523E+03  0.70956631065E+03  0.78927839983E+02 0.  0.
          5    1    3    3  501    0 -0.50676910339E+02 -0.94876562990E+02  0.36883276045E+02  0.11380763374E+03  0.47000000000E+01 0. -1.
        -11    1    4    4    0    0  0.12044802235E+02  0.44393627225E+02  0.40165449229E+02  0.61066641555E+02  0.00000000000E+00 0.  1.
         12    1    4    4    0    0 -0.14792843119E+02 -0.99798856171E+01 -0.21231448521E+02  0.27734468280E+02  0.00000000000E+00 0. -1.
         -5    1    5    5    0  502 -0.40136858205E+02  0.33697285999E+02  0.12804326458E+03  0.13843280708E+03  0.47000000000E+01 0.  1.
         11    1    6    6    0    0  0.16675271231E+02  0.33475968954E+02  0.38398948735E+03  0.38580646906E+03  0.00000000000E+00 0. -1.
        -12    1    6    6    0    0  0.76886538197E+02 -0.67104335717E+01  0.31442624788E+03  0.32375984160E+03  0.00000000000E+00 0.  1.
</event>
<event>
12    1  0.8449700E-002  0.2347165E+03  0.7818608E-02  0.1123516E+00
         21   -1    0    0  503  502  0.00000000000E+00  0.00000000000E+00  0.16774262329E+03  0.16774262329E+03  0.00000000000E+00 0. -1.
         21   -1    0    0  501  503 -0.00000000000E+00 -0.00000000000E+00 -0.36366509684E+03  0.36366509684E+03  0.00000000000E+00 0. -1.
          6    2    1    2  501    0  0.13513588696E+03  0.84365921977E+02 -0.18228004967E+03  0.29718316733E+03  0.17237314671E+03 0.  0.
         24    2    3    3    0    0  0.90611638833E+02  0.45482781287E+02 -0.28012507535E+02  0.13191105276E+03  0.79603220887E+02 0.  0.
         -6    2    1    2    0  502 -0.13513588696E+03 -0.84365921977E+02 -0.13642423885E+02  0.23422455280E+03  0.17115989212E+03 0.  0.
        -24    2    5    5    0    0 -0.14899256662E+03 -0.96547549341E+02  0.19126368518E+02  0.19632622339E+03  0.81596285611E+02 0.  0.
          5    1    3    3  501    0  0.44524248125E+02  0.38883140690E+02 -0.15426754213E+03  0.16527211458E+03  0.47000000000E+01 0. -1.
        -11    1    4    4    0    0 -0.12600904047E+02 -0.38257691215E+01  0.27666080196E+01  0.13456352110E+02  0.00000000000E+00 0.  1.
         12    1    4    4    0    0  0.10321254288E+03  0.49308550409E+02 -0.30779115555E+02  0.11845470065E+03  0.00000000000E+00 0. -1.
         -5    1    5    5    0  502  0.13856679666E+02  0.12181627364E+02 -0.32768792403E+02  0.37898329411E+02  0.47000000000E+01 0.  1.
         13    1    6    6    0    0 -0.83445693364E+02 -0.15360014253E+02  0.33048928759E+02  0.91056825505E+02  0.00000000000E+00 0. -1.
        -14    1    6    6    0    0 -0.65546873260E+02 -0.81187535088E+02 -0.13922560241E+02  0.10526939789E+03  0.00000000000E+00 0.  1.
</event>
<event>
12    1  0.8449700E-002  0.2100545E+03  0.7818608E-02  0.1143070E+00
         21   -1    0    0  501  502  0.00000000000E+00  0.00000000000E+00  0.65631850226E+02  0.65631850226E+02  0.00000000000E+00 0. -1.
         21   -1    0    0  502  503 -0.00000000000E+00 -0.00000000000E+00 -0.82019619785E+03  0.82019619785E+03  0.00000000000E+00 0. -1.
         -6    2    1    2    0  503  0.79998884016E+02 -0.70438656670E+02 -0.58575428443E+03  0.62227886122E+03  0.18100130830E+03 0.  0.
        -24    2    3    3    0    0  0.77208888845E+02  0.19792977695E+02 -0.25449955871E+03  0.27891125177E+03  0.81660801477E+02 0.  0.
          6    2    1    2  501    0 -0.79998884016E+02  0.70438656670E+02 -0.16881006320E+03  0.26354918685E+03  0.17204624569E+03 0.  0.
         24    2    5    5    0    0 -0.63599089224E+02 -0.22622000028E+02 -0.75807246333E+02  0.13088098026E+03  0.82622595956E+02 0.  0.
          5    1    5    5  501    0 -0.16399794791E+02  0.93060656698E+02 -0.93002816862E+02  0.13266820659E+03  0.47000000000E+01 0. -1.
        -11    1    6    6    0    0 -0.35759304277E+02  0.14557136133E+02  0.37158657273E+01  0.38787184905E+02  0.00000000000E+00 0.  1.
         12    1    6    6    0    0 -0.27839784948E+02 -0.37179136161E+02 -0.79523112061E+02  0.92093795358E+02  0.00000000000E+00 0. -1.
         -5    1    3    3    0  503  0.27899951710E+01 -0.90231634364E+02 -0.33125472571E+03  0.34336760945E+03  0.47000000000E+01 0.  1.
         11    1    4    4    0    0  0.75263132370E+02 -0.11571104063E+02 -0.21707348374E+03  0.23004201114E+03  0.00000000000E+00 0. -1.
        -12    1    4    4    0    0  0.19457564746E+01  0.31364081757E+02 -0.37426074969E+02  0.48869240636E+02  0.00000000000E+00 0.  1.
</event>
<event>
12    1  0.8449700E-002  0.1915316E+03  0.7818608E-02  0.1157188E+00
         21   -1    0    0  503  502  0.00000000000E+00  0.00000000000E+00  0.53603844416E+02  0.53603844416E+02  0.00000000000E+00 0. -1.
         21   -1    0    0  501  503 -0.00000000000E+00 -0.00000000000E+00 -0.68594543689E+03  0.68594543689E+03  0.00000000000E+00 0.  1.
          6    2    1    2  501    0  0.66840879785E+02 -0.49464728192E+02 -0.34103288192E+03  0.39091608093E+03  0.17203922004E+03 0.  0.
         24    2    3    3    0    0 -0.12191508206E+02  0.18946910866E+02 -0.17742129016E+03  0.19670713760E+03  0.81900949182E+02 0.  0.
         -6    2    1    2    0  502 -0.66840879785E+02  0.49464728192E+02 -0.29130871056E+03  0.34863320038E+03  0.17253950567E+03 0.  0.
        -24    2    5    5    0    0 -0.98267175678E+02  0.18015445960E+02 -0.12510172692E+03  0.17651835257E+03  0.74345763885E+02 0.  0.
          5    1    3    3  501    0  0.79032387991E+02 -0.68411639058E+02 -0.16361159176E+03  0.19420894332E+03  0.47000000000E+01 0. -1.
        -11    1    4    4    0    0  0.35043954151E+02  0.39948902209E+01 -0.68524663020E+02  0.77069237134E+02  0.00000000000E+00 0.  1.
         12    1    4    4    0    0 -0.47235462357E+02  0.14952020645E+02 -0.10889662714E+03  0.11963790047E+03  0.00000000000E+00 0. -1.
         -5    1    5    5    0  502  0.31426295894E+02  0.31449282232E+02 -0.16620698364E+03  0.17211484781E+03  0.47000000000E+01 0.  1.
         13    1    6    6    0    0  0.11330788668E+02  0.61457938701E+01 -0.59654270372E+01  0.14203657060E+02  0.00000000000E+00 0. -1.
        -14    1    6    6    0    0 -0.10959796435E+03  0.11869652090E+02 -0.11913629988E+03  0.16231469551E+03  0.00000000000E+00 0.  1.
</event>
<event>
12    1  0.8449700E-002  0.1954144E+03  0.7818608E-02  0.1153705E+00
         21   -1    0    0  503  502  0.00000000000E+00  0.00000000000E+00  0.91070306667E+03  0.91070306667E+03  0.00000000000E+00 0.  1.
         21   -1    0    0  501  503 -0.00000000000E+00 -0.00000000000E+00 -0.10425678860E+03  0.10425678860E+03  0.00000000000E+00 0.  1.
          6    2    1    2  501    0  0.69617836603E+02 -0.61180418173E+02  0.10658904174E+02  0.19553057974E+03  0.17183977605E+03 0.  0.
         24    2    3    3    0    0  0.36339836217E+02 -0.10339584404E+03  0.26468385467E+02  0.13930249788E+03  0.81812750990E+02 0.  0.
         -6    2    1    2    0  502 -0.69617836603E+02  0.61180418173E+02  0.79578737390E+03  0.81942927553E+03  0.17203809577E+03 0.  0.
        -24    2    5    5    0    0 -0.59412467540E+02 -0.12064314454E-01  0.23522891109E+03  0.25542878821E+03  0.79883563948E+02 0.  0.
          5    1    3    3  501    0  0.33278000386E+02  0.42215425867E+02 -0.15809481293E+02  0.56228081859E+02  0.47000000000E+01 0. -1.
        -13    1    4    4    0    0  0.18908998415E+02 -0.21485216970E+02 -0.27486095638E+02  0.39681862641E+02  0.00000000000E+00 0.  1.
         14    1    4    4    0    0  0.17430837802E+02 -0.81910627071E+02  0.53954481104E+02  0.99620635236E+02  0.00000000000E+00 0. -1.
         -5    1    5    5    0  502 -0.10205369063E+02  0.61192482487E+02  0.56055846280E+03  0.56400048731E+03  0.47000000000E+01 0.  1.
         13    1    6    6    0    0 -0.35139896558E+02 -0.37911544147E+02  0.15559485451E+03  0.16395687317E+03  0.00000000000E+00 0. -1.
        -14    1    6    6    0    0 -0.24272570982E+02  0.37899479833E+02  0.79634056583E+02  0.91471915042E+02  0.00000000000E+00 0.  1.
</event>
<event>
12    1  0.8449700E-002  0.2429164E+03  0.7818608E-02  0.1117896E+00
         21   -1    0    0  503  502  0.00000000000E+00  0.00000000000E+00  0.92817949518E+02  0.92817949518E+02  0.00000000000E+00 0. -1.
         21   -1    0    0  501  503 -0.00000000000E+00 -0.00000000000E+00 -0.95675667931E+03  0.95675667931E+03  0.00000000000E+00 0. -1.
          6    2    1    2  501    0  0.18853567114E+02  0.17050350930E+03 -0.73629863840E+03  0.77533481598E+03  0.17199269838E+03 0.  0.
         24    2    3    3    0    0  0.13450811646E+02  0.65210817226E+02 -0.17263142687E+03  0.20187291130E+03  0.80732197774E+02 0.  0.
         -6    2    1    2    0  502 -0.18853567114E+02 -0.17050350930E+03 -0.12764009140E+03  0.27423981285E+03  0.17172238742E+03 0.  0.
        -24    2    5    5    0    0 -0.15350622816E+02 -0.54072276901E+02  0.26674489374E+01  0.99395174483E+02  0.81931878268E+02 0.  0.
          5    1    3    3  501    0  0.54027554679E+01  0.10529269207E+03 -0.56366721152E+03  0.57346190468E+03  0.47000000000E+01 0. -1.
        -11    1    4    4    0    0 -0.46969645965E+01  0.72202776408E+02 -0.82797133575E+02  0.10995757239E+03  0.00000000000E+00 0.  1.
         12    1    4    4    0    0  0.18147776243E+02 -0.69919591822E+01 -0.89834293297E+02  0.91915338916E+02  0.00000000000E+00 0. -1.
         -5    1    5    5    0  502 -0.35029442979E+01 -0.11643123240E+03 -0.13030754034E+03  0.17484463837E+03  0.47000000000E+01 0.  1.
         11    1    6    6    0    0  0.13774496948E+02 -0.34034259651E+02 -0.32861588162E+02  0.49274248576E+02  0.00000000000E+00 0. -1.
        -12    1    6    6    0    0 -0.29125119765E+02 -0.20038017249E+02  0.35529037099E+02  0.50120925907E+02  0.00000000000E+00 0.  1.
</event>
<event>
12    1  0.8449700E-002  0.3207988E+03  0.7818608E-02  0.1075299E+00
         21   -1    0    0  501  502  0.00000000000E+00  0.00000000000E+00  0.11550573286E+03  0.11550573286E+03  0.00000000000E+00 0. -1.
         21   -1    0    0  502  503 -0.00000000000E+00 -0.00000000000E+00 -0.11260039488E+04  0.11260039488E+04  0.00000000000E+00 0.  1.
         -6    2    1    2    0  503  0.81324830839E+02 -0.25857165733E+03 -0.22129926500E+03  0.38960191506E+03  0.17129873744E+03 0.  0.
        -24    2    3    3    0    0  0.11898126830E+03 -0.17476305128E+03 -0.13437237049E+03  0.26303073067E+03  0.80190803887E+02 0.  0.
          6    2    1    2  501    0 -0.81324830839E+02  0.25857165733E+03 -0.78919895094E+03  0.85190776659E+03  0.17157747091E+03 0.  0.
         24    2    5    5    0    0  0.20220971154E+01  0.15126301138E+03 -0.31602490975E+03  0.35958915111E+03  0.80919877176E+02 0.  0.
          5    1    5    5  501    0 -0.83346927954E+02  0.10730864595E+03 -0.47317404119E+03  0.49231861548E+03  0.47000000000E+01 0. -1.
        -11    1    6    6    0    0 -0.28425200256E+02  0.86574903414E+02 -0.23205958703E+03  0.24930876006E+03  0.00000000000E+00 0.  1.
         12    1    6    6    0    0  0.30447297372E+02  0.64688107965E+02 -0.83965322717E+02  0.11028039104E+03  0.00000000000E+00 0. -1.
         -5    1    3    3    0  503 -0.37656437457E+02 -0.83808606046E+02 -0.86926894509E+02  0.12657118439E+03  0.47000000000E+01 0.  1.
         13    1    4    4    0    0  0.98088632395E+02 -0.89492479549E+02 -0.10859514326E+03  0.17153188870E+03  0.00000000000E+00 0. -1.
        -14    1    4    4    0    0  0.20892635901E+02 -0.85270571734E+02 -0.25777227227E+02  0.91498841972E+02  0.00000000000E+00 0.  1.
</event>
<event>
12    1  0.8449700E-002  0.2141735E+03  0.7818608E-02  0.1138409E+00
         21   -1    0    0  503  502  0.00000000000E+00  0.00000000000E+00  0.12260489597E+03  0.12260489597E+03  0.00000000000E+00 0.  1.
         21   -1    0    0  501  503 -0.00000000000E+00 -0.00000000000E+00 -0.89235370287E+03  0.89235370287E+03  0.00000000000E+00 0. -1.
          6    2    1    2  501    0 -0.11968992067E+03 -0.39371598763E+02 -0.77216638369E+03  0.80131842336E+03  0.17318917868E+03 0.  0.
         24    2    3    3    0    0 -0.18941910861E+01 -0.51771457520E+02 -0.38818717514E+03  0.39945810807E+03  0.78699589483E+02 0.  0.
         -6    2    1    2    0  502  0.11968992067E+03  0.39371598763E+02  0.24175767912E+01  0.21364017547E+03  0.17251226043E+03 0.  0.
        -24    2    5    5    0    0  0.15125899095E+03  0.27726785470E+02  0.20772189899E+02  0.17502425004E+03  0.80956452835E+02 0.  0.
          5    1    3    3  501    0 -0.11779572959E+03  0.12399858757E+02 -0.38397920855E+03  0.40186031529E+03  0.47000000000E+01 0. -1.
        -11    1    4    4    0    0 -0.14755595871E+02 -0.18313904768E+02 -0.24327575883E+02  0.33837223078E+02  0.00000000000E+00 0.  1.
         12    1    4    4    0    0  0.12861404784E+02 -0.33457552752E+02 -0.36385959926E+03  0.36562088499E+03  0.00000000000E+00 0. -1.
         -5    1    5    5    0  502 -0.31569070273E+02  0.11644813293E+02 -0.18354613107E+02  0.38615925431E+02  0.47000000000E+01 0.  1.
         11    1    6    6    0    0 -0.74319063401E+01  0.16308811187E+01  0.11687011077E+02  0.13945581128E+02  0.00000000000E+00 0. -1.
        -12    1    6    6    0    0  0.15869089729E+03  0.26095904352E+02  0.90851788212E+01  0.16107866892E+03  0.00000000000E+00 0.  1.
</event>
<event>
12    1  0.8449700E-002  0.1768465E+03  0.7818608E-02  0.1171404E+00
         21   -1    0    0  503  502  0.00000000000E+00  0.00000000000E+00  0.10429238431E+03  0.10429238431E+03  0.00000000000E+00 0. -1.
         21   -1    0    0  501  503 -0.00000000000E+00 -0.00000000000E+00 -0.50603790628E+03  0.50603790628E+03  0.00000000000E+00 0. -1.
          6    2    1    2  501    0 -0.18963981814E+02  0.33549547940E+02 -0.39798037491E+03  0.43550321584E+03  0.17259625551E+03 0.  0.
         24    2    3    3    0    0  0.56872089335E+01 -0.41273781564E+02 -0.14251250872E+03  0.16812308849E+03  0.78865000803E+02 0.  0.
         -6    2    1    2    0  502  0.18963981814E+02 -0.33549547940E+02 -0.37651470571E+01  0.17482707474E+03  0.17048496989E+03 0.  0.
        -24    2    5    5    0    0  0.46785116021E+02 -0.67537459619E+02  0.29095664614E+02  0.11977149744E+03  0.82149244464E+02 0.  0.
          5    1    3    3  501    0 -0.24651190747E+02  0.74823329504E+02 -0.25546786620E+03  0.26738012735E+03  0.47000000000E+01 0. -1.
        -11    1    4    4    0    0  0.22183387275E+02  0.84957510124E+01 -0.10296408861E+02  0.25890084814E+02  0.00000000000E+00 0.  1.
         12    1    4    4    0    0 -0.16496178341E+02 -0.49769532577E+02 -0.13221609985E+03  0.14223300367E+03  0.00000000000E+00 0. -1.
         -5    1    5    5    0  502 -0.27821134208E+02  0.33987911679E+02 -0.32860811671E+02  0.55055577307E+02  0.47000000000E+01 0.  1.
         11    1    6    6    0    0  0.54059264336E+01 -0.72204557291E+02  0.29350366282E+02  0.78129163153E+02  0.00000000000E+00 0. -1.
        -12    1    6    6    0    0  0.41379189588E+02  0.46670976719E+01 -0.25470166810E+00  0.41642334283E+02  0.00000000000E+00 0.  1.
</event>
<event>
12    1  0.8449700E-002  0.2433138E+03  0.7818608E-02  0.1118058E+00
         21   -1    0    0  503  502  0.00000000000E+00  0.00000000000E+00  0.40058233696E+02  0.40058233696E+02  0.00000000000E+00 0.  1.
         21   -1    0    0  501  503 -0.00000000000E+00 -0.00000000000E+00 -0.19870276656E+04  0.19870276656E+04  0.00000000000E+00 0. -1.
          6    2    1    2  501    0  0.11830717221E+03 -0.11762868214E+03 -0.14907920142E+04  0.15100757828E+04  0.17330593236E+03 0.  0.
         24    2    3    3    0    0  0.40557393715E+02 -0.24044279692E+02 -0.10019658639E+04  0.10063137719E+04  0.80677043633E+02 0.  0.
         -6    2    1    2    0  502 -0.11830717221E+03  0.11762868214E+03 -0.45617741770E+03  0.51701011654E+03  0.17711163239E+03 0.  0.
        -24    2    5    5    0    0 -0.15321408318E+02 -0.65470204226E+01 -0.20332963713E+03  0.21704384709E+03  0.74077535017E+02 0.  0.
          5    1    3    3  501    0  0.77749778495E+02 -0.93584402444E+02 -0.48882615031E+03  0.50376201094E+03  0.47000000000E+01 0. -1.
        -11    1    4    4    0    0 -0.19819823505E+02  0.35213294512E+01 -0.43685502598E+03  0.43731857826E+03  0.00000000000E+00 0.  1.
         12    1    4    4    0    0  0.60377217220E+02 -0.27565609144E+02 -0.56511083796E+03  0.56899519361E+03  0.00000000000E+00 0. -1.
         -5    1    5    5    0  502 -0.10298576389E+03  0.12417570256E+03 -0.25284778057E+03  0.29996626945E+03  0.47000000000E+01 0.  1.
         13    1    6    6    0    0  0.11386885122E+02  0.29135706214E+02 -0.88643333381E+02  0.94001016390E+02  0.00000000000E+00 0. -1.
        -14    1    6    6    0    0 -0.26708293441E+02 -0.35682726637E+02 -0.11468630375E+03  0.12304283070E+03  0.00000000000E+00 0.  1.
</event>
<event>
12    1  0.8449700E-002  0.1729611E+03  0.7818608E-02  0.1175054E+00
         21   -1    0    0  501  502  0.00000000000E+00  0.00000000000E+00  0.28482180816E+03  0.28482180816E+03  0.00000000000E+00 0. -1.
         21   -1    0    0  502  503 -0.00000000000E+00 -0.00000000000E+00 -0.18717469885E+04  0.18717469885E+04  0.00000000000E+00 0. -1.
         -6    2    1    2    0  503 -0.10111494207E+02 -0.11888065878E+02 -0.18413692598E+04  0.18494745990E+04  0.17225554492E+03 0.  0.
        -24    2    3    3    0    0 -0.37011545899E+02 -0.42809416317E+02 -0.16823099676E+04  0.16851526858E+04  0.79813825923E+02 0.  0.
          6    2    1    2  501    0  0.10111494207E+02  0.11888065878E+02  0.25444407945E+03  0.30709419773E+03  0.17123518413E+03 0.  0.
         24    2    5    5    0    0 -0.13991492881E+02 -0.38092574339E+02  0.22871480876E+03  0.24575005576E+03  0.80223563056E+02 0.  0.
          5    1    5    5  501    0  0.24102987089E+02  0.49980640217E+02  0.25729270695E+02  0.61344141967E+02  0.47000000000E+01 0. -1.
        -11    1    6    6    0    0 -0.21636400902E+02  0.21098330530E+02  0.76512565880E+02  0.82264488892E+02  0.00000000000E+00 0.  1.
         12    1    6    6    0    0  0.76449080210E+01 -0.59190904869E+02  0.15220224288E+03  0.16348556687E+03  0.00000000000E+00 0. -1.
         -5    1    3    3    0  503  0.26900051691E+02  0.30921350438E+02 -0.15905929225E+03  0.16432191316E+03  0.47000000000E+01 0.  1.
         11    1    4    4    0    0 -0.32473119706E+02 -0.20465982037E+02 -0.27583376836E+03  0.27849170130E+03  0.00000000000E+00 0. -1.
        -12    1    4    4    0    0 -0.45384261931E+01 -0.22343434280E+02 -0.14064761992E+04  0.14066609845E+04  0.00000000000E+00 0.  1.
</event>
<event>
12    1  0.8449700E-002  0.2093053E+03  0.7818608E-02  0.1142348E+00
         21   -1    0    0  501  502  0.00000000000E+00  0.00000000000E+00  0.16191225493E+04  0.16191225493E+04  0.00000000000E+00 0.  1.
         21   -1    0    0  502  503 -0.00000000000E+00 -0.00000000000E+00 -0.14745121766E+03  0.14745121766E+03  0.00000000000E+00 0.  1.
         -6    2    1    2    0  503 -0.80626710592E+02  0.86159142898E+02 -0.62428944700E+02  0.21841719933E+03  0.17287173123E+03 0.  0.
        -24    2    3    3    0    0 -0.53020033628E+02  0.41518897808E+02  0.33272670692E+02  0.10916625296E+03  0.79216521813E+02 0.  0.
          6    2    1    2  501    0  0.80626710592E+02 -0.86159142898E+02  0.15341002763E+04  0.15481565676E+04  0.17146730210E+03 0.  0.
         24    2    5    5    0    0 -0.34167758967E+00  0.10627025941E+02  0.59398585677E+03  0.59959942427E+03  0.81161697314E+02 0.  0.
          5    1    5    5  501    0  0.80968388182E+02 -0.96786168839E+02  0.94011441957E+03  0.94855714338E+03  0.47000000000E+01 0. -1.
        -13    1    6    6    0    0  0.34207411943E+02 -0.78396933259E+01  0.40945012960E+03  0.41095135533E+03  0.00000000000E+00 0.  1.
         14    1    6    6    0    0 -0.34549089532E+02  0.18466719266E+02  0.18453572718E+03  0.18864806893E+03  0.00000000000E+00 0. -1.
         -5    1    3    3    0  503 -0.27606676963E+02  0.44640245090E+02 -0.95701615392E+02  0.10925094637E+03  0.47000000000E+01 0.  1.
         11    1    4    4    0    0 -0.61898479177E+02  0.42225872004E+02  0.21514241144E+00  0.74929915769E+02  0.00000000000E+00 0. -1.
        -12    1    4    4    0    0  0.88784455482E+01 -0.70697419625E+00  0.33057528281E+02  0.34236337186E+02  0.00000000000E+00 0.  1.
</event>
<event>
12    1  0.8449700E-002  0.2101501E+03  0.7818608E-02  0.1141648E+00
         21   -1    0    0  503  502  0.00000000000E+00  0.00000000000E+00  0.28062956049E+02  0.28062956049E+02  0.00000000000E+00 0. -1.
         21   -1    0    0  501  503 -0.00000000000E+00 -0.00000000000E+00 -0.24809213998E+04  0.24809213998E+04  0.00000000000E+00 0. -1.
          6    2    1    2  501    0 -0.10501126013E+03  0.56445185669E+02 -0.19900672027E+04  0.20011323183E+04  0.17305970194E+03 0.  0.
         24    2    3    3    0    0 -0.59425725332E+02  0.33510956548E+02 -0.54789463624E+03  0.55804956903E+03  0.81094932252E+02 0.  0.
         -6    2    1    2    0  502  0.10501126013E+03 -0.56445185669E+02 -0.46279124104E+03  0.50785203751E+03  0.17182705109E+03 0.  0.
        -24    2    5    5    0    0  0.15433931245E+02 -0.71546232777E+02 -0.32552899754E+03  0.34318524376E+03  0.80311354363E+02 0.  0.
          5    1    3    3  501    0 -0.45585534797E+02  0.22934229121E+02 -0.14421725665E+04  0.14430827493E+04  0.47000000000E+01 0. -1.
        -13    1    4    4    0    0 -0.73997413265E+02  0.37399789678E+02 -0.51770685727E+03  0.52430406398E+03  0.00000000000E+00 0.  1.
         14    1    4    4    0    0  0.14571687933E+02 -0.38888331303E+01 -0.30187778966E+02  0.33745505053E+02  0.00000000000E+00 0. -1.
         -5    1    5    5    0  502  0.89577328884E+02  0.15101047108E+02 -0.13726224350E+03  0.16466679375E+03  0.47000000000E+01 0.  1.
         13    1    6    6    0    0  0.66379108470E+01 -0.73145496787E+02 -0.14599201991E+03  0.16342581019E+03  0.00000000000E+00 0. -1.
        -14    1    6    6    0    0  0.87960203982E+01  0.15992640099E+01 -0.17953697763E+03  0.17975943357E+03  0.00000000000E+00 0.  1.
</event>
<event>
12    1  0.8449700E-002  0.1955583E+03  0.7818608E-02  0.1154285E+00
         21   -1    0    0  503  502  0.00000000000E+00  0.00000000000E+00  0.53005823397E+03  0.53005823397E+03  0.00000000000E+00 0. -1.
         21   -1    0    0  501  503 -0.00000000000E+00 -0.00000000000E+00 -0.13204075693E+03  0.13204075693E+03  0.00000000000E+00 0. -1.
          6    2    1    2  501    0  0.27491207876E+02 -0.81474366747E+02 -0.27187002347E+02  0.19407987547E+03  0.17185466540E+03 0.  0.
         24    2    3    3    0    0  0.40464535578E+02  0.16117332975E+02  0.33743605835E+01  0.90888141355E+02  0.79700193649E+02 0.  0.
         -6    2    1    2    0  502 -0.27491207876E+02  0.81474366747E+02  0.42520447939E+03  0.46801911543E+03  0.17563941518E+03 0.  0.
        -24    2    5    5    0    0  0.28677392781E+02  0.98673503959E+02  0.24382167496E+03  0.27730326982E+03  0.83001452012E+02 0.  0.
          5    1    3    3  501    0 -0.12973327702E+02 -0.97591699722E+02 -0.30561362930E+02  0.10319173412E+03  0.47000000000E+01 0. -1.
        -11    1    4    4    0    0  0.42778144007E+02  0.79128041880E+01 -0.32316414883E+02  0.54193475121E+02  0.00000000000E+00 0.  1.
         12    1    4    4    0    0 -0.23136084293E+01  0.82045287874E+01  0.35690775466E+02  0.36694666233E+02  0.00000000000E+00 0. -1.
         -5    1    5    5    0  502 -0.56168600656E+02 -0.17199137212E+02  0.18138280443E+03  0.19071584560E+03  0.47000000000E+01 0.  1.
         11    1    6    6    0    0 -0.25846915788E+02  0.53917222714E+02  0.13459293822E+03  0.14727657308E+03  0.00000000000E+00 0. -1.
        -12    1    6    6    0    0  0.54524308569E+02  0.44756281244E+02  0.10922873674E+03  0.13002669674E+03  0.00000000000E+00 0.  1.
</event>
<event>
12    1  0.8449700E-002  0.1947557E+03  0.7818608E-02  0.1154283E+00
         21   -1    0    0  501  502  0.00000000000E+00  0.00000000000E+00  0.16581498327E+03  0.16581498327E+03  0.00000000000E+00 0. -1.
         21   -1    0    0  502  503 -0.00000000000E+00 -0.00000000000E+00 -0.26599422195E+03  0.26599422195E+03  0.00000000000E+00 0. -1.
         -6    2    1    2    0  503  0.20209346048E+02 -0.88947756819E+02  0.30925742088E+02  0.19719583308E+03  0.17207461739E+03 0.  0.
        -24    2    3    3    0    0  0.38215928905E+02 -0.12443841307E+03  0.38571536175E+02  0.15639911906E+03  0.77637266621E+02 0.  0.
          6    2    1    2  501    0 -0.20209346048E+02  0.88947756819E+02 -0.13110498077E+03  0.23461337215E+03  0.17185690937E+03 0.  0.
         24    2    5    5    0    0 -0.44699032692E+02  0.12099681474E+03 -0.11583879906E+03  0.19123096593E+03  0.80699580307E+02 0.  0.
          5    1    5    5  501    0  0.24489686643E+02 -0.32049057919E+02 -0.15266181705E+02  0.43382406217E+02  0.47000000000E+01 0. -1.
        -11    1    6    6    0    0  0.12598517596E+02  0.49015622308E+01  0.47266908652E+01  0.14320948448E+02  0.00000000000E+00 0.  1.
         12    1    6    6    0    0 -0.57297550287E+02  0.11609525251E+03 -0.12056548993E+03  0.17691001748E+03  0.00000000000E+00 0. -1.
         -5    1    3    3    0  503 -0.18006582857E+02  0.35490656255E+02 -0.76457940867E+01  0.40796714020E+02  0.47000000000E+01 0.  1.
         13    1    4    4    0    0  0.53531635744E+02 -0.43949784868E+02  0.23144031759E+02  0.73026473428E+02  0.00000000000E+00 0. -1.
        -14    1    4    4    0    0 -0.15315706839E+02 -0.80488628207E+02  0.15427504416E+02  0.83372645629E+02  0.00000000000E+00 0.  1.
</event>
<event>
12    1  0.8449700E-002  0.1809018E+03  0.7818608E-02  0.1167112E+00
         21   -1    0    0  501  502  0.00000000000E+00  0.00000000000E+00  0.14571828062E+03  0.14571828062E+03  0.00000000000E+00 0.  1.
         21   -1    0    0  502  503 -0.00000000000E+00 -0.00000000000E+00 -0.28507918812E+03  0.28507918812E+03  0.00000000000E+00 0.  1.
         -6    2    1    2    0  503  0.43239356417E+02  0.31312931826E+02 -0.16954707412E+03  0.24739448751E+03  0.17206882478E+03 0.  0.
        -24    2    3    3    0    0 -0.29321606802E+02 -0.18176776781E+02 -0.11461525077E+03  0.14369337923E+03  0.79504589082E+02 0.  0.
          6    2    1    2  501    0 -0.43239356417E+02 -0.31312931826E+02  0.30186166615E+02  0.18340298124E+03  0.17284474892E+03 0.  0.
         24    2    5    5    0    0 -0.33491534377E+02 -0.87593979979E+02  0.16270599711E+02  0.12442578719E+03  0.80141474274E+02 0.  0.
          5    1    5    5  501    0 -0.97478220401E+01  0.56281048154E+02  0.13915566903E+02  0.58977194050E+02  0.47000000000E+01 0. -1.
        -11    1    6    6    0    0 -0.21312348834E+02 -0.47221890751E+02  0.48796261746E+02  0.71170206824E+02  0.00000000000E+00 0.  1.
         12    1    6    6    0    0 -0.12179185543E+02 -0.40372089228E+02 -0.32525662034E+02  0.53255580364E+02  0.00000000000E+00 0. -1.
         -5    1    3    3    0  503  0.72560963219E+02  0.49489708607E+02 -0.54931823345E+02  0.10370110827E+03  0.47000000000E+01 0.  1.
         13    1    4    4    0    0 -0.41698309993E+02 -0.28632195965E+02 -0.32792165028E+02  0.60281653836E+02  0.00000000000E+00 0. -1.
        -14    1    4    4    0    0  0.12376703191E+02  0.10455419184E+02 -0.81823085747E+02  0.83411725395E+02  0.00000000000E+00 0.  1.
</event>
<event>
12    1  0.8449700E-002  0.2033198E+03  0.7818608E-02  0.1147785E+00
         21   -1    0    0  501  502  0.00000000000E+00  0.00000000000E+00  0.69982750560E+02  0.69982750560E+02  0.00000000000E+00 0. -1.
         21   -1    0    0  502  503 -0.00000000000E+00 -0.00000000000E+00 -0.10414157456E+04  0.10414157456E+04  0.00000000000E+00 0.  1.
         -6    2    1    2    0  503  0.10203606469E+03 -0.19869499391E+02 -0.85847070780E+03  0.88221929993E+03  0.17473631998E+03 0.  0.
        -24    2    3    3    0    0 -0.76087520815E+01 -0.30139133484E+02 -0.48054257040E+03  0.48854529994E+03  0.82395920131E+02 0.  0.
          6    2    1    2  501    0 -0.10203606469E+03  0.19869499391E+02 -0.11296228724E+03  0.22917919623E+03  0.17016600760E+03 0.  0.
         24    2    5    5    0    0 -0.39749373974E+02 -0.25202078197E+02 -0.11962509973E+03  0.15186450153E+03  0.80854838215E+02 0.  0.
          5    1    5    5  501    0 -0.62286690713E+02  0.45071577588E+02  0.66628124874E+01  0.77314694700E+02  0.47000000000E+01 0. -1.
        -13    1    6    6    0    0 -0.17052243761E+01  0.24018992649E+01 -0.10141335185E+03  0.10145612275E+03  0.00000000000E+00 0.  1.
         14    1    6    6    0    0 -0.38044149598E+02 -0.27603977462E+02 -0.18211747880E+02  0.50408378780E+02  0.00000000000E+00 0. -1.
         -5    1    3    3    0  503  0.10964481677E+03  0.10269634093E+02 -0.37792813740E+03  0.39367399999E+03  0.47000000000E+01 0.  1.
         11    1    4    4    0    0  0.21077034650E+02 -0.20439851775E+02 -0.58854899487E+02  0.65771788207E+02  0.00000000000E+00 0. -1.
        -12    1    4    4    0    0 -0.28685786732E+02 -0.96992817091E+01 -0.42168767091E+03  0.42277351173E+03  0.00000000000E+00 0.  1.
</event>
<event>
12    1  0.8449700E-002  0.1808800E+03  0.7818608E-02  0.1167415E+00
         21   -1    0    0  501  502  0.00000000000E+00  0.00000000000E+00  0.94696561751E+02  0.94696561751E+02  0.00000000000E+00 0. -1.
         21   -1    0    0  502  503 -0.00000000000E+00 -0.00000000000E+00 -0.56437496823E+03  0.56437496823E+03  0.00000000000E+00 0. -1.
         -6    2    1    2    0  503 -0.54314020879E+02  0.25000562147E+01 -0.44250329999E+03  0.47804470454E+03  0.17251465415E+03 0.  0.
        -24    2    3    3    0    0 -0.40170418377E+02 -0.30124309867E+02 -0.42965492973E+03  0.43994534271E+03  0.80171125551E+02 0.  0.
          6    2    1    2  501    0  0.54314020879E+02 -0.25000562147E+01 -0.27175106488E+02  0.18102682543E+03  0.17051674982E+03 0.  0.
         24    2    5    5    0    0  0.78858152799E+02 -0.46932943701E+02  0.56117935930E+01  0.12041521995E+03  0.77762609921E+02 0.  0.
          5    1    5    5  501    0 -0.24544131920E+02  0.44432887486E+02 -0.32786900081E+02  0.60611605481E+02  0.47000000000E+01 0. -1.
        -11    1    6    6    0    0 -0.49063054310E+01  0.14885720977E+02  0.44878244750E+01  0.16303284654E+02  0.00000000000E+00 0.  1.
         12    1    6    6    0    0  0.83764458230E+02 -0.61818664678E+02  0.11239691179E+01  0.10411193530E+03  0.00000000000E+00 0. -1.
         -5    1    3    3    0  503 -0.14143602502E+02  0.32624366082E+02 -0.12848370259E+02  0.38099361836E+02  0.47000000000E+01 0.  1.
         13    1    4    4    0    0 -0.47922111889E+02 -0.31344646156E+02 -0.15599567808E+03  0.16617360570E+03  0.00000000000E+00 0. -1.
        -14    1    4    4    0    0  0.77516935115E+01  0.12203362891E+01 -0.27365925165E+03  0.27377173701E+03  0.00000000000E+00 0.  1.
</event>
<event>
12    1  0.8449700E-002  0.2142218E+03  0.7818608E-02  0.1138334E+00
         21   -1    0    0  503  502  0.00000000000E+00  0.00000000000E+00  0.17514342694E+03  0.17514342694E+03  0.00000000000E+00 0.  1.
         21   -1    0    0  501  503 -0.00000000000E+00 -0.00000000000E+00 -0.36203239370E+03  0.36203239370E+03  0.00000000000E+00 0.  1.
          6    2    1    2  501    0  0.12455637433E+03 -0.24577188266E+02 -0.23486118482E+03  0.31764834142E+03  0.17211148743E+03 0.  0.
         24    2    3    3    0    0  0.13461481479E+03 -0.49250796801E+02 -0.23909331783E+03  0.29026294144E+03  0.80871324934E+02 0.  0.
         -6    2    1    2    0  502 -0.12455637433E+03  0.24577188266E+02  0.47972218066E+02  0.21952747921E+03  0.17254753506E+03 0.  0.
        -24    2    5    5    0    0 -0.99339950388E+02 -0.16208985038E+02  0.90699721276E+02  0.15512942412E+03  0.75548274959E+02 0.  0.
          5    1    3    3  501    0 -0.10058440456E+02  0.24673608535E+02  0.42321330074E+01  0.27385399985E+02  0.47000000000E+01 0. -1.
        -13    1    4    4    0    0  0.33690412621E+02 -0.51743572571E+02 -0.11264062563E+03  0.12845369495E+03  0.00000000000E+00 0.  1.
         14    1    4    4    0    0  0.10092440217E+03  0.24927757705E+01 -0.12645269220E+03  0.16180924649E+03  0.00000000000E+00 0. -1.
         -5    1    5    5    0  502 -0.25216423945E+02  0.40786173304E+02 -0.42727503210E+02  0.64398055094E+02  0.47000000000E+01 0.  1.
         13    1    6    6    0    0 -0.12029814361E+02 -0.25288171301E+01  0.60500487765E+02  0.61736701964E+02  0.00000000000E+00 0. -1.
        -14    1    6    6    0    0 -0.87310136027E+02 -0.13680167908E+02  0.30199233511E+02  0.93392722156E+02  0.00000000000E+00 0.  1.
</event>
<event>
12    1  0.8449700E-002  0.1801183E+03  0.7818608E-02  0.1167971E+00
         21   -1    0    0  503  502  0.00000000000E+00  0.00000000000E+00  0.34223084812E+02  0.34223084812E+02  0.00000000000E+00 0.  1.
         21   -1    0    0  501  503 -0.00000000000E+00 -0.00000000000E+00 -0.20304416641E+04  0.20304416641E+04  0.00000000000E+00 0.  1.
          6    2    1    2  501    0  0.18311528309E+02  0.47674735166E+02 -0.17524917600E+04  0.17616047745E+04  0.17151040842E+03 0.  0.
         24    2    3    3    0    0  0.62393363943E+02  0.31190717855E+02 -0.15477971239E+04  0.15515168998E+04  0.81626960907E+02 0.  0.
         -6    2    1    2    0  502 -0.18311528309E+02 -0.47674735166E+02 -0.24372681926E+03  0.30305997439E+03  0.17272635355E+03 0.  0.
        -24    2    5    5    0    0 -0.56684111786E+02 -0.19163104455E+02 -0.23502400715E+03  0.25424197375E+03  0.76304548854E+02 0.  0.
          5    1    3    3  501    0 -0.44081835634E+02  0.16484017312E+02 -0.20469463606E+03  0.21008787469E+03  0.47000000000E+01 0. -1.
        -13    1    4    4    0    0  0.24578496372E+02  0.28727984183E+02 -0.13235903105E+04  0.13241301709E+04  0.00000000000E+00 0.  1.
         14    1    4    4    0    0  0.37814867571E+02  0.24627336712E+01 -0.22420681343E+03  0.22738672884E+03  0.00000000000E+00 0. -1.
         -5    1    5    5    0  502  0.38372583477E+02 -0.28511630711E+02 -0.87028121067E+01  0.48818000646E+02  0.47000000000E+01 0.  1.
         11    1    6    6    0    0 -0.40520850156E+02  0.39220158961E+00 -0.22210539491E+03  0.22577178648E+03  0.00000000000E+00 0. -1.
        -12    1    6    6    0    0 -0.16163261631E+02 -0.19555306044E+02 -0.12918612239E+02  0.28470187270E+02  0.00000000000E+00 0.  1.
</event>
<event>
12    1  0.8449700E-002  0.3287146E+03  0.7818608E-02  0.1071727E+00
         21   -1    0    0  503  502  0.00000000000E+00  0.00000000000E+00  0.12718125277E+03  0.12718125277E+03  0.00000000000E+00 0.  1.
         21   -1    0    0  501  503 -0.00000000000E+00 -0.00000000000E+00 -0.87155636150E+03  0.87155636150E+03  0.00000000000E+00 0. -1.
          6    2    1    2  501    0  0.23198166989E+03  0.15616044219E+03 -0.29201529984E+03  0.43955726119E+03  0.17244150214E+03 0.  0.
         24    2    3    3    0    0  0.20888551723E+03  0.90260970641E+02 -0.15750598565E+03  0.28792936725E+03  0.79466866559E+02 0.  0.
         -6    2    1    2    0  502 -0.23198166989E+03 -0.15616044219E+03 -0.45235980889E+03  0.55918035308E+03  0.17277642115E+03 0.  0.
        -24    2    5    5    0    0 -0.16858061177E+03 -0.98446061750E+02 -0.41187458513E+03  0.46424991948E+03  0.88183128365E+02 0.  0.
          5    1    3    3  501    0  0.23096152656E+02  0.65899471548E+02 -0.13450931419E+03  0.15162789394E+03  0.47000000000E+01 0. -1.
        -13    1    4    4    0    0  0.16900360029E+03  0.78304529115E+02 -0.16092756932E+03  0.24615340494E+03  0.00000000000E+00 0.  1.
         14    1    4    4    0    0  0.39881916936E+02  0.11956441526E+02  0.34215836783E+01  0.41775962314E+02  0.00000000000E+00 0. -1.
         -5    1    5    5    0  502 -0.63401058116E+02 -0.57714380439E+02 -0.40485223759E+02  0.94930433595E+02  0.47000000000E+01 0.  1.
         13    1    6    6    0    0 -0.70642060753E+02  0.37744392569E+01 -0.16760059623E+03  0.18191895722E+03  0.00000000000E+00 0. -1.
        -14    1    6    6    0    0 -0.97938551017E+02 -0.10222050101E+03 -0.24427398889E+03  0.28233096226E+03  0.00000000000E+00 0.  1.
</event>
<event>
12    1  0.8449700E-002  0.1771945E+03  0.7818608E-02  0.1170657E+00
         21   -1    0    0  501  502  0.00000000000E+00  0.00000000000E+00  0.15077036486E+03  0.15077036486E+03  0.00000000000E+00 0.  1.
         21   -1    0    0  502  503 -0.00000000000E+00 -0.00000000000E+00 -0.25651810514E+03  0.25651810514E+03  0.00000000000E+00 0.  1.
         -6    2    1    2    0  503  0.33774816406E+02  0.20246621036E+02  0.35999976269E+02  0.18037370095E+03  0.17230208883E+03 0.  0.
        -24    2    3    3    0    0 -0.23755915778E+02 -0.21384929928E+02  0.61936374792E+02  0.10462571121E+03  0.78030546329E+02 0.  0.
          6    2    1    2  501    0 -0.33774816406E+02 -0.20246621036E+02 -0.14174771655E+03  0.22691476905E+03  0.17276351866E+03 0.  0.
         24    2    5    5    0    0  0.43069147552E+01 -0.74715379310E+02 -0.75615412900E+02  0.13303913077E+03  0.79879798625E+02 0.  0.
          5    1    5    5  501    0 -0.38081731162E+02  0.54468758274E+02 -0.66132303646E+02  0.93875638276E+02  0.47000000000E+01 0. -1.
        -13    1    6    6    0    0 -0.15208218427E+02 -0.51411825189E+02 -0.22895036565E+01  0.53662906220E+02  0.00000000000E+00 0.  1.
         14    1    6    6    0    0  0.19515133182E+02 -0.23303554121E+02 -0.73325909244E+02  0.79376224553E+02  0.00000000000E+00 0. -1.
         -5    1    3    3    0  503  0.57530732185E+02  0.41631550964E+02 -0.25936398523E+02  0.75747989740E+02  0.47000000000E+01 0.  1.
         11    1    4    4    0    0 -0.19488364807E+01  0.22563137139E+02  0.48857740100E+02  0.53851387066E+02  0.00000000000E+00 0. -1.
        -12    1    4    4    0    0 -0.21807079298E+02 -0.43948067067E+02  0.13078634692E+02  0.50774324140E+02  0.00000000000E+00 0.  1.
</event>
<event>
12    1  0.8449700E-002  0.3039588E+03  0.7818608E-02  0.1083286E+00
         21   -1    0    0  503  502  0.00000000000E+00  0.00000000000E+00  0.75276993381E+02  0.75276993381E+02  0.00000000000E+00 0. -1.
         21   -1    0    0  501  503 -0.00000000000E+00 -0.00000000000E+00 -0.12775540868E+04  0.12775540868E+04  0.00000000000E+00 0.  1.
          6    2    1    2  501    0  0.25052683227E+03 -0.12580517118E+02 -0.73550072426E+03  0.79581121127E+03  0.17155816940E+03 0.  0.
         24    2    3    3    0    0  0.89524755729E+02 -0.52965445038E+02 -0.41019219093E+03  0.43057109447E+03  0.79459509458E+02 0.  0.
         -6    2    1    2    0  502 -0.25052683227E+03  0.12580517118E+02 -0.46677636916E+03  0.55701986892E+03  0.17166535021E+03 0.  0.
        -24    2    5    5    0    0 -0.16407859408E+03 -0.53714059795E+02 -0.24988992282E+03  0.31426466419E+03  0.80686556372E+02 0.  0.
          5    1    3    3  501    0  0.16100207654E+03  0.40384927920E+02 -0.32530853334E+03  0.36524011679E+03  0.47000000000E+01 0. -1.
        -13    1    4    4    0    0  0.74231120520E+02 -0.27806370228E+02 -0.38082077668E+03  0.38898318400E+03  0.00000000000E+00 0.  1.
         14    1    4    4    0    0  0.15293635210E+02 -0.25159074810E+02 -0.29371414243E+02  0.41587910478E+02  0.00000000000E+00 0. -1.
         -5    1    5    5    0  502 -0.86448238192E+02  0.66294576913E+02 -0.21688644634E+03  0.24275520472E+03  0.47000000000E+01 0.  1.
         13    1    6    6    0    0 -0.81942832515E+02 -0.47976101855E+02 -0.75136348363E+02  0.12108594053E+03  0.00000000000E+00 0. -1.
        -14    1    6    6    0    0 -0.82135761563E+02 -0.57379579393E+01 -0.17475357446E+03  0.19317872366E+03  0.00000000000E+00 0.  1.
</event>
<event>
12    1  0.8449700E-002  0.1936832E+03  0.7818608E-02  0.1156536E+00
         21   -1    0    0  501  502  0.00000000000E+00  0.00000000000E+00  0.26313860728E+03  0.26313860728E+03  0.00000000000E+00 0.  1.
         21   -1    0    0  502  503 -0.00000000000E+00 -0.00000000000E+00 -0.14519286783E+03  0.14519286783E+03  0.00000000000E+00 0. -1.
         -6    2    1    2    0  503 -0.54786363484E+02 -0.80239613703E+02  0.13080188998E+02  0.18808168763E+03  0.16051071194E+03 0.  0.
        -24    2    3    3    0    0 -0.90222263074E+02 -0.36688938799E+02 -0.15110386044E+02  0.12508039569E+03  0.77010691699E+02 0.  0.
          6    2    1    2  501    0  0.54786363484E+02  0.80239613703E+02  0.10486555046E+03  0.22024978749E+03  0.16755072063E+03 0.  0.
         24    2    5    5    0    0 -0.56241502045E+01  0.35395144827E+02  0.11387672960E+03  0.14433043618E+03  0.81110529046E+02 0.  0.
          5    1    5    5  501    0  0.60410513688E+02  0.44844468876E+02 -0.90111791412E+01  0.75919351304E+02  0.47000000000E+01 0. -1.
        -13    1    6    6    0    0  0.13024325668E+02  0.56477995290E+02  0.91765718982E+02  0.10853729401E+03  0.00000000000E+00 0.  1.
         14    1    6    6    0    0 -0.18648475872E+02 -0.21082850464E+02  0.22111010615E+02  0.35793142170E+02  0.00000000000E+00 0. -1.
         -5    1    3    3    0  503  0.35435899591E+02 -0.43550674904E+02  0.28190575042E+02  0.63001291936E+02  0.47000000000E+01 0.  1.
         11    1    4    4    0    0 -0.59499825314E+01  0.83506269995E+01 -0.26914066024E+02  0.28801080073E+02  0.00000000000E+00 0. -1.
        -12    1    4    4    0    0 -0.84272280543E+02 -0.45039565799E+02  0.11803679980E+02  0.96279315620E+02  0.00000000000E+00 0.  1.
</event>
<event>
12    1  0.8449700E-002  0.1933916E+03  0.7818608E-02  0.1155955E+00
         21   -1    0    0  503  502  0.00000000000E+00  0.00000000000E+00  0.17375587789E+03  0.17375587789E+03  0.00000000000E+00 0. -1.
         21   -1    0    0  501  503 -0.00000000000E+00 -0.00000000000E+00 -0.24821022411E+03  0.24821022411E+03  0.00000000000E+00 0. -1.
          6    2    1    2  501    0 -0.75287073782E+02  0.36070984202E+02 -0.11688508909E+03  0.22397447898E+03  0.17185221501E+03 0.  0.
         24    2    3    3    0    0 -0.42863332906E+02 -0.47146813916E+02 -0.59344624559E+02  0.11762836502E+03  0.79085778893E+02 0.  0.
         -6    2    1    2    0  502  0.75287073782E+02 -0.36070984202E+02  0.42430742868E+02  0.19799162301E+03  0.17444499266E+03 0.  0.
        -24    2    5    5    0    0  0.69691847257E+02 -0.61780867132E+02  0.84263241545E+02  0.14834937704E+03  0.78951977009E+02 0.  0.
          5    1    3    3  501    0 -0.32423740876E+02  0.83217798118E+02 -0.57540464529E+02  0.10634611396E+03  0.47000000000E+01 0. -1.
        -11    1    4    4    0    0  0.79405341311E+01 -0.20817675320E+02  0.12683284952E+02  0.25637734010E+02  0.00000000000E+00 0.  1.
         12    1    4    4    0    0 -0.50803867037E+02 -0.26329138596E+02 -0.72027909511E+02  0.91990631010E+02  0.00000000000E+00 0. -1.
         -5    1    5    5    0  502  0.55952265249E+01  0.25709882931E+02 -0.41832498677E+02  0.49642245978E+02  0.47000000000E+01 0.  1.
         11    1    6    6    0    0  0.80125064130E+02 -0.62421309133E+02  0.51342576710E+02  0.11380907661E+03  0.00000000000E+00 0. -1.
        -12    1    6    6    0    0 -0.10433216873E+02  0.64044200064E+00  0.32920664836E+02  0.34540300426E+02  0.00000000000E+00 0.  1.
</event>
<event>
12    1  0.8449700E-002  0.1975985E+03  0.7818608E-02  0.1151902E+00
         21   -1    0    0  501  502  0.00000000000E+00  0.00000000000E+00  0.20942044761E+03  0.20942044761E+03  0.00000000000E+00 0. -1.
         21   -1    0    0  502  503 -0.00000000000E+00 -0.00000000000E+00 -0.23245967564E+03  0.23245967564E+03  0.00000000000E+00 0. -1.
         -6    2    1    2    0  503  0.37523920104E+02  0.89057214039E+02 -0.11037293859E+03  0.22584233321E+03  0.17170714005E+03 0.  0.
        -24    2    3    3    0    0  0.84614352981E+02  0.76173567463E+02 -0.10856818710E+03  0.17676235414E+03  0.80597006654E+02 0.  0.
          6    2    1    2  501    0 -0.37523920104E+02 -0.89057214039E+02  0.87333710559E+02  0.21603779005E+03  0.17235404775E+03 0.  0.
         24    2    5    5    0    0 -0.73615424044E+02 -0.19780352524E+02  0.75986268201E+02  0.13696355501E+03  0.84703066317E+02 0.  0.
          5    1    5    5  501    0  0.36091503940E+02 -0.69276861515E+02  0.11347442358E+02  0.79074235033E+02  0.47000000000E+01 0. -1.
        -13    1    6    6    0    0  0.10300850620E+01  0.25939544926E+02  0.22706318297E+02  0.34489099101E+02  0.00000000000E+00 0.  1.
         14    1    6    6    0    0 -0.74645509106E+02 -0.45719897450E+02  0.53279949904E+02  0.10247445591E+03  0.00000000000E+00 0. -1.
         -5    1    3    3    0  503 -0.47090432876E+02  0.12883646576E+02 -0.18047514955E+01  0.49079979070E+02  0.47000000000E+01 0.  1.
         11    1    4    4    0    0  0.69780118735E+02  0.38039677534E+02 -0.24335607078E+02  0.83117409786E+02  0.00000000000E+00 0. -1.
        -12    1    4    4    0    0  0.14834234245E+02  0.38133889929E+02 -0.84232580018E+02  0.93644944355E+02  0.00000000000E+00 0.  1.
</event>
<event>
12    1  0.8449700E-002  0.2162929E+03  0.7818608E-02  0.1137003E+00
         21   -1    0    0  503  502  0.00000000000E+00  0.00000000000E+00  0.49127108093E+03  0.49127108093E+03  0.00000000000E+00 0.  1.
         21   -1    0    0  501  503 -0.00000000000E+00 -0.00000000000E+00 -0.97369823464E+02  0.97369823464E+02  0.00000000000E+00 0.  1.
          6    2    1    2  501    0 -0.13010213032E+03  0.12256056345E+02  0.24841165274E+03  0.32937968879E+03  0.17235386546E+03 0.  0.
         24    2    3    3    0    0 -0.35430970965E+02 -0.52435524787E+02  0.11694868582E+03  0.15487401337E+03  0.79398532345E+02 0.  0.
         -6    2    1    2    0  502  0.13010213032E+03 -0.12256056345E+02  0.14548960472E+03  0.25926121560E+03  0.17021274218E+03 0.  0.
        -24    2    5    5    0    0  0.98670931246E+02 -0.69158766755E+02  0.74944816121E+02  0.16321697618E+03  0.80648423158E+02 0.  0.
          5    1    3    3  501    0 -0.94671159354E+02  0.64691581133E+02  0.13146296692E+03  0.17450567542E+03  0.47000000000E+01 0. -1.
        -13    1    4    4    0    0 -0.38550670282E+02 -0.61770267411E+01  0.13160326856E+02  0.41200777196E+02  0.00000000000E+00 0.  1.
         14    1    4    4    0    0  0.31196993179E+01 -0.46258498046E+02  0.10378835897E+03  0.11367323617E+03  0.00000000000E+00 0. -1.
         -5    1    5    5    0  502  0.31431199073E+02  0.56902710410E+02  0.70544788603E+02  0.96044239422E+02  0.47000000000E+01 0.  1.
         11    1    6    6    0    0 -0.45591265893E+01  0.90657376141E+01  0.20193270520E+02  0.22599588670E+02  0.00000000000E+00 0. -1.
        -12    1    6    6    0    0  0.10323005784E+03 -0.78224504369E+02  0.54751545600E+02  0.14061738751E+03  0.00000000000E+00 0.  1.
</event>
<event>
12    1  0.8449700E-002  0.2144940E+03  0.7818608E-02  0.1139152E+00
         21   -1    0    0  501  502  0.00000000000E+00  0.00000000000E+00  0.70952640635E+02  0.70952640635E+02  0.00000000000E+00 0. -1.
         21   -1    0    0  502  503 -0.00000000000E+00 -0.00000000000E+00 -0.10714765765E+04  0.10714765765E+04  0.00000000000E+00 0. -1.
         -6    2    1    2    0  503  0.17331253720E+02  0.11864403708E+03 -0.86233805699E+03  0.88727631553E+03  0.17104255515E+03 0.  0.
        -24    2    3    3    0    0 -0.45901165520E+02  0.66421730154E+02 -0.33087114989E+03  0.34949878575E+03  0.78453299372E+02 0.  0.
          6    2    1    2  501    0 -0.17331253720E+02 -0.11864403708E+03 -0.13818587883E+03  0.25515290156E+03  0.17785074129E+03 0.  0.
         24    2    5    5    0    0  0.61929322897E+02 -0.79923456149E+02 -0.81873614550E+02  0.15039277794E+03  0.75443349738E+02 0.  0.
          5    1    5    5  501    0 -0.79260576617E+02 -0.38720580931E+02 -0.56312264280E+02  0.10476012362E+03  0.47000000000E+01 0. -1.
        -13    1    6    6    0    0 -0.12991676892E+02 -0.16504716296E+02 -0.36816980008E+02  0.42387254516E+02  0.00000000000E+00 0.  1.
         14    1    6    6    0    0  0.74920999789E+02 -0.63418739852E+02 -0.45056634542E+02  0.10800552342E+03  0.00000000000E+00 0. -1.
         -5    1    3    3    0  503  0.63232419240E+02  0.52222306925E+02 -0.53146690711E+03  0.53777752978E+03  0.47000000000E+01 0.  1.
         13    1    4    4    0    0 -0.16349811483E+00  0.13632823648E+02 -0.20575804304E+03  0.20620924540E+03  0.00000000000E+00 0. -1.
        -14    1    4    4    0    0 -0.45737667405E+02  0.52788906506E+02 -0.12511310684E+03  0.14328954035E+03  0.00000000000E+00 0.  1.
</event>
<event>
12    1  0.8449700E-002  0.1841511E+03  0.7818608E-02  0.1164301E+00
         21   -1    0    0  501  502  0.00000000000E+00  0.00000000000E+00  0.25744592145E+04  0.25744592145E+04  0.00000000000E+00 0.  1.
         21   -1    0    0  502  503 -0.00000000000E+00 -0.00000000000E+00 -0.21351657093E+02  0.21351657093E+02  0.00000000000E+00 0.  1.
         -6    2    1    2    0  503 -0.30398420259E+02  0.50489276095E+02  0.47061806903E+03  0.50536421970E+03  0.17446603310E+03 0.  0.
        -24    2    3    3    0    0 -0.44730923484E+02  0.11676945739E+02  0.45028631895E+03  0.45902538396E+03  0.76218944593E+02 0.  0.
          6    2    1    2  501    0  0.30398420259E+02 -0.50489276095E+02  0.20824894884E+04  0.20904466519E+04  0.17242825822E+03 0.  0.
         24    2    5    5    0    0  0.18992172912E+02 -0.71250872536E+02  0.20254573429E+04  0.20285119929E+04  0.83343074119E+02 0.  0.
          5    1    5    5  501    0  0.11406247347E+02  0.20761596440E+02  0.57032145516E+02  0.61934659016E+02  0.47000000000E+01 0. -1.
        -11    1    6    6    0    0  0.15724862281E+02 -0.20098985299E+02  0.15654286730E+04  0.15656366662E+04  0.00000000000E+00 0.  1.
         12    1    6    6    0    0  0.32673106315E+01 -0.51151887237E+02  0.46002866991E+03  0.46287532666E+03  0.00000000000E+00 0. -1.
         -5    1    3    3    0  503  0.14332503225E+02  0.38812330357E+02  0.20331750081E+02  0.46338835740E+02  0.47000000000E+01 0.  1.
         13    1    4    4    0    0 -0.39095533197E+02  0.42274475799E+02  0.26966330710E+03  0.27574243637E+03  0.00000000000E+00 0. -1.
        -14    1    4    4    0    0 -0.56353902866E+01 -0.30597530060E+02  0.18062301185E+03  0.18328294759E+03  0.00000000000E+00 0.  1.
</event>
<event>
12    1  0.8449700E-002  0.2303536E+03  0.7818608E-02  0.1126410E+00
         21   -1    0    0  501  502  0.00000000000E+00  0.00000000000E+00  0.75010028007E+02  0.75010028007E+02  0.00000000000E+00 0.  1.
         21   -1    0    0  502  503 -0.00000000000E+00 -0.00000000000E+00 -0.70850557347E+03  0.70850557347E+03  0.00000000000E+00 0.  1.
         -6    2    1    2    0  503 -0.14990862174E+03 -0.29481875069E+02 -0.29914615242E+03  0.37749554124E+03  0.17225761904E+03 0.  0.
        -24    2    3    3    0    0 -0.83935475124E+02 -0.42677186268E+02 -0.76294854592E+02  0.14466220330E+03  0.78992037665E+02 0.  0.
          6    2    1    2  501    0  0.14990862174E+03  0.29481875069E+02 -0.33434939303E+03  0.40602006023E+03  0.17239778669E+03 0.  0.
         24    2    5    5    0    0  0.97554273885E+02  0.28540408118E+02 -0.95299064204E+02  0.16125688119E+03  0.81181764231E+02 0.  0.
          5    1    5    5  501    0  0.52354347857E+02  0.94146695082E+00 -0.23905032883E+03  0.24476317904E+03  0.47000000000E+01 0. -1.
        -13    1    6    6    0    0  0.36133229108E+02  0.82555754353E+01 -0.88827276033E+02  0.96249933709E+02  0.00000000000E+00 0.  1.
         14    1    6    6    0    0  0.61421044777E+02  0.20284832683E+02 -0.64717881706E+01  0.65006947479E+02  0.00000000000E+00 0. -1.
         -5    1    3    3    0  503 -0.65973146618E+02  0.13195311199E+02 -0.22285129783E+03  0.23283333794E+03  0.47000000000E+01 0.  1.
         13    1    4    4    0    0 -0.23221506564E+02 -0.54982281979E+02 -0.47838574644E+02  0.76490645982E+02  0.00000000000E+00 0. -1.
        -14    1    4    4    0    0 -0.60713968560E+02  0.12305095711E+02 -0.28456279948E+02  0.68171557319E+02  0.00000000000E+00 0.  1.
</event>
<event>
12    1  0.8449700E-002  0.1763679E+03  0.7818608E-02  0.1171813E+00
         21   -1    0    0  503  502  0.00000000000E+00  0.00000000000E+00  0.17816888256E+03  0.17816888256E+03  0.00000000000E+00 0. -1.
         21   -1    0    0  501  503 -0.00000000000E+00 -0.00000000000E+00 -0.24213304012E+03  0.24213304012E+03  0.00000000000E+00 0. -1.
          6    2    1    2  501    0 -0.32289360983E+02  0.82058378774E+01 -0.14453877891E+03  0.22802874208E+03  0.17319269614E+03 0.  0.
         24    2    3    3    0    0 -0.54318903240E+02  0.22910177339E+02 -0.16627924466E+03  0.19344180549E+03  0.79344347199E+02 0.  0.
         -6    2    1    2    0  502  0.32289360983E+02 -0.82058378774E+01  0.80574621357E+02  0.19227318061E+03  0.17136734743E+03 0.  0.
        -24    2    5    5    0    0  0.78149122284E+01  0.28895217868E+02 -0.14139556120E+02  0.87543278504E+02  0.81042532630E+02 0.  0.
          5    1    3    3  501    0  0.22029542257E+02 -0.14704339462E+02  0.21740465751E+02  0.34586936582E+02  0.47000000000E+01 0. -1.
        -11    1    4    4    0    0 -0.30756145409E+02 -0.24238316009E+01 -0.86229965923E+01  0.32033911879E+02  0.00000000000E+00 0.  1.
         12    1    4    4    0    0 -0.23562757831E+02  0.25334008940E+02 -0.15765624807E+03  0.16140789362E+03  0.00000000000E+00 0. -1.
         -5    1    5    5    0  502  0.24474448755E+02 -0.37101055746E+02  0.94714177477E+02  0.10472990210E+03  0.47000000000E+01 0.  1.
         11    1    6    6    0    0 -0.88459135830E+01 -0.24241137284E+02 -0.18400718676E+02  0.31693364790E+02  0.00000000000E+00 0. -1.
        -12    1    6    6    0    0  0.16660825811E+02  0.53136355152E+02  0.42611625557E+01  0.55849913714E+02  0.00000000000E+00 0.  1.
</event>
<event>
12    1  0.8449700E-002  0.1747812E+03  0.7818608E-02  0.1173733E+00
         21   -1    0    0  501  502  0.00000000000E+00  0.00000000000E+00  0.82230234738E+02  0.82230234738E+02  0.00000000000E+00 0.  1.
         21   -1    0    0  502  503 -0.00000000000E+00 -0.00000000000E+00 -0.38976687753E+03  0.38976687753E+03  0.00000000000E+00 0.  1.
         -6    2    1    2    0  503 -0.22518971332E+02  0.17143683581E+02 -0.21199506459E+03  0.27280705763E+03  0.16935398823E+03 0.  0.
        -24    2    3    3    0    0 -0.47925187289E+02 -0.41498958317E+02 -0.16318051197E+03  0.19225033349E+03  0.79456429071E+02 0.  0.
          6    2    1    2  501    0  0.22518971332E+02 -0.17143683581E+02 -0.95541578208E+02  0.19919005464E+03  0.17247456260E+03 0.  0.
         24    2    5    5    0    0 -0.62657371449E+01  0.40922817119E+02 -0.99266927888E+02  0.13410360308E+03  0.80099419254E+02 0.  0.
          5    1    5    5  501    0  0.28784708477E+02 -0.58066500700E+02  0.37253496806E+01  0.65086451554E+02  0.47000000000E+01 0. -1.
        -13    1    6    6    0    0 -0.27287750244E+02 -0.13031227235E+02 -0.21309011437E+02  0.36993352985E+02  0.00000000000E+00 0.  1.
         14    1    6    6    0    0  0.21022013099E+02  0.53954044353E+02 -0.77957916451E+02  0.97110250099E+02  0.00000000000E+00 0. -1.
         -5    1    3    3    0  503  0.25406215957E+02  0.58642641897E+02 -0.48814552614E+02  0.80556724144E+02  0.47000000000E+01 0.  1.
         13    1    4    4    0    0 -0.69878696617E+02 -0.34116865799E+02 -0.11544405885E+03  0.13919167898E+03  0.00000000000E+00 0. -1.
        -14    1    4    4    0    0  0.21953509328E+02 -0.73820925171E+01 -0.47736453121E+02  0.53058654509E+02  0.00000000000E+00 0.  1.
</event>
<event>
12    1  0.8449700E-002  0.1933212E+03  0.7818608E-02  0.1155697E+00
         21   -1    0    0  501  502  0.00000000000E+00  0.00000000000E+00  0.34249192464E+03  0.34249192464E+03  0.00000000000E+00 0. -1.
         21   -1    0    0  502  503 -0.00000000000E+00 -0.00000000000E+00 -0.11825919184E+03  0.11825919184E+03  0.00000000000E+00 0. -1.
         -6    2    1    2    0  503 -0.65012809202E+02  0.55348875357E+02  0.46099305220E+02  0.19787356372E+03  0.17244894292E+03 0.  0.
        -24    2    3    3    0    0  0.25105471157E+02  0.38466568802E+02 -0.46212005730E+01  0.92988024023E+02  0.80718371637E+02 0.  0.
          6    2    1    2  501    0  0.65012809202E+02 -0.55348875357E+02  0.17813342758E+03  0.26287755276E+03  0.17344430334E+03 0.  0.
         24    2    5    5    0    0  0.25071020081E+02  0.19653355166E+02  0.14945460563E+03  0.17307083848E+03  0.81252849613E+02 0.  0.
          5    1    5    5  501    0  0.39941789121E+02 -0.75002230522E+02  0.28678821944E+02  0.89806714279E+02  0.47000000000E+01 0. -1.
        -11    1    6    6    0    0  0.50702436999E+02  0.10150738788E+01  0.11792325991E+03  0.12836534860E+03  0.00000000000E+00 0.  1.
         12    1    6    6    0    0 -0.25631416918E+02  0.18638281287E+02  0.31531345718E+02  0.44705489879E+02  0.00000000000E+00 0. -1.
         -5    1    3    3    0  503 -0.90118280359E+02  0.16882306555E+02  0.50720505793E+02  0.10488553970E+03  0.47000000000E+01 0.  1.
         11    1    4    4    0    0 -0.18331869610E+02  0.24797251300E+02  0.24110351910E+02  0.39144222877E+02  0.00000000000E+00 0. -1.
        -12    1    4    4    0    0  0.43437340767E+02  0.13669317501E+02 -0.28731552483E+02  0.53843801146E+02  0.00000000000E+00 0.  1.
</event>
<event>
12    1  0.8449700E-002  0.2687995E+03  0.7818608E-02  0.1102029E+00
         21   -1    0    0  503  502  0.00000000000E+00  0.00000000000E+00  0.36043591093E+02  0.36043591093E+02  0.00000000000E+00 0. -1.
         21   -1    0    0  501  503 -0.00000000000E+00 -0.00000000000E+00 -0.23134928128E+04  0.23134928128E+04  0.00000000000E+00 0.  1.
          6    2    1    2  501    0  0.64611716826E+02  0.19574390685E+03 -0.15693842024E+04  0.15921664519E+04  0.17186298298E+03 0.  0.
         24    2    3    3    0    0  0.59093128230E+02  0.78983330782E+02 -0.11458274026E+04  0.11527509998E+04  0.78638836384E+02 0.  0.
         -6    2    1    2    0  502 -0.64611716826E+02 -0.19574390685E+03 -0.70806501936E+03  0.75736995200E+03  0.17251904690E+03 0.  0.
        -24    2    5    5    0    0 -0.13801801213E+02 -0.11653220361E+03 -0.23164418120E+03  0.27172085390E+03  0.80018445172E+02 0.  0.
          5    1    3    3  501    0  0.55185885963E+01  0.11676057607E+03 -0.42355679977E+03  0.43941545213E+03  0.47000000000E+01 0. -1.
        -13    1    4    4    0    0 -0.43861155289E+01  0.42154742784E+02 -0.22174475698E+03  0.22575871544E+03  0.00000000000E+00 0.  1.
         14    1    4    4    0    0  0.63479243759E+02  0.36828587997E+02 -0.92408264564E+03  0.92699228435E+03  0.00000000000E+00 0. -1.
         -5    1    5    5    0  502 -0.50809915613E+02 -0.79211703236E+02 -0.47642083816E+03  0.48564909810E+03  0.47000000000E+01 0.  1.
         11    1    6    6    0    0 -0.19466115738E+02 -0.20644803736E+02 -0.98765337977E+01  0.30044691762E+02  0.00000000000E+00 0. -1.
        -12    1    6    6    0    0  0.56643145248E+01 -0.95887399875E+02 -0.22176764740E+03  0.24167616214E+03  0.00000000000E+00 0.  1.
</event>
<event>
12    1  0.8449700E-002  0.2397310E+03  0.7818608E-02  0.1119975E+00
         21   -1    0    0  501  502  0.00000000000E+00  0.00000000000E+00  0.14064241187E+03  0.14064241187E+03  0.00000000000E+00 0. -1.
         21   -1    0    0  502  503 -0.00000000000E+00 -0.00000000000E+00 -0.44114566745E+03  0.44114566745E+03  0.00000000000E+00 0. -1.
         -6    2    1    2    0  503  0.15618792943E+03  0.59343775480E+02 -0.22925126005E+03  0.33169253370E+03  0.17189369881E+03 0.  0.
        -24    2    3    3    0    0  0.15265173546E+03  0.75823182478E+02 -0.24285866278E+03  0.30952663800E+03  0.88174271793E+02 0.  0.
          6    2    1    2  501    0 -0.15618792943E+03 -0.59343775480E+02 -0.71251995531E+02  0.25009554562E+03  0.17191446153E+03 0.  0.
         24    2    5    5    0    0 -0.13334436617E+03 -0.34984645336E+02 -0.11305509957E+03  0.19638535002E+03  0.82347463631E+02 0.  0.
          5    1    5    5  501    0 -0.22843563252E+02 -0.24359130145E+02  0.41803104037E+02  0.53710195593E+02  0.47000000000E+01 0. -1.
        -13    1    6    6    0    0 -0.17340627392E+01  0.17919582063E+02 -0.71745579050E+01  0.19380213518E+02  0.00000000000E+00 0.  1.
         14    1    6    6    0    0 -0.13161030344E+03 -0.52904227398E+02 -0.10588054166E+03  0.17700513651E+03  0.00000000000E+00 0. -1.
         -5    1    3    3    0  503  0.35361939692E+01 -0.16479406997E+02  0.13607402735E+02  0.22165895695E+02  0.47000000000E+01 0.  1.
         13    1    4    4    0    0  0.14027800250E+03  0.60356559107E+02 -0.14813870921E+03  0.21275786561E+03  0.00000000000E+00 0. -1.
        -14    1    4    4    0    0  0.12373732960E+02  0.15466623370E+02 -0.94719953576E+02  0.96768772397E+02  0.00000000000E+00 0.  1.
</event>
<event>
12    1  0.8449700E-002  0.3388728E+03  0.7818608E-02  0.1067666E+00
         21   -1    0    0  501  502  0.00000000000E+00  0.00000000000E+00  0.63787453360E+03  0.63787453360E+03  0.00000000000E+00 0. -1.
         21   -1    0    0  502  503 -0.00000000000E+00 -0.00000000000E+00 -0.18688847725E+03  0.18688847725E+03  0.00000000000E+00 0.  1.
         -6    2    1    2    0  503 -0.20500186781E+03 -0.20318189205E+03  0.13727427037E+03  0.36562136366E+03  0.17755593259E+03 0.  0.
        -24    2    3    3    0    0 -0.48478392057E+02 -0.14301859333E+03  0.82483339435E+02  0.18914655785E+03  0.78539458407E+02 0.  0.
          6    2    1    2  501    0  0.20500186781E+03  0.20318189205E+03  0.31371178598E+03  0.45914164719E+03  0.17055005265E+03 0.  0.
         24    2    5    5    0    0  0.19092878130E+03  0.21589594650E+03  0.31991052968E+03  0.43864254067E+03  0.83664043921E+02 0.  0.
          5    1    5    5  501    0  0.14073086506E+02 -0.12714054449E+02 -0.61987437007E+01  0.20499106512E+02  0.47000000000E+01 0. -1.
        -11    1    6    6    0    0  0.20367263511E+02  0.52920294941E+02  0.27752716845E+02  0.63131579513E+02  0.00000000000E+00 0.  1.
         12    1    6    6    0    0  0.17056151779E+03  0.16297565156E+03  0.29215781284E+03  0.37551096116E+03  0.00000000000E+00 0. -1.
         -5    1    3    3    0  503 -0.15652347575E+03 -0.60163298715E+02  0.54790930937E+02  0.17647480581E+03  0.47000000000E+01 0.  1.
         13    1    4    4    0    0 -0.25100802667E+02 -0.52115243373E+01  0.30914592807E+02  0.40161204276E+02  0.00000000000E+00 0. -1.
        -14    1    4    4    0    0 -0.23377589390E+02 -0.13780706900E+03  0.51568746628E+02  0.14898535358E+03  0.00000000000E+00 0.  1.
</event>
<event>
12    1  0.8449700E-002  0.2249942E+03  0.7818608E-02  0.1130392E+00
         21   -1    0    0  501  502  0.00000000000E+00  0.00000000000E+00  0.12811392479E+03  0.12811392479E+03  0.00000000000E+00 0.  1.
         21   -1    0    0  502  503 -0.00000000000E+00 -0.00000000000E+00 -0.51458255370E+03  0.51458255370E+03  0.00000000000E+00 0. -1.
         -6    2    1    2    0  503  0.13655419095E+03  0.49377721855E+02 -0.34884948499E+03  0.41457901604E+03  0.17057136596E+03 0.  0.
        -24    2    3    3    0    0  0.12133054128E+03  0.60854551195E+02 -0.35954740032E+03  0.39221805646E+03  0.78334501285E+02 0.  0.
          6    2    1    2  501    0 -0.13655419095E+03 -0.49377721855E+02 -0.37619143923E+02  0.22811746245E+03  0.17186381296E+03 0.  0.
         24    2    5    5    0    0 -0.59790229974E+02  0.21041335686E+02  0.29346151289E+02  0.10419010416E+03  0.77309584153E+02 0.  0.
          5    1    5    5  501    0 -0.76763960972E+02 -0.70419057541E+02 -0.66965295212E+02  0.12392735829E+03  0.47000000000E+01 0. -1.
        -13    1    6    6    0    0 -0.16445391361E+02 -0.25083821563E+02 -0.75449193263E+01  0.30928543594E+02  0.00000000000E+00 0.  1.
         14    1    6    6    0    0 -0.43344838613E+02  0.46125157249E+02  0.36891070615E+02  0.73261560567E+02  0.00000000000E+00 0. -1.
         -5    1    3    3    0  503  0.15223649662E+02 -0.11476829340E+02  0.10697915333E+02  0.22360959577E+02  0.47000000000E+01 0.  1.
         11    1    4    4    0    0  0.20461259243E+02  0.86013873724E+01 -0.16844024186E+03  0.16989632743E+03  0.00000000000E+00 0. -1.
        -12    1    4    4    0    0  0.10086928204E+03  0.52253163822E+02 -0.19110715846E+03  0.22232172904E+03  0.00000000000E+00 0.  1.
</event>
<event>
12    1  0.8449700E-002  0.1770389E+03  0.7818608E-02  0.1170833E+00
         21   -1    0    0  501  502  0.00000000000E+00  0.00000000000E+00  0.21359575902E+03  0.21359575902E+03  0.00000000000E+00 0. -1.
         21   -1    0    0  502  503 -0.00000000000E+00 -0.00000000000E+00 -0.17581688904E+03  0.17581688904E+03  0.00000000000E+00 0. -1.
         -6    2    1    2    0  503  0.36447668060E+02 -0.16613979419E+02 -0.60871859827E+02  0.18721149117E+03  0.17244796981E+03 0.  0.
        -24    2    3    3    0    0 -0.16523564556E+02 -0.47536295054E+02  0.58758018509E+01  0.96439901850E+02  0.82057309780E+02 0.  0.
          6    2    1    2  501    0 -0.36447668060E+02  0.16613979419E+02  0.98650729801E+02  0.20220115689E+03  0.17189788986E+03 0.  0.
         24    2    5    5    0    0 -0.64739330405E+02  0.45703463763E+02  0.21601576590E+02  0.11499291033E+03  0.80478281623E+02 0.  0.
          5    1    5    5  501    0  0.28291662345E+02 -0.29089484344E+02  0.77049153211E+02  0.87208246561E+02  0.47000000000E+01 0. -1.
        -11    1    6    6    0    0 -0.69353655483E+02  0.47621044577E+01  0.24456689118E+02  0.73693533029E+02  0.00000000000E+00 0.  1.
         12    1    6    6    0    0  0.46143250774E+01  0.40941359305E+02 -0.28551125276E+01  0.41299377298E+02  0.00000000000E+00 0. -1.
         -5    1    3    3    0  503  0.52971232617E+02  0.30922315635E+02 -0.66747661678E+02  0.90771589325E+02  0.47000000000E+01 0.  1.
         11    1    4    4    0    0  0.82639041443E+01 -0.50227413004E+02 -0.25035593689E+02  0.56726238022E+02  0.00000000000E+00 0. -1.
        -12    1    4    4    0    0 -0.24787468700E+02  0.26911179501E+01  0.30911395540E+02  0.39713663827E+02  0.00000000000E+00 0.  1.
</event>
<event>
12    1  0.8449700E-002  0.1835038E+03  0.7818608E-02  0.1164513E+00
         21   -1    0    0  503  502  0.00000000000E+00  0.00000000000E+00  0.53168229349E+02  0.53168229349E+02  0.00000000000E+00 0. -1.
         21   -1    0    0  501  503 -0.00000000000E+00 -0.00000000000E+00 -0.66061039306E+03  0.66061039306E+03  0.00000000000E+00 0. -1.
          6    2    1    2  501    0 -0.20251110417E+02 -0.60533276945E+02 -0.37716308796E+03  0.41932643487E+03  0.17177973970E+03 0.  0.
         24    2    3    3    0    0 -0.69920783419E+02 -0.53401882087E+00 -0.20593487304E+03  0.23115582352E+03  0.78323953441E+02 0.  0.
         -6    2    1    2    0  502  0.20251110417E+02  0.60533276945E+02 -0.23027907575E+03  0.29445218753E+03  0.17204433419E+03 0.  0.
        -24    2    5    5    0    0 -0.25023139847E+02  0.47351793264E+01 -0.60317931496E+02  0.10986598548E+03  0.88225293733E+02 0.  0.
          5    1    3    3  501    0  0.49669673001E+02 -0.59999258124E+02 -0.17122821492E+03  0.18817061135E+03  0.47000000000E+01 0. -1.
        -13    1    4    4    0    0  0.13961202128E+01  0.21732042528E+02 -0.94614554229E+02  0.97088334501E+02  0.00000000000E+00 0.  1.
         14    1    4    4    0    0 -0.71316903631E+02 -0.22266061349E+02 -0.11132031881E+03  0.13406748902E+03  0.00000000000E+00 0. -1.
         -5    1    5    5    0  502  0.45274250264E+02  0.55798097619E+02 -0.16996114425E+03  0.18458620206E+03  0.47000000000E+01 0.  1.
         11    1    6    6    0    0  0.10755270543E+01  0.43988391503E+02 -0.35846079659E+02  0.56754530853E+02  0.00000000000E+00 0. -1.
        -12    1    6    6    0    0 -0.26098666901E+02 -0.39253212176E+02 -0.24471851837E+02  0.53111454626E+02  0.00000000000E+00 0.  1.
</event>
<event>
12    1  0.8449700E-002  0.2988413E+03  0.7818608E-02  0.1085914E+00
         21   -1    0    0  503  502  0.00000000000E+00  0.00000000000E+00  0.91960995133E+02  0.91960995133E+02  0.00000000000E+00 0. -1.
         21   -1    0    0  501  503 -0.00000000000E+00 -0.00000000000E+00 -0.12678022880E+04  0.12678022880E+04  0.00000000000E+00 0.  1.
          6    2    1    2  501    0  0.57449568547E+01 -0.24279301636E+03 -0.25826485339E+03  0.39497702395E+03  0.17413977614E+03 0.  0.
         24    2    3    3    0    0 -0.57861911296E+02 -0.19319421240E+03 -0.20377400522E+03  0.29752335515E+03  0.79525449824E+02 0.  0.
         -6    2    1    2    0  502 -0.57449568547E+01  0.24279301636E+03 -0.91757643943E+03  0.96478625913E+03  0.17287148490E+03 0.  0.
        -24    2    5    5    0    0  0.27889159479E+02  0.14868885538E+03 -0.74900628210E+03  0.76876372258E+03  0.84267844383E+02 0.  0.
          5    1    3    3  501    0  0.63606868151E+02 -0.49598803953E+02 -0.54490848172E+02  0.97453668808E+02  0.47000000000E+01 0. -1.
        -11    1    4    4    0    0  0.38735373190E+01  0.57143802795E+01 -0.14663838162E+02  0.16207608799E+02  0.00000000000E+00 0.  1.
         12    1    4    4    0    0 -0.61735448615E+02 -0.19890859268E+03 -0.18911016706E+03  0.28131574635E+03  0.00000000000E+00 0. -1.
         -5    1    5    5    0  502 -0.33634116333E+02  0.94104160973E+02 -0.16857015733E+03  0.19602253655E+03  0.47000000000E+01 0.  1.
         11    1    6    6    0    0  0.23496768287E+02  0.11306709518E+02 -0.50208522137E+02  0.56575926817E+02  0.00000000000E+00 0. -1.
        -12    1    6    6    0    0  0.43923911918E+01  0.13738214587E+03 -0.69879775997E+03  0.71218779577E+03  0.00000000000E+00 0.  1.
</event>
<event>
12    1  0.8449700E-002  0.2074438E+03  0.7818608E-02  0.1145366E+00
         21   -1    0    0  503  502  0.00000000000E+00  0.00000000000E+00  0.21943653827E+03  0.21943653827E+03  0.00000000000E+00 0.  1.
         21   -1    0    0  501  503 -0.00000000000E+00 -0.00000000000E+00 -0.29351711297E+03  0.29351711297E+03  0.00000000000E+00 0.  1.
          6    2    1    2  501    0 -0.92163003772E+02 -0.43702126728E+02 -0.19121893174E+03  0.28213045015E+03  0.18063503510E+03 0.  0.
         24    2    3    3    0    0 -0.52969463783E+02 -0.82057252322E+02 -0.18903832717E+03  0.22704783699E+03  0.79221678804E+02 0.  0.
         -6    2    1    2    0  502  0.92163003772E+02  0.43702126728E+02  0.11713835703E+03  0.23082320109E+03  0.17074560120E+03 0.  0.
        -24    2    5    5    0    0  0.17631537815E+02 -0.30782508459E+02  0.15149448417E+02  0.84103305446E+02  0.74735709316E+02 0.  0.
          5    1    3    3  501    0 -0.39193539989E+02  0.38355125594E+02 -0.21806045671E+01  0.55082613159E+02  0.47000000000E+01 0. -1.
        -13    1    4    4    0    0  0.11794156962E+02 -0.57153469746E+01 -0.71329136080E+02  0.72523189280E+02  0.00000000000E+00 0.  1.
         14    1    4    4    0    0 -0.64763620745E+02 -0.76341905347E+02 -0.11770919109E+03  0.15452464771E+03  0.00000000000E+00 0. -1.
         -5    1    5    5    0  502  0.74531465957E+02  0.74484635187E+02  0.10198890861E+03  0.14671989564E+03  0.47000000000E+01 0.  1.
         11    1    6    6    0    0 -0.83344359158E+01  0.16365909504E+02 -0.13812734275E+02  0.22980370843E+02  0.00000000000E+00 0. -1.
        -12    1    6    6    0    0  0.25965973731E+02 -0.47148417963E+02  0.28962182693E+02  0.61122934603E+02  0.00000000000E+00 0.  1.
</event>
<event>
12    1  0.8449700E-002  0.3098720E+03  0.7818608E-02  0.1080484E+00
         21   -1    0    0  503  502  0.00000000000E+00  0.00000000000E+00  0.10340644141E+04  0.10340644141E+04  0.00000000000E+00 0.  1.
         21   -1    0    0  501  503 -0.00000000000E+00 -0.00000000000E+00 -0.11743097314E+03  0.11743097314E+03  0.00000000000E+00 0.  1.
          6    2    1    2  501    0  0.23490621415E+03 -0.10516163498E+03  0.19354539037E+03  0.36480804481E+03  0.17142109702E+03 0.  0.
         24    2    3    3    0    0  0.23230051622E+03 -0.11630045315E+03  0.13221116330E+03  0.30223935980E+03  0.79871857815E+02 0.  0.
         -6    2    1    2    0  502 -0.23490621415E+03  0.10516163498E+03  0.72308805060E+03  0.78668734245E+03  0.17257099099E+03 0.  0.
        -24    2    5    5    0    0 -0.58352525059E+02  0.20088126324E+02  0.16782829189E+03  0.19783744931E+03  0.84644969080E+02 0.  0.
          5    1    3    3  501    0  0.26056979228E+01  0.11138818177E+02  0.61334227078E+02  0.62568685005E+02  0.47000000000E+01 0. -1.
        -13    1    4    4    0    0  0.67156140328E+02 -0.39434126269E+02  0.12439028549E+01  0.77888027274E+02  0.00000000000E+00 0.  1.
         14    1    4    4    0    0  0.16514437590E+03 -0.76866326884E+02  0.13096726044E+03  0.22435133253E+03  0.00000000000E+00 0. -1.
         -5    1    5    5    0  502 -0.17655368909E+03  0.85073508651E+02  0.55525975871E+03  0.58884989314E+03  0.47000000000E+01 0.  1.
         13    1    6    6    0    0 -0.24395631799E+02  0.51732963742E+02  0.77974029933E+02  0.96702614920E+02  0.00000000000E+00 0. -1.
        -14    1    6    6    0    0 -0.33956893260E+02 -0.31644837418E+02  0.89854261954E+02  0.10113483439E+03  0.00000000000E+00 0.  1.
</event>
<event>
12    1  0.8449700E-002  0.1832539E+03  0.7818608E-02  0.1164739E+00
         21   -1    0    0  503  502  0.00000000000E+00  0.00000000000E+00  0.68467715166E+03  0.68467715166E+03  0.00000000000E+00 0. -1.
         21   -1    0    0  501  503 -0.00000000000E+00 -0.00000000000E+00 -0.51391773952E+02  0.51391773952E+02  0.00000000000E+00 0. -1.
          6    2    1    2  501    0 -0.55087519865E+02 -0.21536670120E+02  0.23730241544E+03  0.29982397784E+03  0.17344600979E+03 0.  0.
         24    2    3    3    0    0  0.48752693967E+00  0.33308149453E+02  0.57420060288E+02  0.10367023265E+03  0.79629035602E+02 0.  0.
         -6    2    1    2    0  502  0.55087519865E+02  0.21536670120E+02  0.39598296227E+03  0.43624494776E+03  0.17323015049E+03 0.  0.
        -24    2    5    5    0    0  0.42659348595E+02  0.25064504500E+02  0.92480324248E+02  0.13243111276E+03  0.80853817749E+02 0.  0.
          5    1    3    3  501    0 -0.55575046805E+02 -0.54844819573E+02  0.17988235515E+03  0.19615374520E+03  0.47000000000E+01 0. -1.
        -13    1    4    4    0    0 -0.31744364221E+02  0.42110012050E+02  0.31963383898E+02  0.61665352386E+02  0.00000000000E+00 0.  1.
         14    1    4    4    0    0  0.32231891160E+02 -0.88018625964E+01  0.25456676390E+02  0.42004880261E+02  0.00000000000E+00 0. -1.
         -5    1    5    5    0  502  0.12428171269E+02 -0.35278343804E+01  0.30350263802E+03  0.30381383501E+03  0.47000000000E+01 0.  1.
         11    1    6    6    0    0  0.32631641045E+02  0.37348744678E+02  0.12844934870E+02  0.51232265987E+02  0.00000000000E+00 0. -1.
        -12    1    6    6    0    0  0.10027707550E+02 -0.12284240178E+02  0.79635389378E+02  0.81198846771E+02  0.00000000000E+00 0.  1.
</event>
<event>
12    1  0.8449700E-002  0.1904345E+03  0.7818608E-02  0.1158233E+00
         21   -1    0    0  501  502  0.00000000000E+00  0.00000000000E+00  0.20362603910E+02  0.20362603910E+02  0.00000000000E+00 0.  1.
         21   -1    0    0  502  503 -0.00000000000E+00 -0.00000000000E+00 -0.18828705039E+04  0.18828705039E+04  0.00000000000E+00 0.  1.
         -6    2    1    2    0  503 -0.66424432853E+02 -0.43882382898E+02 -0.70433200672E+03  0.72962241960E+03  0.17299546435E+03 0.  0.
        -24    2    3    3    0    0  0.12714816534E+02 -0.67019382122E+02 -0.32261045585E+03  0.33906925558E+03  0.78975880604E+02 0.  0.
          6    2    1    2  501    0  0.66424432853E+02  0.43882382898E+02 -0.11581758933E+04  0.11736106882E+04  0.17219982264E+03 0.  0.
         24    2    5    5    0    0  0.66344177110E+02  0.93986884930E+02 -0.76660812174E+03  0.77882229265E+03  0.75107035890E+02 0.  0.
          5    1    5    5  501    0  0.80255743190E-01 -0.50104502032E+02 -0.39156777156E+03  0.39478839558E+03  0.47000000000E+01 0. -1.
        -11    1    6    6    0    0  0.11329614474E+02  0.34985094541E+02 -0.47009506203E+03  0.47153121249E+03  0.00000000000E+00 0.  1.
         12    1    6    6    0    0  0.55014562636E+02  0.59001790389E+02 -0.29651305971E+03  0.30729108017E+03  0.00000000000E+00 0. -1.
         -5    1    3    3    0  503 -0.79139249386E+02  0.23136999224E+02 -0.38172155087E+03  0.39055316402E+03  0.47000000000E+01 0.  1.
         11    1    4    4    0    0  0.22807897731E+02  0.72355701938E+01 -0.13395429191E+03  0.13607463392E+03  0.00000000000E+00 0. -1.
        -12    1    4    4    0    0 -0.10093081197E+02 -0.74254952316E+02 -0.18865616394E+03  0.20299462166E+03  0.00000000000E+00 0.  1.
</event>
<event>
12    1  0.8449700E-002  0.1928084E+03  0.7818608E-02  0.1155962E+00
         21   -1    0    0  501  502  0.00000000000E+00  0.00000000000E+00  0.91624725859E+02  0.91624725859E+02  0.00000000000E+00 0.  1.
         21   -1    0    0  502  503 -0.00000000000E+00 -0.00000000000E+00 -0.49203980113E+03  0.49203980113E+03  0.00000000000E+00 0.  1.
         -6    2    1    2    0  503  0.63047913761E+02  0.56732837935E+02 -0.32251900494E+03  0.37575736169E+03  0.17315147122E+03 0.  0.
        -24    2    3    3    0    0  0.10931012580E+03  0.31495802708E+02 -0.22139925311E+03  0.26163289271E+03  0.80581958775E+02 0.  0.
          6    2    1    2  501    0 -0.63047913761E+02 -0.56732837935E+02 -0.77896070330E+02  0.20790716530E+03  0.17310094535E+03 0.  0.
         24    2    5    5    0    0 -0.71559065623E+02 -0.23288551499E+01  0.63647399415E+01  0.10713907910E+03  0.79449033454E+02 0.  0.
          5    1    5    5  501    0  0.85111518621E+01 -0.54403982785E+02 -0.84260810271E+02  0.10076808620E+03  0.47000000000E+01 0. -1.
        -13    1    6    6    0    0 -0.31227450483E+01 -0.30987308002E+02  0.10400074079E+02  0.32834834166E+02  0.00000000000E+00 0.  1.
         14    1    6    6    0    0 -0.68436320575E+02  0.28658452852E+02 -0.40353341377E+01  0.74304244935E+02  0.00000000000E+00 0. -1.
         -5    1    3    3    0  503 -0.46262212035E+02  0.25237035227E+02 -0.10111975183E+03  0.11412446898E+03  0.47000000000E+01 0.  1.
         11    1    4    4    0    0  0.24547241784E+02 -0.26801237191E+01 -0.29908555875E+01  0.24873587588E+02  0.00000000000E+00 0. -1.
        -12    1    4    4    0    0  0.84762884011E+02  0.34175926427E+02 -0.21840839752E+03  0.23675930512E+03  0.00000000000E+00 0.  1.
</event>
<event>
12    1  0.8449700E-002  0.1983559E+03  0.7818608E-02  0.1151213E+00
         21   -1    0    0  503  502  0.00000000000E+00  0.00000000000E+00  0.18917480577E+04  0.18917480577E+04  0.00000000000E+00 0. -1.
         21   -1    0    0  501  503 -0.00000000000E+00 -0.00000000000E+00 -0.89887509000E+02  0.89887509000E+02  0.00000000000E+00 0. -1.
          6    2    1    2  501    0  0.22002567296E+02 -0.97330009329E+02  0.31828617977E+02  0.20052408622E+03  0.17099591969E+03 0.  0.
         24    2    3    3    0    0 -0.39022306608E+01 -0.43900422017E+01  0.95879202932E+00  0.99114361834E+02  0.98935522261E+02 0.  0.
         -6    2    1    2    0  502 -0.22002567296E+02  0.97330009329E+02  0.17700319307E+04  0.17811114805E+04  0.17142877945E+03 0.  0.
        -24    2    5    5    0    0  0.54514581635E+02  0.48999718751E+02  0.85818426174E+03  0.86477150400E+03  0.77309216627E+02 0.  0.
          5    1    3    3  501    0  0.25904797957E+02 -0.92939967127E+02  0.30869825947E+02  0.10140972439E+03  0.47000000000E+01 0. -1.
        -13    1    4    4    0    0  0.27384687087E+02 -0.24442995991E+02  0.33517558999E+02  0.49707221820E+02  0.00000000000E+00 0.  1.
         14    1    4    4    0    0 -0.31286917747E+02  0.20052953789E+02 -0.32558766969E+02  0.49407140014E+02  0.00000000000E+00 0. -1.
         -5    1    5    5    0  502 -0.76517148931E+02  0.48330290578E+02  0.91184766899E+03  0.91633997649E+03  0.47000000000E+01 0.  1.
         13    1    6    6    0    0  0.39247716951E+02  0.31971251484E+02  0.80842226386E+03  0.81000561783E+03  0.00000000000E+00 0. -1.
        -14    1    6    6    0    0  0.15266864684E+02  0.17028467267E+02  0.49761997881E+02  0.54765886169E+02  0.00000000000E+00 0.  1.
</event>
<event>
12    1  0.8449700E-002  0.2587505E+03  0.7818608E-02  0.1107946E+00
         21   -1    0    0  501  502  0.00000000000E+00  0.00000000000E+00  0.82515741504E+02  0.82515741504E+02  0.00000000000E+00 0.  1.
         21   -1    0    0  502  503 -0.00000000000E+00 -0.00000000000E+00 -0.88649531121E+03  0.88649531121E+03  0.00000000000E+00 0.  1.
         -6    2    1    2    0  503 -0.19223248187E+03 -0.17723106875E+02 -0.54374843585E+03  0.60203411525E+03  0.17180011302E+03 0.  0.
        -24    2    3    3    0    0 -0.62260133987E+02 -0.46751031400E+02 -0.15072805318E+03  0.18703707574E+03  0.78752387025E+02 0.  0.
          6    2    1    2  501    0  0.19223248187E+03  0.17723106875E+02 -0.26023113386E+03  0.36697693747E+03  0.17229159584E+03 0.  0.
         24    2    5    5    0    0  0.15304638341E+03  0.69575301134E+02 -0.22959002464E+03  0.29496882726E+03  0.77660232012E+02 0.  0.
          5    1    5    5  501    0  0.39186098457E+02 -0.51852194258E+02 -0.30641109224E+02  0.72008110211E+02  0.47000000000E+01 0. -1.
        -13    1    6    6    0    0  0.40038815668E+02  0.58906169366E+02 -0.98693520678E+02  0.12171053600E+03  0.00000000000E+00 0.  1.
         14    1    6    6    0    0  0.11300756775E+03  0.10669131768E+02 -0.13089650396E+03  0.17325829126E+03  0.00000000000E+00 0. -1.
         -5    1    3    3    0  503 -0.12997234788E+03  0.29027924525E+02 -0.39302038266E+03  0.41499703951E+03  0.47000000000E+01 0.  1.
         13    1    4    4    0    0 -0.24787171314E+02  0.42698569091E+01 -0.18037994377E+01  0.25216844216E+02  0.00000000000E+00 0. -1.
        -14    1    4    4    0    0 -0.37472962673E+02 -0.51020888310E+02 -0.14892425375E+03  0.16182023152E+03  0.00000000000E+00 0.  1.
</event>
<event>
12    1  0.8449700E-002  0.2006906E+03  0.7818608E-02  0.1149336E+00
         21   -1    0    0  501  502  0.00000000000E+00  0.00000000000E+00  0.13571367588E+03  0.13571367588E+03  0.00000000000E+00 0.  1.
         21   -1    0    0  502  503 -0.00000000000E+00 -0.00000000000E+00 -0.62722900380E+03  0.62722900380E+03  0.00000000000E+00 0. -1.
         -6    2    1    2    0  503  0.70359980206E+02 -0.74637866671E+02 -0.52292303176E+03  0.55980932207E+03  0.17151280411E+03 0.  0.
        -24    2    3    3    0    0  0.47904139539E+02  0.10701268850E+02 -0.14595908077E+03  0.17262597638E+03  0.78015067275E+02 0.  0.
          6    2    1    2  501    0 -0.70359980206E+02  0.74637866671E+02  0.31407703839E+02  0.20313335761E+03  0.17249747580E+03 0.  0.
         24    2    5    5    0    0 -0.19403033876E+02 -0.93263370518E+01  0.58118907173E+02  0.10124039284E+03  0.80052179760E+02 0.  0.
          5    1    5    5  501    0 -0.50956946330E+02  0.83964203723E+02 -0.26711203334E+02  0.10189296477E+03  0.47000000000E+01 0. -1.
        -11    1    6    6    0    0 -0.68955113498E+01  0.30648952034E+02  0.49264319278E+02  0.58428413391E+02  0.00000000000E+00 0.  1.
         12    1    6    6    0    0 -0.12507522526E+02 -0.39975289086E+02  0.88545878950E+01  0.42811979445E+02  0.00000000000E+00 0. -1.
         -5    1    3    3    0  503  0.22455840667E+02 -0.85339135521E+02 -0.37696395099E+03  0.38718334569E+03  0.47000000000E+01 0.  1.
         13    1    4    4    0    0  0.79797176203E+01 -0.22357492216E+02 -0.10180072166E+03  0.10453191035E+03  0.00000000000E+00 0. -1.
        -14    1    4    4    0    0  0.39924421919E+02  0.33058761067E+02 -0.44158359110E+02  0.68094066027E+02  0.00000000000E+00 0.  1.
</event>
<event>
12    1  0.8449700E-002  0.1780168E+03  0.7818608E-02  0.1170342E+00
         21   -1    0    0  501  502  0.00000000000E+00  0.00000000000E+00  0.15312635301E+03  0.15312635301E+03  0.00000000000E+00 0. -1.
         21   -1    0    0  502  503 -0.00000000000E+00 -0.00000000000E+00 -0.27848900274E+03  0.27848900274E+03  0.00000000000E+00 0. -1.
         -6    2    1    2    0  503 -0.34720057476E+02  0.31031570145E+02 -0.17452372650E+03  0.24929604196E+03  0.17181834794E+03 0.  0.
        -24    2    3    3    0    0 -0.36734723088E+01  0.67759455956E+02 -0.17200489807E+03  0.20090944730E+03  0.78575331911E+02 0.  0.
          6    2    1    2  501    0  0.34720057476E+02 -0.31031570145E+02  0.49161076771E+02  0.18231931379E+03  0.16927811428E+03 0.  0.
         24    2    5    5    0    0  0.45157605565E+02  0.34540464231E+02  0.60140390347E+02  0.11485621699E+03  0.79641892377E+02 0.  0.
          5    1    5    5  501    0 -0.10437548089E+02 -0.65572034376E+02 -0.10979313576E+02  0.67463096793E+02  0.47000000000E+01 0. -1.
        -13    1    6    6    0    0  0.89544006354E+01  0.34156100149E+02 -0.93259039139E+01  0.36521130212E+02  0.00000000000E+00 0.  1.
         14    1    6    6    0    0  0.36203204930E+02  0.38436408226E+00  0.69466294260E+02  0.78335086782E+02  0.00000000000E+00 0. -1.
         -5    1    3    3    0  503 -0.31046585167E+02 -0.36727885811E+02 -0.25188284368E+01  0.48386594666E+02  0.47000000000E+01 0.  1.
         11    1    4    4    0    0  0.28588326848E+02  0.18895954513E+02 -0.24265672643E+02  0.41990146436E+02  0.00000000000E+00 0. -1.
        -12    1    4    4    0    0 -0.32261799156E+02  0.48863501443E+02 -0.14773922542E+03  0.15891930086E+03  0.00000000000E+00 0.  1.
</event>
<event>
12    1  0.8449700E-002  0.2051859E+03  0.7818608E-02  0.1145491E+00
         21   -1    0    0  501  502  0.00000000000E+00  0.00000000000E+00  0.15833727173E+03  0.15833727173E+03  0.00000000000E+00 0.  1.
         21   -1    0    0  502  503 -0.00000000000E+00 -0.00000000000E+00 -0.28328871106E+03  0.28328871106E+03  0.00000000000E+00 0.  1.
         -6    2    1    2    0  503 -0.61830122574E+02  0.92396012313E+02 -0.11770071022E+03  0.23631205153E+03  0.17213349866E+03 0.  0.
        -24    2    3    3    0    0  0.25094556504E+02  0.72566028008E+02 -0.39246002797E+02  0.11745769011E+03  0.79752711826E+02 0.  0.
          6    2    1    2  501    0  0.61830122574E+02 -0.92396012313E+02 -0.72507291085E+01  0.20531393126E+03  0.17245651669E+03 0.  0.
         24    2    5    5    0    0  0.72886417052E+02 -0.24941288006E+02 -0.52285437448E+02  0.12332249004E+03  0.80871329544E+02 0.  0.
          5    1    5    5  501    0 -0.11056294478E+02 -0.67454724308E+02  0.45034708340E+02  0.81991441226E+02  0.47000000000E+01 0. -1.
        -11    1    6    6    0    0  0.36326703335E+02  0.68567848813E+01  0.15428422195E+02  0.40058470834E+02  0.00000000000E+00 0.  1.
         12    1    6    6    0    0  0.36559713716E+02 -0.31798072887E+02 -0.67713859644E+02  0.83264019205E+02  0.00000000000E+00 0. -1.
         -5    1    3    3    0  503 -0.86924679078E+02  0.19829984306E+02 -0.78454707425E+02  0.11885436142E+03  0.47000000000E+01 0.  1.
         11    1    4    4    0    0  0.31152932089E+02  0.21127642931E+02  0.16733113053E+02  0.41193197813E+02  0.00000000000E+00 0. -1.
        -12    1    4    4    0    0 -0.60583755852E+01  0.51438385076E+02 -0.55979115850E+02  0.76264492297E+02  0.00000000000E+00 0.  1.
</event>
<event>
12    1  0.8449700E-002  0.2217016E+03  0.7818608E-02  0.1133218E+00
         21   -1    0    0  501  502  0.00000000000E+00  0.00000000000E+00  0.55065092130E+02  0.55065092130E+02  0.00000000000E+00 0. -1.
         21   -1    0    0  502  503 -0.00000000000E+00 -0.00000000000E+00 -0.13591845755E+04  0.13591845755E+04  0.00000000000E+00 0. -1.
         -6    2    1    2    0  503  0.13511434461E+03  0.18002202242E+02 -0.10751206477E+04  0.10977413256E+04  0.17484749171E+03 0.  0.
        -24    2    3    3    0    0  0.71509063304E+02  0.77166481108E+02 -0.71323272215E+03  0.72554379151E+03  0.81514817751E+02 0.  0.
          6    2    1    2  501    0 -0.13511434461E+03 -0.18002202242E+02 -0.22899883564E+03  0.31650834202E+03  0.17075449757E+03 0.  0.
         24    2    5    5    0    0 -0.16062989325E+03  0.77489751578E+01 -0.20853766413E+03  0.27461662567E+03  0.77873772935E+02 0.  0.
          5    1    5    5  501    0  0.25515548636E+02 -0.25751177400E+02 -0.20461171511E+02  0.41891716356E+02  0.47000000000E+01 0. -1.
        -13    1    6    6    0    0 -0.90336722881E+01 -0.19495284293E+02 -0.45560666028E+02  0.50373084416E+02  0.00000000000E+00 0.  1.
         14    1    6    6    0    0 -0.15159622096E+03  0.27244259451E+02 -0.16297699810E+03  0.22424354125E+03  0.00000000000E+00 0. -1.
         -5    1    3    3    0  503  0.63605281310E+02 -0.59164278866E+02 -0.36188792554E+03  0.37219753405E+03  0.47000000000E+01 0.  1.
         11    1    4    4    0    0  0.63988881392E+02  0.57310211510E+02 -0.30798460174E+03  0.31973981954E+03  0.00000000000E+00 0. -1.
        -12    1    4    4    0    0  0.75201819121E+01  0.19856269598E+02 -0.40524812040E+03  0.40580397197E+03  0.00000000000E+00 0.  1.
</event>
<event>
12    1  0.8449700E-002  0.2182434E+03  0.7818608E-02  0.1135445E+00
         21   -1    0    0  501  502  0.00000000000E+00  0.00000000000E+00  0.73586287346E+02  0.73586287346E+02  0.00000000000E+00 0.  1.
         21   -1    0    0  502  503 -0.00000000000E+00 -0.00000000000E+00 -0.64369283593E+03  0.64369283593E+03  0.00000000000E+00 0. -1.
         -6    2    1    2    0  503  0.12718694979E+03 -0.44563295917E+02 -0.29151854370E+03  0.36338440929E+03  0.17000811762E+03 0.  0.
        -24    2    3    3    0    0  0.11202215195E+03 -0.75745669703E+02 -0.28773490474E+03  0.32818899123E+03  0.81426467148E+02 0.  0.
          6    2    1    2  501    0 -0.12718694979E+03  0.44563295917E+02 -0.27858800488E+03  0.35389471398E+03  0.17166183204E+03 0.  0.
         24    2    5    5    0    0 -0.60272832345E+02 -0.12561534557E+02 -0.59855977345E+02  0.11808433414E+03  0.81059024641E+02 0.  0.
          5    1    5    5  501    0 -0.66914117447E+02  0.57124830475E+02 -0.21873202754E+03  0.23581037984E+03  0.47000000000E+01 0. -1.
        -13    1    6    6    0    0 -0.41893954544E+02 -0.72750809800E+01 -0.79819518768E+02  0.90438851203E+02  0.00000000000E+00 0.  1.
         14    1    6    6    0    0 -0.18378877801E+02 -0.52864535771E+01  0.19963541422E+02  0.27645482936E+02  0.00000000000E+00 0. -1.
         -5    1    3    3    0  503  0.15164797837E+02  0.31182373786E+02 -0.37836389519E+01  0.35195418055E+02  0.47000000000E+01 0.  1.
         11    1    4    4    0    0  0.11659359959E+03 -0.44829033206E+02 -0.20908930788E+03  0.24356117990E+03  0.00000000000E+00 0. -1.
        -12    1    4    4    0    0 -0.45714476327E+01 -0.30916636497E+02 -0.78645596863E+02  0.84627811337E+02  0.00000000000E+00 0.  1.
</event>
<event>
12    1  0.8449700E-002  0.1837174E+03  0.7818608E-02  0.1164347E+00
         21   -1    0    0  501  502  0.00000000000E+00  0.00000000000E+00  0.30664818214E+03  0.30664818214E+03  0.00000000000E+00 0. -1.
         21   -1    0    0  502  503 -0.00000000000E+00 -0.00000000000E+00 -0.45849307156E+03  0.45849307156E+03  0.00000000000E+00 0. -1.
         -6    2    1    2    0  503  0.45785899825E+02  0.43831361971E+02 -0.40952011208E+03  0.44867863921E+03  0.17201238960E+03 0.  0.
        -24    2    3    3    0    0  0.18358566202E+02 -0.24305352934E+02 -0.78787176273E+02  0.10985532925E+03  0.70235226816E+02 0.  0.
          6    2    1    2  501    0 -0.45785899825E+02 -0.43831361971E+02  0.25767522266E+03  0.31646261448E+03  0.17243702931E+03 0.  0.
         24    2    5    5    0    0 -0.72797399091E+02 -0.40133589288E+02  0.26433387312E+03  0.28800699568E+03  0.78520486368E+02 0.  0.
          5    1    5    5  501    0  0.27011499266E+02 -0.36977726833E+01 -0.66586504597E+01  0.28455618801E+02  0.47000000000E+01 0. -1.
        -13    1    6    6    0    0 -0.16651333830E+02 -0.47991673267E+02  0.76710109167E+02  0.92004937203E+02  0.00000000000E+00 0.  1.
         14    1    6    6    0    0 -0.56146065261E+02  0.78580839793E+01  0.18762376395E+03  0.19600205848E+03  0.00000000000E+00 0. -1.
         -5    1    3    3    0  503  0.27427333623E+02  0.68136714905E+02 -0.33073293580E+03  0.33882330996E+03  0.47000000000E+01 0.  1.
         11    1    4    4    0    0  0.51871255190E+01 -0.33038217856E+02 -0.86155437569E+02  0.92418556216E+02  0.00000000000E+00 0. -1.
        -12    1    4    4    0    0  0.13171440683E+02  0.87328649227E+01  0.73682612959E+01  0.17436773037E+02  0.00000000000E+00 0.  1.
</event>
<event>
12    1  0.8449700E-002  0.1969894E+03  0.7818608E-02  0.1152355E+00
         21   -1    0    0  501  502  0.00000000000E+00  0.00000000000E+00  0.44861120972E+03  0.44861120972E+03  0.00000000000E+00 0.  1.
         21   -1    0    0  502  503 -0.00000000000E+00 -0.00000000000E+00 -0.95801503502E+02  0.95801503502E+02  0.00000000000E+00 0.  1.
         -6    2    1    2    0  503  0.62891448940E+02  0.70182622502E+02  0.91208767701E+02  0.21708031764E+03  0.17298523101E+03 0.  0.
        -24    2    3    3    0    0  0.79418238415E+02  0.84513916698E+02  0.11640867002E+03  0.18338097282E+03  0.81410957670E+02 0.  0.
          6    2    1    2  501    0 -0.62891448940E+02 -0.70182622502E+02  0.26160093851E+03  0.32733239558E+03  0.17271511606E+03 0.  0.
         24    2    5    5    0    0 -0.99848226693E+02 -0.87118552170E+02  0.21138858233E+03  0.26255585778E+03  0.81799359480E+02 0.  0.
          5    1    5    5  501    0  0.36956777753E+02  0.16935929668E+02  0.50212356186E+02  0.64776537800E+02  0.47000000000E+01 0. -1.
        -13    1    6    6    0    0 -0.64161313395E+02 -0.99117195354E+02  0.15947304832E+03  0.19842516396E+03  0.00000000000E+00 0.  1.
         14    1    6    6    0    0 -0.35686913299E+02  0.11998643184E+02  0.51915534006E+02  0.64130693823E+02  0.00000000000E+00 0. -1.
         -5    1    3    3    0  503 -0.16526789475E+02 -0.14331294196E+02 -0.25199902323E+02  0.33699344812E+02  0.47000000000E+01 0.  1.
         13    1    4    4    0    0  0.18867793573E+02  0.53318508588E+02  0.97456865475E+02  0.11267962380E+03  0.00000000000E+00 0. -1.
        -14    1    4    4    0    0  0.60550444841E+02  0.31195408110E+02  0.18951804549E+02  0.70701349020E+02  0.00000000000E+00 0.  1.
</event>
<event>
12    1  0.8449700E-002  0.1898309E+03  0.7818608E-02  0.1158980E+00
         21   -1    0    0  503  502  0.00000000000E+00  0.00000000000E+00  0.14757671089E+04  0.14757671089E+04  0.00000000000E+00 0.  1.
         21   -1    0    0  501  503 -0.00000000000E+00 -0.00000000000E+00 -0.59787879214E+02  0.59787879214E+02  0.00000000000E+00 0.  1.
          6    2    1    2  501    0  0.57388690353E+02 -0.54455205310E+02  0.11451033200E+03  0.22031468478E+03  0.17078381958E+03 0.  0.
         24    2    3    3    0    0  0.90342932914E+02 -0.33073833818E+02  0.32521925959E+02  0.12927988992E+03  0.79999314121E+02 0.  0.
         -6    2    1    2    0  502 -0.57388690353E+02  0.54455205310E+02  0.13014688977E+04  0.13152403033E+04  0.17255993943E+03 0.  0.
        -24    2    5    5    0    0 -0.42875993963E+02  0.80843305853E+02  0.12464871065E+04  0.12523750700E+04  0.79619207331E+02 0.  0.
          5    1    3    3  501    0 -0.32954242562E+02 -0.21381371492E+02  0.81988406041E+02  0.91034794858E+02  0.47000000000E+01 0. -1.
        -11    1    4    4    0    0  0.58854133117E+02  0.14099265392E+02 -0.58504584179E+01  0.60801530681E+02  0.00000000000E+00 0.  1.
         12    1    4    4    0    0  0.31488799798E+02 -0.47173099211E+02  0.38372384377E+02  0.68478359243E+02  0.00000000000E+00 0. -1.
         -5    1    5    5    0  502 -0.14512696389E+02 -0.26388100543E+02  0.54981791150E+02  0.62865233355E+02  0.47000000000E+01 0.  1.
         13    1    6    6    0    0  0.18206009314E+01  0.70053214918E+02  0.56326198675E+03  0.56760446899E+03  0.00000000000E+00 0. -1.
        -14    1    6    6    0    0 -0.44696594895E+02  0.10790090935E+02  0.68322511977E+03  0.68477060096E+03  0.00000000000E+00 0.  1.
</event>
<event>
12    1  0.8449700E-002  0.1953591E+03  0.7818608E-02  0.1156032E+00
         21   -1    0    0  501  502  0.00000000000E+00  0.00000000000E+00  0.15628664065E+02  0.15628664065E+02  0.00000000000E+00 0.  1.
         21   -1    0    0  502  503 -0.00000000000E+00 -0.00000000000E+00 -0.24793943483E+04  0.24793943483E+04  0.00000000000E+00 0.  1.
         -6    2    1    2    0  503 -0.59433865346E+02  0.28844690949E+02 -0.15223678024E+04  0.15335683117E+04  0.17281099600E+03 0.  0.
        -24    2    3    3    0    0  0.42671602533E+02 -0.68780589369E+01 -0.48900913996E+03  0.49455250014E+03  0.59867045020E+02 0.  0.
          6    2    1    2  501    0  0.59433865346E+02 -0.28844690949E+02 -0.94139788187E+03  0.96145470069E+03  0.18384985437E+03 0.  0.
         24    2    5    5    0    0  0.55218085226E+02  0.11668063585E+00 -0.23967145667E+03  0.25910251007E+03  0.81502472559E+02 0.  0.
          5    1    5    5  501    0  0.42157801200E+01 -0.28961371585E+02 -0.70172642520E+03  0.70235219062E+03  0.47000000000E+01 0. -1.
        -11    1    6    6    0    0  0.27660197283E+01 -0.27373846298E+02 -0.14385665803E+03  0.14646404469E+03  0.00000000000E+00 0.  1.
         12    1    6    6    0    0  0.52452065498E+02  0.27490526934E+02 -0.95814798636E+02  0.11263846538E+03  0.00000000000E+00 0. -1.
         -5    1    3    3    0  503 -0.10210546788E+03  0.35722749886E+02 -0.10333586624E+04  0.10390158115E+04  0.47000000000E+01 0.  1.
         11    1    4    4    0    0  0.11741373214E+02 -0.24881402324E+02 -0.34752081224E+03  0.34860817399E+03  0.00000000000E+00 0. -1.
        -12    1    4    4    0    0  0.30930229319E+02  0.18003343387E+02 -0.14148832771E+03  0.14594432616E+03  0.00000000000E+00 0.  1.
</event>
<event>
12    1  0.8449700E-002  0.1725885E+03  0.7818608E-02  0.1175377E+00
         21   -1    0    0  503  502  0.00000000000E+00  0.00000000000E+00  0.14672884987E+03  0.14672884987E+03  0.00000000000E+00 0. -1.
         21   -1    0    0  501  503 -0.00000000000E+00 -0.00000000000E+00 -0.61042666732E+03  0.61042666732E+03  0.00000000000E+00 0. -1.
          6    2    1    2  501    0  0.75078383834E+01  0.11805252610E+02 -0.54166093418E+03  0.56849217070E+03  0.17202048976E+03 0.  0.
         24    2    3    3    0    0  0.63894118439E+02  0.64363173066E+01 -0.43358452793E+03  0.44638222993E+03  0.84484719260E+02 0.  0.
         -6    2    1    2    0  502 -0.75078383834E+01 -0.11805252610E+02  0.77963116730E+02  0.18866334650E+03  0.17123048535E+03 0.  0.
        -24    2    5    5    0    0  0.12442630464E+02 -0.56163071876E+02  0.20902409488E+01  0.98416902708E+02  0.79827363328E+02 0.  0.
          5    1    3    3  501    0 -0.56386280055E+02  0.53689353039E+01 -0.10807640626E+03  0.12210994077E+03  0.47000000000E+01 0. -1.
        -13    1    4    4    0    0  0.25801974069E+02 -0.31326008703E+02 -0.91208081201E+02  0.99829728856E+02  0.00000000000E+00 0.  1.
         14    1    4    4    0    0  0.38092144370E+02  0.37762326009E+02 -0.34237644672E+03  0.34655250107E+03  0.00000000000E+00 0. -1.
         -5    1    5    5    0  502 -0.19950468847E+02  0.44357819266E+02  0.75872875781E+02  0.90246443789E+02  0.47000000000E+01 0.  1.
         13    1    6    6    0    0 -0.20161812906E+02 -0.62044841289E+02  0.24446742904E+01  0.65284281896E+02  0.00000000000E+00 0. -1.
        -14    1    6    6    0    0  0.32604443370E+02  0.58817694125E+01 -0.35443334166E+00  0.33132620812E+02  0.00000000000E+00 0.  1.
</event>
<event>
12    1  0.8449700E-002  0.2135738E+03  0.7818608E-02  0.1138958E+00
         21   -1    0    0  501  502  0.00000000000E+00  0.00000000000E+00  0.11012914613E+03  0.11012914613E+03  0.00000000000E+00 0. -1.
         21   -1    0    0  502  503 -0.00000000000E+00 -0.00000000000E+00 -0.41231816287E+03  0.41231816287E+03  0.00000000000E+00 0. -1.
         -6    2    1    2    0  503  0.26366241553E+02  0.12324317758E+03 -0.15339964757E+03  0.26215505051E+03  0.17120093201E+03 0.  0.
        -24    2    3    3    0    0  0.38794869583E+02  0.15143400828E+03 -0.11236141563E+03  0.21062428095E+03  0.85441203365E+02 0.  0.
          6    2    1    2  501    0 -0.26366241553E+02 -0.12324317758E+03 -0.14878936917E+03  0.26029225849E+03  0.17242309572E+03 0.  0.
         24    2    5    5    0    0  0.17388796678E+02 -0.46454726936E+02 -0.84914652546E+01  0.94411092088E+02  0.79880770042E+02 0.  0.
          5    1    5    5  501    0 -0.43755038231E+02 -0.76788450640E+02 -0.14029790392E+03  0.16588116640E+03  0.47000000000E+01 0. -1.
        -13    1    6    6    0    0  0.54240768230E+01  0.22073983791E+02 -0.99913047405E+01  0.24829569875E+02  0.00000000000E+00 0.  1.
         14    1    6    6    0    0  0.11964719855E+02 -0.68528710726E+02  0.14998394858E+01  0.69581522213E+02  0.00000000000E+00 0. -1.
         -5    1    3    3    0  503 -0.12428628030E+02 -0.28190830708E+02 -0.41038231945E+02  0.51530769564E+02  0.47000000000E+01 0.  1.
         13    1    4    4    0    0  0.40557972622E+02  0.26751070358E+02 -0.54944461259E+02  0.73344820755E+02  0.00000000000E+00 0. -1.
        -14    1    4    4    0    0 -0.17631030393E+01  0.12468293793E+03 -0.57416954371E+02  0.13727946020E+03  0.00000000000E+00 0.  1.
</event>
<event>
12    1  0.8449700E-002  0.1977751E+03  0.7818608E-02  0.1151706E+00
         21   -1    0    0  501  502  0.00000000000E+00  0.00000000000E+00  0.60111192243E+03  0.60111192243E+03  0.00000000000E+00 0. -1.
         21   -1    0    0  502  503 -0.00000000000E+00 -0.00000000000E+00 -0.20442893105E+03  0.20442893105E+03  0.00000000000E+00 0. -1.
         -6    2    1    2    0  503 -0.50230857224E+02  0.82727635421E+02 -0.13428726160E+03  0.23905657391E+03  0.17247601637E+03 0.  0.
        -24    2    3    3    0    0 -0.35235637501E+02  0.60356511627E+02  0.70286743454E+01  0.95120450768E+02  0.64140776776E+02 0.  0.
          6    2    1    2  501    0  0.50230857224E+02 -0.82727635421E+02  0.53097025298E+03  0.56648427957E+03  0.17206983691E+03 0.  0.
         24    2    5    5    0    0 -0.31584703696E+02 -0.52578672197E+02  0.19818528536E+03  0.22243388985E+03  0.80232896902E+02 0.  0.
          5    1    5    5  501    0  0.81815560919E+02 -0.30148963224E+02  0.33278496762E+03  0.34405038972E+03  0.47000000000E+01 0. -1.
        -13    1    6    6    0    0 -0.39108050193E+02 -0.52107675097E+02  0.20319409529E+03  0.21338343364E+03  0.00000000000E+00 0.  1.
         14    1    6    6    0    0  0.75233464973E+01 -0.47099710011E+00 -0.50088099258E+01  0.90504562128E+01  0.00000000000E+00 0. -1.
         -5    1    3    3    0  503 -0.14995219722E+02  0.22371123794E+02 -0.14131593594E+03  0.14393612314E+03  0.47000000000E+01 0.  1.
         11    1    4    4    0    0 -0.47690646784E+01  0.23696840562E+02 -0.27236431060E+02  0.36415757680E+02  0.00000000000E+00 0. -1.
        -12    1    4    4    0    0 -0.30466572823E+02  0.36659671065E+02  0.34265105405E+02  0.58704693089E+02  0.00000000000E+00 0.  1.
</event>
<event>
12    1  0.8449700E-002  0.2204428E+03  0.7818608E-02  0.1133792E+00
         21   -1    0    0  503  502  0.00000000000E+00  0.00000000000E+00  0.26236228258E+03  0.26236228258E+03  0.00000000000E+00 0.  1.
         21   -1    0    0  501  503 -0.00000000000E+00 -0.00000000000E+00 -0.20884836653E+03  0.20884836653E+03  0.00000000000E+00 0.  1.
          6    2    1    2  501    0  0.83252706691E+02 -0.10836821610E+03 -0.54341385974E+02  0.22579710510E+03  0.17133786216E+03 0.  0.
         24    2    3    3    0    0 -0.13500278873E+02 -0.69845835043E+02  0.37935139186E+01  0.10643684939E+03  0.79080427141E+02 0.  0.
         -6    2    1    2    0  502 -0.83252706691E+02  0.10836821610E+03  0.10785530203E+03  0.24541354401E+03  0.17297502126E+03 0.  0.
        -24    2    5    5    0    0 -0.12563430584E+03  0.89471408957E+02  0.91426953128E+02  0.19596387350E+03  0.79081224910E+02 0.  0.
          5    1    3    3  501    0  0.96752985564E+02 -0.38522381056E+02 -0.58134899893E+02  0.11936025571E+03  0.47000000000E+01 0. -1.
        -13    1    4    4    0    0 -0.18762984086E+02 -0.86130727495E+02 -0.25427795276E+01  0.88187399998E+02  0.00000000000E+00 0.  1.
         14    1    4    4    0    0  0.52627052126E+01  0.16284892452E+02  0.63362934462E+01  0.18249449388E+02  0.00000000000E+00 0. -1.
         -5    1    5    5    0  502  0.42381599150E+02  0.18896807142E+02  0.16428348899E+02  0.49449670516E+02  0.47000000000E+01 0.  1.
         11    1    6    6    0    0 -0.38183704995E+02 -0.46289098128E+01  0.30291171091E+00  0.38464449674E+02  0.00000000000E+00 0. -1.
        -12    1    6    6    0    0 -0.87450600846E+02  0.94100318770E+02  0.91124041418E+02  0.15749942382E+03  0.00000000000E+00 0.  1.
</event>
<event>
12    1  0.8449700E-002  0.2276597E+03  0.7818608E-02  0.1128500E+00
         21   -1    0    0  501  502  0.00000000000E+00  0.00000000000E+00  0.40405699993E+03  0.40405699993E+03  0.00000000000E+00 0. -1.
         21   -1    0    0  502  503 -0.00000000000E+00 -0.00000000000E+00 -0.13685553973E+03  0.13685553973E+03  0.00000000000E+00 0.  1.
         -6    2    1    2    0  503 -0.49562601158E+02 -0.14011593999E+03  0.63711864720E+02  0.23640673558E+03  0.17245293517E+03 0.  0.
        -24    2    3    3    0    0 -0.33580302068E+02 -0.91309234338E+01  0.57453141337E+02  0.10421834704E+03  0.79684314398E+02 0.  0.
          6    2    1    2  501    0  0.49562601158E+02  0.14011593999E+03  0.20348959548E+03  0.30450580408E+03  0.17095859492E+03 0.  0.
         24    2    5    5    0    0  0.72335950187E+02  0.14724963702E+03  0.21180629492E+03  0.27880030761E+03  0.77154129257E+02 0.  0.
          5    1    5    5  501    0 -0.22773349028E+02 -0.71336970362E+01 -0.83166994401E+01  0.25705496474E+02  0.47000000000E+01 0. -1.
        -11    1    6    6    0    0  0.83384368243E+01 -0.39540606879E+00 -0.42780884158E+01  0.93801873716E+01  0.00000000000E+00 0.  1.
         12    1    6    6    0    0  0.63997513362E+02  0.14764504309E+03  0.21608438334E+03  0.26942012024E+03  0.00000000000E+00 0. -1.
         -5    1    3    3    0  503 -0.15982299090E+02 -0.13098501655E+03  0.62587233826E+01  0.13218838854E+03  0.47000000000E+01 0.  1.
         11    1    4    4    0    0 -0.18445023352E+01 -0.12626390579E+02  0.69073076738E+02  0.70241852609E+02  0.00000000000E+00 0. -1.
        -12    1    4    4    0    0 -0.31735799733E+02  0.34954671452E+01 -0.11619935401E+02  0.33976494434E+02  0.00000000000E+00 0.  1.
</event>
<event>
12    1  0.8449700E-002  0.2056919E+03  0.7818608E-02  0.1145100E+00
         21   -1    0    0  503  502  0.00000000000E+00  0.00000000000E+00  0.11520877928E+03  0.11520877928E+03  0.00000000000E+00 0.  1.
         21   -1    0    0  501  503 -0.00000000000E+00 -0.00000000000E+00 -0.61923084487E+03  0.61923084487E+03  0.00000000000E+00 0. -1.
          6    2    1    2  501    0  0.54612882690E+02 -0.96792139154E+02 -0.48644344558E+03  0.52799799658E+03  0.17263653579E+03 0.  0.
         24    2    3    3    0    0  0.44288624644E+01  0.13165737229E+02 -0.15096987853E+03  0.17138367458E+03  0.79921888309E+02 0.  0.
         -6    2    1    2    0  502 -0.54612882690E+02  0.96792139154E+02 -0.17578620018E+02  0.20644162757E+03  0.17308336880E+03 0.  0.
        -24    2    5    5    0    0 -0.78400068793E+02  0.87082604514E+01 -0.29087380616E+01  0.11391111721E+03  0.82127201834E+02 0.  0.
          5    1    3    3  501    0  0.50184020226E+02 -0.10995787638E+03 -0.33547356705E+03  0.35661432200E+03  0.47000000000E+01 0. -1.
        -11    1    4    4    0    0 -0.27955793163E+02 -0.77583283218E+01 -0.11517628811E+03  0.11877413595E+03  0.00000000000E+00 0.  1.
         12    1    4    4    0    0  0.32384655628E+02  0.20924065551E+02 -0.35793590421E+02  0.52609538627E+02  0.00000000000E+00 0. -1.
         -5    1    5    5    0  502  0.23787186103E+02  0.88083878703E+02 -0.14669881957E+02  0.92530510356E+02  0.47000000000E+01 0.  1.
         13    1    6    6    0    0 -0.35001849162E+02  0.28454602494E+02 -0.34436238918E+02  0.56750756811E+02  0.00000000000E+00 0. -1.
        -14    1    6    6    0    0 -0.43398219631E+02 -0.19746342042E+02  0.31527500856E+02  0.57160360403E+02  0.00000000000E+00 0.  1.
</event>
<event>
12    1  0.8449700E-002  0.2263459E+03  0.7818608E-02  0.1129351E+00
         21   -1    0    0  501  502  0.00000000000E+00  0.00000000000E+00  0.25480031378E+03  0.25480031378E+03  0.00000000000E+00 0. -1.
         21   -1    0    0  502  503 -0.00000000000E+00 -0.00000000000E+00 -0.20115470617E+03  0.20115470617E+03  0.00000000000E+00 0.  1.
         -6    2    1    2    0  503 -0.13587617824E+03 -0.55318977441E+02  0.39644414218E+02  0.22917649678E+03  0.17154492712E+03 0.  0.
        -24    2    3    3    0    0 -0.95792557939E+02 -0.47887038383E+02  0.92285853222E+02  0.16242965090E+03  0.79983311915E+02 0.  0.
          6    2    1    2  501    0  0.13587617824E+03  0.55318977441E+02  0.14001193391E+02  0.22677852316E+03  0.17236571606E+03 0.  0.
         24    2    5    5    0    0  0.10692963097E+03  0.59994896839E+02  0.71105285620E+02  0.16241444801E+03  0.79304209560E+02 0.  0.
          5    1    5    5  501    0  0.28946547275E+02 -0.46759193981E+01 -0.57104092229E+02  0.64364075156E+02  0.47000000000E+01 0. -1.
        -13    1    6    6    0    0  0.98931614859E+02  0.62110807848E+02  0.30162387338E+02  0.12064404867E+03  0.00000000000E+00 0.  1.
         14    1    6    6    0    0  0.79980161074E+01 -0.21159110096E+01  0.40942898282E+02  0.41770399337E+02  0.00000000000E+00 0. -1.
         -5    1    3    3    0  503 -0.40083620302E+02 -0.74319390572E+01 -0.52641439003E+02  0.66746845881E+02  0.47000000000E+01 0.  1.
         11    1    4    4    0    0 -0.42517162290E+02  0.19776627210E+02  0.40343257701E+02  0.61857922007E+02  0.00000000000E+00 0. -1.
        -12    1    4    4    0    0 -0.53275395649E+02 -0.67663665594E+02  0.51942595521E+02  0.10057172889E+03  0.00000000000E+00 0.  1.
</event>
<event>
12    1  0.8449700E-002  0.2124739E+03  0.7818608E-02  0.1140210E+00
         21   -1    0    0  503  502  0.00000000000E+00  0.00000000000E+00  0.51509425330E+03  0.51509425330E+03  0.00000000000E+00 0.  1.
         21   -1    0    0  501  503 -0.00000000000E+00 -0.00000000000E+00 -0.98826303816E+02  0.98826303816E+02  0.00000000000E+00 0. -1.
          6    2    1    2  501    0 -0.11763763165E+03 -0.17776562745E+02  0.31820511767E+03  0.38262207086E+03  0.17604128388E+03 0.  0.
         24    2    3    3    0    0 -0.32712037685E+02  0.29885322792E+02  0.58922889901E+02  0.10561417299E+03  0.75625634898E+02 0.  0.
         -6    2    1    2    0  502  0.11763763165E+03  0.17776562745E+02  0.98062831812E+02  0.23129848626E+03  0.17241824787E+03 0.  0.
        -24    2    5    5    0    0  0.51474565437E+01  0.13384817379E+01 -0.20413178709E+01  0.79749217747E+02  0.79545476995E+02 0.  0.
          5    1    3    3  501    0 -0.84925593968E+02 -0.47661885536E+02  0.25928222777E+03  0.27700789787E+03  0.47000000000E+01 0. -1.
        -13    1    4    4    0    0 -0.33615363143E+02  0.49426906465E+02  0.61640767899E+02  0.85863822354E+02  0.00000000000E+00 0.  1.
         14    1    4    4    0    0  0.90332545788E+00 -0.19541583674E+02 -0.27178779981E+01  0.19750350634E+02  0.00000000000E+00 0. -1.
         -5    1    5    5    0  502  0.11249017511E+03  0.16438081007E+02  0.10010414968E+03  0.15154926851E+03  0.47000000000E+01 0.  1.
         11    1    6    6    0    0 -0.20657947380E+02  0.30000069975E+02 -0.14522517289E+02  0.39212988879E+02  0.00000000000E+00 0. -1.
        -12    1    6    6    0    0  0.25805403923E+02 -0.28661588237E+02  0.12481199418E+02  0.40536228868E+02  0.00000000000E+00 0.  1.
</event>
<event>
12    1  0.8449700E-002  0.2029794E+03  0.7818608E-02  0.1147332E+00
         21   -1    0    0  503  502  0.00000000000E+00  0.00000000000E+00  0.12943875181E+04  0.12943875181E+04  0.00000000000E+00 0. -1.
         21   -1    0    0  501  503 -0.00000000000E+00 -0.00000000000E+00 -0.33402533605E+02  0.33402533605E+02  0.00000000000E+00 0. -1.
          6    2    1    2  501    0 -0.51695140812E+02 -0.91878061577E+02  0.48419721310E+03  0.52502152054E+03  0.17345515292E+03 0.  0.
         24    2    3    3    0    0 -0.43014899131E+02 -0.10399185185E+03  0.21452857187E+03  0.25490051697E+03  0.79291730983E+02 0.  0.
         -6    2    1    2    0  502  0.51695140812E+02  0.91878061577E+02  0.77678777137E+03  0.80276853114E+03  0.17298585796E+03 0.  0.
        -24    2    5    5    0    0  0.65524088319E+02  0.96153503053E+02  0.77475474810E+03  0.78741462699E+03  0.78980838163E+02 0.  0.
          5    1    3    3  501    0 -0.86802416806E+01  0.12113790272E+02  0.26966864122E+03  0.27012100357E+03  0.47000000000E+01 0. -1.
        -11    1    4    4    0    0 -0.52195454022E+01 -0.54281302935E+02  0.34941125058E+02  0.64765621458E+02  0.00000000000E+00 0.  1.
         12    1    4    4    0    0 -0.37795353729E+02 -0.49710548913E+02  0.17958744682E+03  0.19013489551E+03  0.00000000000E+00 0. -1.
         -5    1    5    5    0  502 -0.13828947507E+02 -0.42754414767E+01  0.20330232706E+01  0.15353904148E+02  0.47000000000E+01 0.  1.
         11    1    6    6    0    0  0.45433939577E+02  0.48820581408E+02  0.21027040007E+03  0.22059313947E+03  0.00000000000E+00 0. -1.
        -12    1    6    6    0    0  0.20090148742E+02  0.47332921646E+02  0.56448434803E+03  0.56682148753E+03  0.00000000000E+00 0.  1.
</event>
<event>
12    1  0.8449700E-002  0.2802299E+03  0.7818608E-02  0.1095704E+00
         21   -1    0    0  503  502  0.00000000000E+00  0.00000000000E+00  0.56515916140E+03  0.56515916140E+03  0.00000000000E+00 0.  1.
         21   -1    0    0  501  503 -0.00000000000E+00 -0.00000000000E+00 -0.21238225784E+03  0.21238225784E+03  0.00000000000E+00 0. -1.
          6    2    1    2  501    0 -0.19560129831E+03 -0.10089770012E+03 -0.52792594661E+02  0.28515937161E+03  0.17346064504E+03 0.  0.
         24    2    3    3    0    0 -0.71249646864E+02 -0.29503745869E+02 -0.13860686834E+01  0.13276137020E+03  0.10805867403E+03 0.  0.
         -6    2    1    2    0  502  0.19560129831E+03  0.10089770012E+03  0.40556949822E+03  0.49238204763E+03  0.17179420582E+03 0.  0.
        -24    2    5    5    0    0  0.50214915844E+02  0.85011319239E+02  0.13512372950E+03  0.18488801335E+03  0.78591939998E+02 0.  0.
          5    1    3    3  501    0 -0.12435165144E+03 -0.71393954248E+02 -0.51406525977E+02  0.15239800141E+03  0.47000000000E+01 0. -1.
        -11    1    4    4    0    0 -0.33839512158E+02 -0.14225890618E+02 -0.54692725442E+02  0.65869437247E+02  0.00000000000E+00 0.  1.
         12    1    4    4    0    0 -0.37410134707E+02 -0.15277855251E+02  0.53306656759E+02  0.66891932957E+02  0.00000000000E+00 0. -1.
         -5    1    5    5    0  502  0.14538638246E+03  0.15886380878E+02  0.27044576872E+03  0.30749403428E+03  0.47000000000E+01 0.  1.
         13    1    6    6    0    0 -0.21479709716E+02  0.19734222306E+02  0.33813383011E+02  0.44656044722E+02  0.00000000000E+00 0. -1.
        -14    1    6    6    0    0  0.71694625560E+02  0.65277096932E+02  0.10131034649E+03  0.14023196862E+03  0.00000000000E+00 0.  1.
</event>
<event>
12    1  0.8449700E-002  0.2741782E+03  0.7818608E-02  0.1099684E+00
         21   -1    0    0  501  502  0.00000000000E+00  0.00000000000E+00  0.48542101196E+03  0.48542101196E+03  0.00000000000E+00 0. -1.
         21   -1    0    0  502  503 -0.00000000000E+00 -0.00000000000E+00 -0.15180706594E+03  0.15180706594E+03  0.00000000000E+00 0. -1.
         -6    2    1    2    0  503  0.20505027709E+03 -0.10366593241E+02  0.16704407933E+03  0.31641785342E+03  0.17338815166E+03 0.  0.
        -24    2    3    3    0    0  0.14921734147E+03  0.55652507208E+02  0.13976982653E+03  0.22563342089E+03  0.77535924971E+02 0.  0.
          6    2    1    2  501    0 -0.20505027709E+03  0.10366593241E+02  0.16656986669E+03  0.32081022448E+03  0.18171570447E+03 0.  0.
         24    2    5    5    0    0 -0.14834930485E+03  0.14701494869E+02  0.19444936404E+03  0.25730315403E+03  0.78553852217E+02 0.  0.
          5    1    5    5  501    0 -0.56700972239E+02 -0.43349016276E+01 -0.27879497343E+02  0.63507070450E+02  0.47000000000E+01 0. -1.
        -13    1    6    6    0    0 -0.67220765325E+02  0.24186977487E+02  0.14546255003E+03  0.16205861480E+03  0.00000000000E+00 0.  1.
         14    1    6    6    0    0 -0.81128539522E+02 -0.94854826179E+01  0.48986814008E+02  0.95244539225E+02  0.00000000000E+00 0. -1.
         -5    1    3    3    0  503  0.55832935614E+02 -0.66019100449E+02  0.27274252796E+02  0.90784432525E+02  0.47000000000E+01 0.  1.
         11    1    4    4    0    0  0.80065713075E+02  0.25748470409E+02  0.23918881574E+02  0.87439207649E+02  0.00000000000E+00 0. -1.
        -12    1    4    4    0    0  0.69151628398E+02  0.29904036798E+02  0.11585094496E+03  0.13819421324E+03  0.00000000000E+00 0.  1.
</event>
<event>
12    1  0.8449700E-002  0.1718973E+03  0.7818608E-02  0.1175955E+00
         21   -1    0    0  503  502  0.00000000000E+00  0.00000000000E+00  0.15716318695E+03  0.15716318695E+03  0.00000000000E+00 0. -1.
         21   -1    0    0  501  503 -0.00000000000E+00 -0.00000000000E+00 -0.21170833004E+03  0.21170833004E+03  0.00000000000E+00 0. -1.
          6    2    1    2  501    0 -0.15503958591E+01  0.16154802202E+02 -0.89351329036E+02  0.19348578713E+03  0.17084995891E+03 0.  0.
         24    2    3    3    0    0  0.37466490372E+02  0.36551831693E+02 -0.10762667340E+03  0.14558553207E+03  0.82896755176E+02 0.  0.
         -6    2    1    2    0  502  0.15503958591E+01 -0.16154802202E+02  0.34806185950E+02  0.17538572986E+03  0.17112948985E+03 0.  0.
        -24    2    5    5    0    0  0.18366031823E+02 -0.33531157815E+02  0.83056133938E+02  0.12121146634E+03  0.79575426593E+02 0.  0.
          5    1    3    3  501    0 -0.39016886231E+02 -0.20397029492E+02  0.18275344365E+02  0.47900255061E+02  0.47000000000E+01 0. -1.
        -11    1    4    4    0    0  0.45736553578E+02 -0.95514840233E+00 -0.20031682768E+02  0.49940093674E+02  0.00000000000E+00 0.  1.
         12    1    4    4    0    0 -0.82700632051E+01  0.37506980096E+02 -0.87594990633E+02  0.95645438392E+02  0.00000000000E+00 0. -1.
         -5    1    5    5    0  502 -0.16815635964E+02  0.17376355614E+02 -0.48249947988E+02  0.54174263522E+02  0.47000000000E+01 0.  1.
         13    1    6    6    0    0 -0.26579349224E+02 -0.21182005071E+02  0.11630029022E+02  0.35922092354E+02  0.00000000000E+00 0. -1.
        -14    1    6    6    0    0  0.44945381048E+02 -0.12349152744E+02  0.71426104916E+02  0.85289373983E+02  0.00000000000E+00 0.  1.
</event>
<event>
12    1  0.8449700E-002  0.1883904E+03  0.7818608E-02  0.1161069E+00
         21   -1    0    0  503  502  0.00000000000E+00  0.00000000000E+00  0.11873190590E+03  0.11873190590E+03  0.00000000000E+00 0.  1.
         21   -1    0    0  501  503 -0.00000000000E+00 -0.00000000000E+00 -0.36269810105E+03  0.36269810105E+03  0.00000000000E+00 0. -1.
          6    2    1    2  501    0  0.46097904295E+02 -0.58780269383E+02 -0.23023631986E+03  0.29748898825E+03  0.17294738594E+03 0.  0.
         24    2    3    3    0    0  0.83089359272E+02 -0.57686549511E+02 -0.22637786078E+03  0.25998509951E+03  0.78190386230E+02 0.  0.
         -6    2    1    2    0  502 -0.46097904295E+02  0.58780269383E+02 -0.13729875295E+02  0.18394101870E+03  0.16752806342E+03 0.  0.
        -24    2    5    5    0    0  0.29977442366E+02  0.42941816859E+01  0.12939079439E+02  0.86526875632E+02  0.80014957244E+02 0.  0.
          5    1    3    3  501    0 -0.36991454977E+02 -0.10937198717E+01 -0.38584590808E+01  0.37503888744E+02  0.47000000000E+01 0. -1.
        -11    1    4    4    0    0  0.34481501434E+02  0.15845085220E+01 -0.20142407299E+02  0.39964999440E+02  0.00000000000E+00 0.  1.
         12    1    4    4    0    0  0.48607857838E+02 -0.59271058033E+02 -0.20623545348E+03  0.22002010007E+03  0.00000000000E+00 0. -1.
         -5    1    5    5    0  502 -0.76075346662E+02  0.54486087697E+02 -0.26668954734E+02  0.97414143063E+02  0.47000000000E+01 0.  1.
         13    1    6    6    0    0  0.56821596569E+02  0.73596848513E+01  0.18642109115E+01  0.57326556500E+02  0.00000000000E+00 0. -1.
        -14    1    6    6    0    0 -0.26844154203E+02 -0.30655031654E+01  0.11074868527E+02  0.29200319132E+02  0.00000000000E+00 0.  1.
</event>
<event>
12    1  0.8449700E-002  0.2199345E+03  0.7818608E-02  0.1134250E+00
         21   -1    0    0  503  502  0.00000000000E+00  0.00000000000E+00  0.73375881534E+02  0.73375881534E+02  0.00000000000E+00 0. -1.
         21   -1    0    0  501  503 -0.00000000000E+00 -0.00000000000E+00 -0.86817800615E+03  0.86817800615E+03  0.00000000000E+00 0. -1.
          6    2    1    2  501    0  0.13516095258E+03 -0.18129944537E+02 -0.63231528927E+03  0.66947279283E+03  0.17255149174E+03 0.  0.
         24    2    3    3    0    0  0.52367642652E+02  0.25736610864E+02 -0.48392989399E+03  0.49391846396E+03  0.79765679411E+02 0.  0.
         -6    2    1    2    0  502 -0.13516095258E+03  0.18129944537E+02 -0.16248683534E+03  0.27208109485E+03  0.17037890869E+03 0.  0.
        -24    2    5    5    0    0 -0.11167370000E+03  0.74309547667E+02 -0.10664637493E+03  0.18932817430E+03  0.80490894830E+02 0.  0.
          5    1    3    3  501    0  0.82793309924E+02 -0.43866555401E+02 -0.14838539528E+03  0.17555432887E+03  0.47000000000E+01 0. -1.
        -13    1    4    4    0    0  0.13615227743E+02 -0.23945661329E+01 -0.88129380518E+01  0.16394396926E+02  0.00000000000E+00 0.  1.
         14    1    4    4    0    0  0.38752414908E+02  0.28131176997E+02 -0.47511695594E+03  0.47752406704E+03  0.00000000000E+00 0. -1.
         -5    1    5    5    0  502 -0.23487252579E+02 -0.56179603130E+02 -0.55840460406E+02  0.82752920552E+02  0.47000000000E+01 0.  1.
         11    1    6    6    0    0 -0.70451552254E+02  0.46472906625E+00 -0.35925171545E+02  0.79083848785E+02  0.00000000000E+00 0. -1.
        -12    1    6    6    0    0 -0.41222147742E+02  0.73844818601E+02 -0.70721203389E+02  0.11024432551E+03  0.00000000000E+00 0.  1.
</event>
<event>
12    1  0.8449700E-002  0.1892807E+03  0.7818608E-02  0.1159373E+00
         21   -1    0    0  503  502  0.00000000000E+00  0.00000000000E+00  0.26087587546E+03  0.26087587546E+03  0.00000000000E+00 0. -1.
         21   -1    0    0  501  503 -0.00000000000E+00 -0.00000000000E+00 -0.13743318922E+03  0.13743318922E+03  0.00000000000E+00 0. -1.
          6    2    1    2  501    0 -0.12588915930E+02  0.74587425004E+02  0.78292520463E+02  0.20483387466E+03  0.17350917174E+03 0.  0.
         24    2    3    3    0    0 -0.41540118310E+02  0.11185217587E+03  0.57340942133E+02  0.15298898667E+03  0.76688693567E+02 0.  0.
         -6    2    1    2    0  502  0.12588915930E+02 -0.74587425004E+02  0.45150165774E+02  0.19347519001E+03  0.17225663095E+03 0.  0.
        -24    2    5    5    0    0 -0.17552166540E+02 -0.16496996343E+02 -0.35960175323E+02  0.89148969973E+02  0.77936995063E+02 0.  0.
          5    1    3    3  501    0  0.28951202380E+02 -0.37264750870E+02  0.20951578330E+02  0.51844887994E+02  0.47000000000E+01 0. -1.
        -11    1    4    4    0    0 -0.39844198080E+02  0.11501247694E+02  0.16582464453E+02  0.44663373658E+02  0.00000000000E+00 0.  1.
         12    1    4    4    0    0 -0.16959202296E+01  0.10035092818E+03  0.40758477679E+02  0.10832561301E+03  0.00000000000E+00 0. -1.
         -5    1    5    5    0  502  0.30141082470E+02 -0.58090428661E+02  0.81110341096E+02  0.10432622004E+03  0.47000000000E+01 0.  1.
         13    1    6    6    0    0 -0.41113925536E+02 -0.26308897662E+01 -0.44368399794E+02  0.60546109324E+02  0.00000000000E+00 0. -1.
        -14    1    6    6    0    0  0.23561758996E+02 -0.13866106577E+02  0.84082244712E+01  0.28602860650E+02  0.00000000000E+00 0.  1.
</event>
<event>
12    1  0.8449700E-002  0.1963153E+03  0.7818608E-02  0.1153931E+00
         21   -1    0    0  501  502  0.00000000000E+00  0.00000000000E+00  0.32692529739E+03  0.32692529739E+03  0.00000000000E+00 0. -1.
         21   -1    0    0  502  503 -0.00000000000E+00 -0.00000000000E+00 -0.27861189100E+03  0.27861189100E+03  0.00000000000E+00 0.  1.
         -6    2    1    2    0  503 -0.40651289933E+02  0.76817105452E+02 -0.20794998347E+03  0.28272049987E+03  0.17068769832E+03 0.  0.
        -24    2    3    3    0    0 -0.14484165234E+02 -0.94582181748E+01 -0.38441997229E+02  0.90670513456E+02  0.80275188731E+02 0.  0.
          6    2    1    2  501    0  0.40651289933E+02 -0.76817105452E+02  0.25626338986E+03  0.32281668852E+03  0.17602924286E+03 0.  0.
         24    2    5    5    0    0  0.82723138876E+02 -0.90425490668E+02  0.22045361990E+03  0.26572327168E+03  0.83601265044E+02 0.  0.
          5    1    5    5  501    0 -0.42071848944E+02  0.13608385215E+02  0.35809769955E+02  0.57093416835E+02  0.47000000000E+01 0. -1.
        -11    1    6    6    0    0  0.17321396005E+02 -0.40539028330E+00  0.10099654686E+03  0.10247193557E+03  0.00000000000E+00 0.  1.
         12    1    6    6    0    0  0.65401742872E+02 -0.90020100384E+02  0.11945707304E+03  0.16325133612E+03  0.00000000000E+00 0. -1.
         -5    1    3    3    0  503 -0.26167124698E+02  0.86275323627E+02 -0.16950798624E+03  0.19204998641E+03  0.47000000000E+01 0.  1.
         11    1    4    4    0    0  0.21145566081E+02  0.41243509991E+01  0.14101805415E+02  0.25748905841E+02  0.00000000000E+00 0. -1.
        -12    1    4    4    0    0 -0.35629731315E+02 -0.13582569174E+02 -0.52543802644E+02  0.64921607615E+02  0.00000000000E+00 0.  1.
</event>
<event>
12    1  0.8449700E-002  0.1765937E+03  0.7818608E-02  0.1171290E+00
         21   -1    0    0  501  502  0.00000000000E+00  0.00000000000E+00  0.94837182321E+02  0.94837182321E+02  0.00000000000E+00 0. -1.
         21   -1    0    0  502  503 -0.00000000000E+00 -0.00000000000E+00 -0.33954980662E+03  0.33954980662E+03  0.00000000000E+00 0. -1.
         -6    2    1    2    0  503  0.38716582988E+02 -0.71826794680E+01 -0.16270828500E+03  0.23968194983E+03  0.17153100706E+03 0.  0.
        -24    2    3    3    0    0  0.72737275934E+02  0.36637989011E+02 -0.73851264451E+02  0.13482338492E+03  0.78040260828E+02 0.  0.
          6    2    1    2  501    0 -0.38716582988E+02  0.71826794680E+01 -0.82004339294E+02  0.19470503911E+03  0.17214754111E+03 0.  0.
         24    2    5    5    0    0 -0.10894418102E+02  0.57289767450E+02 -0.53942292224E+01  0.98913640277E+02  0.79712011163E+02 0.  0.
          5    1    5    5  501    0 -0.27822164886E+02 -0.50107087982E+02 -0.76610110071E+02  0.95791398832E+02  0.47000000000E+01 0. -1.
        -13    1    6    6    0    0  0.24347562088E+02 -0.50681501627E+01 -0.10734558972E+02  0.27087278970E+02  0.00000000000E+00 0.  1.
         14    1    6    6    0    0 -0.35241980190E+02  0.62357917613E+02  0.53403297495E+01  0.71826361307E+02  0.00000000000E+00 0. -1.
         -5    1    3    3    0  503 -0.34020692946E+02 -0.43820668479E+02 -0.88857020554E+02  0.10485856492E+03  0.47000000000E+01 0.  1.
         11    1    4    4    0    0  0.31319833391E+02  0.41411920484E+02 -0.77157472276E+02  0.93000831447E+02  0.00000000000E+00 0. -1.
        -12    1    4    4    0    0  0.41417442543E+02 -0.47739314724E+01  0.33062078250E+01  0.41822553469E+02  0.00000000000E+00 0.  1.
</event>
<event>
12    1  0.8449700E-002  0.2258790E+03  0.7818608E-02  0.1129625E+00
         21   -1    0    0  503  502  0.00000000000E+00  0.00000000000E+00  0.43913498589E+03  0.43913498589E+03  0.00000000000E+00 0. -1.
         21   -1    0    0  501  503 -0.00000000000E+00 -0.00000000000E+00 -0.18350467043E+03  0.18350467043E+03  0.00000000000E+00 0. -1.
          6    2    1    2  501    0  0.90283566608E+02 -0.11477489062E+03 -0.60999256378E+02  0.23369800073E+03  0.17195769349E+03 0.  0.
         24    2    3    3    0    0 -0.18213236677E+01 -0.10840248305E+03 -0.35807102144E+02  0.13788227641E+03  0.77297852710E+02 0.  0.
         -6    2    1    2    0  502 -0.90283566608E+02  0.11477489062E+03  0.31662957183E+03  0.38894165559E+03  0.17232796575E+03 0.  0.
        -24    2    5    5    0    0 -0.27664844971E+02  0.79083282900E+02  0.29004854058E+03  0.31197649215E+03  0.78623574590E+02 0.  0.
          5    1    3    3  501    0  0.92104890275E+02 -0.63724075695E+01 -0.25192154234E+02  0.95815724314E+02  0.47000000000E+01 0. -1.
        -13    1    4    4    0    0  0.48266613502E+01 -0.21586032691E+01  0.17889438873E+02  0.18654443199E+02  0.00000000000E+00 0.  1.
         14    1    4    4    0    0 -0.66479850178E+01 -0.10624387978E+03 -0.53696541017E+02  0.11922783321E+03  0.00000000000E+00 0. -1.
         -5    1    5    5    0  502 -0.62618721637E+02  0.35691607720E+02  0.26581031253E+02  0.76965163442E+02  0.47000000000E+01 0.  1.
         13    1    6    6    0    0  0.22108707838E+02  0.10543758928E+02  0.11410459377E+03  0.11670400222E+03  0.00000000000E+00 0. -1.
        -14    1    6    6    0    0 -0.49773552809E+02  0.68539523972E+02  0.17594394682E+03  0.19527248994E+03  0.00000000000E+00 0.  1.
</event>
<event>
12    1  0.8449700E-002  0.1932536E+03  0.7818608E-02  0.1158371E+00
         21   -1    0    0  503  502  0.00000000000E+00  0.00000000000E+00  0.19747654573E+03  0.19747654573E+03  0.00000000000E+00 0.  1.
         21   -1    0    0  501  503 -0.00000000000E+00 -0.00000000000E+00 -0.20503879592E+03  0.20503879592E+03  0.00000000000E+00 0.  1.
          6    2    1    2  501    0 -0.20972715436E+02  0.48840968301E+02 -0.77706935919E+02  0.19692538643E+03  0.17296226454E+03 0.  0.
         24    2    3    3    0    0 -0.69428102755E+02  0.48481039549E+02 -0.92397518944E+02  0.14607307735E+03  0.75029126161E+02 0.  0.
         -6    2    1    2    0  502  0.20972715436E+02 -0.48840968301E+02  0.70144685733E+02  0.20558995522E+03  0.18580004783E+03 0.  0.
        -24    2    5    5    0    0  0.15103099019E+02  0.18781879923E+02  0.96620549393E+02  0.13258061776E+03  0.87528435541E+02 0.  0.
          5    1    3    3  501    0  0.48455387319E+02  0.35992875224E+00  0.14690583026E+02  0.50852309078E+02  0.47000000000E+01 0. -1.
        -13    1    4    4    0    0  0.15167342262E+02  0.14406547689E+02 -0.10096240338E+02  0.23227805676E+02  0.00000000000E+00 0.  1.
         14    1    4    4    0    0 -0.84595445017E+02  0.34074491860E+02 -0.82301278606E+02  0.12284527168E+03  0.00000000000E+00 0. -1.
         -5    1    5    5    0  502  0.58696164180E+01 -0.67622848224E+02 -0.26475863660E+02  0.73009337453E+02  0.47000000000E+01 0.  1.
         11    1    6    6    0    0  0.51253003192E+02  0.75767914611E+01  0.45349046042E+02  0.68853569856E+02  0.00000000000E+00 0. -1.
        -12    1    6    6    0    0 -0.36149904173E+02  0.11205088462E+02  0.51271503351E+02  0.63727047908E+02  0.00000000000E+00 0.  1.
</event>
<event>
12    1  0.8449700E-002  0.2404452E+03  0.7818608E-02  0.1119557E+00
         21   -1    0    0  503  502  0.00000000000E+00  0.00000000000E+00  0.33992176008E+03  0.33992176008E+03  0.00000000000E+00 0. -1.
         21   -1    0    0  501  503 -0.00000000000E+00 -0.00000000000E+00 -0.24751539615E+03  0.24751539615E+03  0.00000000000E+00 0.  1.
          6    2    1    2  501    0 -0.49938751717E+02  0.16051388037E+03 -0.11833211768E+03  0.26798578635E+03  0.17191656959E+03 0.  0.
         24    2    3    3    0    0 -0.52056614378E+02  0.26909242382E+02 -0.10939487632E+03  0.13398336504E+03  0.50500541758E+02 0.  0.
         -6    2    1    2    0  502  0.49938751717E+02 -0.16051388037E+03  0.21073848160E+03  0.31945136989E+03  0.17140561653E+03 0.  0.
        -24    2    5    5    0    0  0.71289780846E+01 -0.44222385387E+02  0.16219609154E+03  0.18627914247E+03  0.79911858377E+02 0.  0.
          5    1    3    3  501    0  0.21178626618E+01  0.13360463798E+03 -0.89372413583E+01  0.13400242131E+03  0.47000000000E+01 0. -1.
        -13    1    4    4    0    0  0.72576720204E+01  0.15252725742E+02 -0.25102997282E+02  0.30256898689E+02  0.00000000000E+00 0.  1.
         14    1    4    4    0    0 -0.59314286399E+02  0.11656516639E+02 -0.84291879036E+02  0.10372646636E+03  0.00000000000E+00 0. -1.
         -5    1    5    5    0  502  0.42809773632E+02 -0.11629149498E+03  0.48542390066E+02  0.13317222742E+03  0.47000000000E+01 0.  1.
         13    1    6    6    0    0  0.39102708024E+02 -0.24492164003E+02  0.50361097613E+02  0.68301742475E+02  0.00000000000E+00 0. -1.
        -14    1    6    6    0    0 -0.31973729939E+02 -0.19730221384E+02  0.11183499393E+03  0.11797739999E+03  0.00000000000E+00 0.  1.
</event>
<event>
12    1  0.8449700E-002  0.1755499E+03  0.7818608E-02  0.1172763E+00
         21   -1    0    0  503  502  0.00000000000E+00  0.00000000000E+00  0.34070925496E+02  0.34070925496E+02  0.00000000000E+00 0. -1.
         21   -1    0    0  501  503 -0.00000000000E+00 -0.00000000000E+00 -0.94947660447E+03  0.94947660447E+03  0.00000000000E+00 0. -1.
          6    2    1    2  501    0 -0.30178533309E+02 -0.31173974486E+01 -0.58088251944E+03  0.60682969290E+03  0.17290839411E+03 0.  0.
         24    2    3    3    0    0 -0.69990582500E+02 -0.31988886453E+02 -0.49737958602E+03  0.50980705622E+03  0.81208444680E+02 0.  0.
         -6    2    1    2    0  502  0.30178533309E+02  0.31173974486E+01 -0.33452315954E+03  0.37671783707E+03  0.17055826706E+03 0.  0.
        -24    2    5    5    0    0  0.15103317813E+02 -0.97739251888E+00 -0.59090090643E+02  0.10080209836E+03  0.80251845568E+02 0.  0.
          5    1    3    3  501    0  0.39812049191E+02  0.28871489004E+02 -0.83502933415E+02  0.97022636673E+02  0.47000000000E+01 0. -1.
        -13    1    4    4    0    0  0.14419535470E+02 -0.22479411908E+02 -0.10562236849E+03  0.10894646249E+03  0.00000000000E+00 0.  1.
         14    1    4    4    0    0 -0.84410117970E+02 -0.95094745448E+01 -0.39175721753E+03  0.40086059373E+03  0.00000000000E+00 0. -1.
         -5    1    5    5    0  502  0.15075215496E+02  0.40947899675E+01 -0.27543306889E+03  0.27591573871E+03  0.47000000000E+01 0.  1.
         11    1    6    6    0    0 -0.49335712493E+01 -0.22874392265E+02  0.10120881935E+02  0.25495297565E+02  0.00000000000E+00 0. -1.
        -12    1    6    6    0    0  0.20036889062E+02  0.21896999746E+02 -0.69210972579E+02  0.75306800798E+02  0.00000000000E+00 0.  1.
</event>
<event>
12    1  0.8449700E-002  0.2117891E+03  0.7818608E-02  0.1142272E+00
         21   -1    0    0  501  502  0.00000000000E+00  0.00000000000E+00  0.11402379052E+04  0.11402379052E+04  0.00000000000E+00 0.  1.
         21   -1    0    0  502  503 -0.00000000000E+00 -0.00000000000E+00 -0.46959783520E+02  0.46959783520E+02  0.00000000000E+00 0.  1.
         -6    2    1    2    0  503 -0.41898895190E+02  0.11326907194E+03  0.80318171737E+03  0.82801727971E+03  0.16101659637E+03 0.  0.
        -24    2    3    3    0    0 -0.75990473864E+02  0.39966852850E+02  0.41035048506E+03  0.42692636964E+03  0.80664137414E+02 0.  0.
          6    2    1    2  501    0  0.41898895190E+02 -0.11326907194E+03  0.29009640430E+03  0.35918040900E+03  0.17398058037E+03 0.  0.
         24    2    5    5    0    0  0.71341053545E+02 -0.13536025383E+03  0.25863335168E+03  0.31052987266E+03  0.78266512455E+02 0.  0.
          5    1    5    5  501    0 -0.29442158355E+02  0.22091181898E+02  0.31463052616E+02  0.48650536340E+02  0.47000000000E+01 0. -1.
        -13    1    6    6    0    0  0.36192664991E+02 -0.13137362346E+03  0.21154058565E+03  0.25163139176E+03  0.00000000000E+00 0.  1.
         14    1    6    6    0    0  0.35148388554E+02 -0.39866303687E+01  0.47092766027E+02  0.58898480895E+02  0.00000000000E+00 0. -1.
         -5    1    3    3    0  503  0.34091578674E+02  0.73302219085E+02  0.39283123231E+03  0.40109091006E+03  0.47000000000E+01 0.  1.
         13    1    4    4    0    0 -0.36309885107E+02  0.33366728865E+02  0.78892490030E+02  0.93036397903E+02  0.00000000000E+00 0. -1.
        -14    1    4    4    0    0 -0.39680588757E+02  0.66001239851E+01  0.33145799503E+03  0.33388997174E+03  0.00000000000E+00 0.  1.
</event>
<event>
12    1  0.8449700E-002  0.1754295E+03  0.7818608E-02  0.1172670E+00
         21   -1    0    0  503  502  0.00000000000E+00  0.00000000000E+00  0.80684212216E+02  0.80684212216E+02  0.00000000000E+00 0.  1.
         21   -1    0    0  501  503 -0.00000000000E+00 -0.00000000000E+00 -0.42373405113E+03  0.42373405113E+03  0.00000000000E+00 0.  1.
          6    2    1    2  501    0  0.27446449962E+02  0.19665434697E+02 -0.25480095404E+03  0.30935263481E+03  0.17214961384E+03 0.  0.
         24    2    3    3    0    0 -0.97513440418E+01 -0.47792577689E+02 -0.17555707347E+03  0.19873644286E+03  0.79351549960E+02 0.  0.
         -6    2    1    2    0  502 -0.27446449962E+02 -0.19665434697E+02 -0.88248884874E+02  0.19506562854E+03  0.17065373368E+03 0.  0.
        -24    2    5    5    0    0  0.40464069942E+02  0.14070477405E+02 -0.37672923115E+01  0.81447056285E+02  0.69167269683E+02 0.  0.
          5    1    3    3  501    0  0.37197794004E+02  0.67458012386E+02 -0.79243880565E+02  0.11061619195E+03  0.47000000000E+01 0. -1.
        -11    1    4    4    0    0  0.24620074780E+02  0.88366688006E+01 -0.61606284145E+02  0.66929582725E+02  0.00000000000E+00 0.  1.
         12    1    4    4    0    0 -0.34371418822E+02 -0.56629246490E+02 -0.11395078933E+03  0.13180686013E+03  0.00000000000E+00 0. -1.
         -5    1    5    5    0  502 -0.67910519904E+02 -0.33735912102E+02 -0.84481592563E+02  0.11361857225E+03  0.47000000000E+01 0.  1.
         13    1    6    6    0    0  0.11748282477E+02  0.65460575209E+01 -0.35519068267E+02  0.37979958146E+02  0.00000000000E+00 0. -1.
        -14    1    6    6    0    0  0.28715787465E+02  0.75244198839E+01  0.31751775955E+02  0.43467098139E+02  0.00000000000E+00 0.  1.
</event>
<event>
12    1  0.8449700E-002  0.1903733E+03  0.7818608E-02  0.1160097E+00
         21   -1    0    0  503  502  0.00000000000E+00  0.00000000000E+00  0.30937154697E+04  0.30937154697E+04  0.00000000000E+00 0.  1.
         21   -1    0    0  501  503 -0.00000000000E+00 -0.00000000000E+00 -0.21999688771E+02  0.21999688771E+02  0.00000000000E+00 0.  1.
          6    2    1    2  501    0 -0.59304170296E+02 -0.28369287684E+01  0.42623734858E+03  0.46339577047E+03  0.17184973083E+03 0.  0.
         24    2    3    3    0    0 -0.83123190681E+02  0.73869301012E+01  0.42131722170E+03  0.43659706396E+03  0.78388541155E+02 0.  0.
         -6    2    1    2    0  502  0.59304170296E+02  0.28369287684E+01  0.26454784323E+04  0.26523193880E+04  0.18087832143E+03 0.  0.
        -24    2    5    5    0    0  0.10908825176E+03  0.84504431932E+00  0.21632760648E+04  0.21675270246E+04  0.80679048934E+02 0.  0.
          5    1    3    3  501    0  0.23819020384E+02 -0.10223858870E+02  0.49201268720E+01  0.26798706512E+02  0.47000000000E+01 0. -1.
        -13    1    4    4    0    0 -0.38758177973E+02  0.34101739404E+02  0.11669687100E+03  0.12760597436E+03  0.00000000000E+00 0.  1.
         14    1    4    4    0    0 -0.44365012708E+02 -0.26714809303E+02  0.30462035070E+03  0.30899108960E+03  0.00000000000E+00 0. -1.
         -5    1    5    5    0  502 -0.49784081461E+02  0.19918844491E+01  0.48220236756E+03  0.48479236344E+03  0.47000000000E+01 0.  1.
         13    1    6    6    0    0  0.20393762027E+02  0.34924409589E+02  0.70436756581E+03  0.70552766613E+03  0.00000000000E+00 0. -1.
        -14    1    6    6    0    0  0.88694489730E+02 -0.34079365270E+02  0.14589084990E+04  0.14619993584E+04  0.00000000000E+00 0.  1.
</event>
<event>
12    1  0.8449700E-002  0.2282382E+03  0.7818608E-02  0.1127970E+00
         21   -1    0    0  503  502  0.00000000000E+00  0.00000000000E+00  0.17101700890E+03  0.17101700890E+03  0.00000000000E+00 0. -1.
         21   -1    0    0  501  503 -0.00000000000E+00 -0.00000000000E+00 -0.39888181040E+03  0.39888181040E+03  0.00000000000E+00 0. -1.
          6    2    1    2  501    0 -0.13919316635E+03 -0.54175546986E+02 -0.25283353419E+03  0.34029889688E+03  0.17195585410E+03 0.  0.
         24    2    3    3    0    0 -0.13196512245E+03 -0.18052602431E+02 -0.10456724788E+03  0.18745226330E+03  0.80394973038E+02 0.  0.
         -6    2    1    2    0  502  0.13919316635E+03  0.54175546986E+02  0.24968732693E+02  0.22959992242E+03  0.17257740093E+03 0.  0.
        -24    2    5    5    0    0  0.12072785637E+03  0.91545470930E+02 -0.11954645018E+02  0.17371696697E+03  0.84136095245E+02 0.  0.
          5    1    3    3  501    0 -0.72280439010E+01 -0.36122944554E+02 -0.14826628631E+03  0.15284663358E+03  0.47000000000E+01 0. -1.
        -11    1    4    4    0    0 -0.68630169471E+02 -0.49478179664E+02 -0.51474952379E+02  0.99034646194E+02  0.00000000000E+00 0.  1.
         12    1    4    4    0    0 -0.63334952977E+02  0.31425577233E+02 -0.53092295502E+02  0.88417617106E+02  0.00000000000E+00 0. -1.
         -5    1    5    5    0  502  0.18465309977E+02 -0.37369923944E+02  0.36923377712E+02  0.55882955450E+02  0.47000000000E+01 0.  1.
         13    1    6    6    0    0  0.98046925976E+02  0.41281097444E+02 -0.37690743214E+02  0.11286239774E+03  0.00000000000E+00 0. -1.
        -14    1    6    6    0    0  0.22680930395E+02  0.50264373486E+02  0.25736098196E+02  0.60854569227E+02  0.00000000000E+00 0.  1.
</event>
<event>
12    1  0.8449700E-002  0.1852263E+03  0.7818608E-02  0.1163187E+00
         21   -1    0    0  503  502  0.00000000000E+00  0.00000000000E+00  0.77133962054E+03  0.77133962054E+03  0.00000000000E+00 0. -1.
         21   -1    0    0  501  503 -0.00000000000E+00 -0.00000000000E+00 -0.58000834156E+02  0.58000834156E+02  0.00000000000E+00 0. -1.
          6    2    1    2  501    0  0.29068679918E+02 -0.59565205451E+02  0.15492961492E+03  0.24147874273E+03  0.17296183324E+03 0.  0.
         24    2    3    3    0    0  0.72107318283E+02 -0.11028619179E+02  0.41688971991E+02  0.11088908843E+03  0.72369356475E+02 0.  0.
         -6    2    1    2    0  502 -0.29068679918E+02  0.59565205451E+02  0.55840917146E+03  0.58786171196E+03  0.17136973994E+03 0.  0.
        -24    2    5    5    0    0 -0.35658568946E+02  0.56953041268E+02  0.56678049326E+03  0.57592776594E+03  0.77055055583E+02 0.  0.
          5    1    3    3  501    0 -0.43038638365E+02 -0.48536586272E+02  0.11324064293E+03  0.13058965430E+03  0.47000000000E+01 0. -1.
        -13    1    4    4    0    0  0.30386598243E+02 -0.23789694426E+02  0.53241522136E+02  0.65756783627E+02  0.00000000000E+00 0.  1.
         14    1    4    4    0    0  0.41720720040E+02  0.12761075246E+02 -0.11552550145E+02  0.45132304805E+02  0.00000000000E+00 0. -1.
         -5    1    5    5    0  502  0.65898890273E+01  0.26121641832E+01 -0.83713217961E+01  0.11933946025E+02  0.47000000000E+01 0.  1.
         13    1    6    6    0    0 -0.61726113295E+01  0.66978801240E+02  0.30669200860E+03  0.31398128779E+03  0.00000000000E+00 0. -1.
        -14    1    6    6    0    0 -0.29485957616E+02 -0.10025759972E+02  0.26008848466E+03  0.26194647815E+03  0.00000000000E+00 0.  1.
</event>
<event>
12    1  0.8449700E-002  0.2224930E+03  0.7818608E-02  0.1132300E+00
         21   -1    0    0  503  502  0.00000000000E+00  0.00000000000E+00  0.11746436934E+04  0.11746436934E+04  0.00000000000E+00 0.  1.
         21   -1    0    0  501  503 -0.00000000000E+00 -0.00000000000E+00 -0.45806605309E+02  0.45806605309E+02  0.00000000000E+00 0. -1.
          6    2    1    2  501    0 -0.12892714829E+03  0.50247542728E+02  0.38728479499E+03  0.44664598721E+03  0.17423002137E+03 0.  0.
         24    2    3    3    0    0 -0.67713055293E+02 -0.29380469831E+01  0.33243141508E+03  0.34863141982E+03  0.80246689492E+02 0.  0.
         -6    2    1    2    0  502  0.12892714829E+03 -0.50247542728E+02  0.74155229305E+03  0.77380431145E+03  0.17241312006E+03 0.  0.
        -24    2    5    5    0    0  0.97838541132E+02 -0.17550707549E+02  0.26824453313E+03  0.29832780295E+03  0.84640067315E+02 0.  0.
          5    1    3    3  501    0 -0.61214092996E+02  0.53185589711E+02  0.54853379909E+02  0.98014567395E+02  0.47000000000E+01 0. -1.
        -11    1    4    4    0    0 -0.12584058379E+02 -0.27137277037E+02  0.39344142623E+02  0.49424203473E+02  0.00000000000E+00 0.  1.
         12    1    4    4    0    0 -0.55128996914E+02  0.24199230053E+02  0.29308727246E+03  0.29920721634E+03  0.00000000000E+00 0. -1.
         -5    1    5    5    0  502  0.31088607157E+02 -0.32696835179E+02  0.47330775993E+03  0.47547650850E+03  0.47000000000E+01 0.  1.
         11    1    6    6    0    0  0.17508420483E+02 -0.37111437354E+02  0.13875026553E+03  0.14469084198E+03  0.00000000000E+00 0. -1.
        -12    1    6    6    0    0  0.80330120649E+02  0.19560729806E+02  0.12949426760E+03  0.15363696097E+03  0.00000000000E+00 0.  1.
</event>
<event>
12    1  0.8449700E-002  0.4518109E+03  0.7818608E-02  0.1027275E+00
         21   -1    0    0  503  502  0.00000000000E+00  0.00000000000E+00  0.23086847226E+04  0.23086847226E+04  0.00000000000E+00 0. -1.
         21   -1    0    0  501  503 -0.00000000000E+00 -0.00000000000E+00 -0.13131925627E+03  0.13131925627E+03  0.00000000000E+00 0.  1.
          6    2    1    2  501    0 -0.25682438870E+03 -0.32757670212E+03  0.38840675459E+03  0.59487353720E+03  0.17248030568E+03 0.  0.
         24    2    3    3    0    0 -0.22002665984E+03 -0.22358367820E+03  0.21942680292E+03  0.39301978831E+03  0.88966510386E+02 0.  0.
         -6    2    1    2    0  502  0.25682438870E+03  0.32757670212E+03  0.17889587117E+04  0.18451304416E+04  0.17569237896E+03 0.  0.
        -24    2    5    5    0    0  0.20610642386E+03  0.21978699503E+03  0.15095721478E+04  0.15413708739E+04  0.78929843924E+02 0.  0.
          5    1    3    3  501    0 -0.36797728864E+02 -0.10399302392E+03  0.16897995167E+03  0.20185374889E+03  0.47000000000E+01 0. -1.
        -13    1    4    4    0    0 -0.81710508094E+02 -0.13985476450E+03  0.86000464669E+02  0.18339040926E+03  0.00000000000E+00 0.  1.
         14    1    4    4    0    0 -0.13831615174E+03 -0.83728913699E+02  0.13342633825E+03  0.20962937905E+03  0.00000000000E+00 0. -1.
         -5    1    5    5    0  502  0.50717964835E+02  0.10778970709E+03  0.27938656392E+03  0.30375956776E+03  0.47000000000E+01 0.  1.
         11    1    6    6    0    0  0.98037332429E+02  0.14681608561E+03  0.99457575627E+03  0.10101223770E+04  0.00000000000E+00 0. -1.
        -12    1    6    6    0    0  0.10806909144E+03  0.72970909420E+02  0.51499639152E+03  0.53124849687E+03  0.00000000000E+00 0.  1.
</event>
<event>
12    1  0.8449700E-002  0.1900367E+03  0.7818608E-02  0.1158533E+00
         21   -1    0    0  503  502  0.00000000000E+00  0.00000000000E+00  0.14623537642E+03  0.14623537642E+03  0.00000000000E+00 0. -1.
         21   -1    0    0  501  503 -0.00000000000E+00 -0.00000000000E+00 -0.25837894701E+03  0.25837894701E+03  0.00000000000E+00 0. -1.
          6    2    1    2  501    0  0.20566379028E+02 -0.77540586650E+02 -0.99645001368E+02  0.21416708005E+03  0.17176406305E+03 0.  0.
         24    2    3    3    0    0  0.47312632493E+02 -0.79616366770E+02 -0.12601731332E+03  0.17625587096E+03  0.81292790210E+02 0.  0.
         -6    2    1    2    0  502 -0.20566379028E+02  0.77540586650E+02 -0.12498569221E+02  0.19044724339E+03  0.17227425738E+03 0.  0.
        -24    2    5    5    0    0  0.51118579504E+02  0.64227117255E+02  0.64499382727E+01  0.11496799006E+03  0.80235935046E+02 0.  0.
          5    1    3    3  501    0 -0.26746253466E+02  0.20757801206E+01  0.26372311948E+02  0.37911209095E+02  0.47000000000E+01 0. -1.
        -11    1    4    4    0    0  0.27267734777E+02 -0.66791419367E+01  0.13657324484E+01  0.28107036877E+02  0.00000000000E+00 0.  1.
         12    1    4    4    0    0  0.20044897716E+02 -0.72937224834E+02 -0.12738304576E+03  0.14814883408E+03  0.00000000000E+00 0. -1.
         -5    1    5    5    0  502 -0.71684958532E+02  0.13313469395E+02 -0.18948507494E+02  0.75479253330E+02  0.47000000000E+01 0.  1.
         11    1    6    6    0    0  0.33408086340E+02  0.23966019294E+02  0.41730447477E+02  0.58582425354E+02  0.00000000000E+00 0. -1.
        -12    1    6    6    0    0  0.17710493164E+02  0.40261097961E+02 -0.35280509205E+02  0.56385564703E+02  0.00000000000E+00 0.  1.
</event>
<event>
12    1  0.8449700E-002  0.1788522E+03  0.7818608E-02  0.1169526E+00
         21   -1    0    0  501  502  0.00000000000E+00  0.00000000000E+00  0.49739155239E+02  0.49739155239E+02  0.00000000000E+00 0. -1.
         21   -1    0    0  502  503 -0.00000000000E+00 -0.00000000000E+00 -0.65756670862E+03  0.65756670862E+03  0.00000000000E+00 0. -1.
         -6    2    1    2    0  503 -0.41959580300E+02 -0.49535763486E+01 -0.37253431350E+03  0.41324316805E+03  0.17378997930E+03 0.  0.
        -24    2    3    3    0    0 -0.94569525565E+02 -0.63663851159E+00 -0.25809987226E+03  0.28713300337E+03  0.82982028714E+02 0.  0.
          6    2    1    2  501    0  0.41959580300E+02  0.49535763486E+01 -0.23529323988E+03  0.29406269581E+03  0.17124490076E+03 0.  0.
         24    2    5    5    0    0  0.29335093508E+01 -0.56125569620E+02 -0.17377997349E+03  0.19888040635E+03  0.78709921857E+02 0.  0.
          5    1    5    5  501    0  0.39026070949E+02  0.61079145969E+02 -0.61513266384E+02  0.95182289462E+02  0.47000000000E+01 0. -1.
        -11    1    6    6    0    0  0.17683778746E+02 -0.33853996664E+02 -0.20613488351E+02  0.43401901143E+02  0.00000000000E+00 0.  1.
         12    1    6    6    0    0 -0.14750269395E+02 -0.22271572956E+02 -0.15316648514E+03  0.15547850520E+03  0.00000000000E+00 0. -1.
         -5    1    3    3    0  503  0.52609945265E+02 -0.43169378370E+01 -0.11443444124E+03  0.12611016468E+03  0.47000000000E+01 0.  1.
         11    1    4    4    0    0 -0.56676738273E+02 -0.41064813780E+02 -0.15554819605E+03  0.17056908538E+03  0.00000000000E+00 0. -1.
        -12    1    4    4    0    0 -0.37892787291E+02  0.40428175268E+02 -0.10255167621E+03  0.11656391799E+03  0.00000000000E+00 0.  1.
</event>
<event>
12    1  0.8449700E-002  0.1800419E+03  0.7818608E-02  0.1167902E+00
         21   -1    0    0  501  502  0.00000000000E+00  0.00000000000E+00  0.52365797236E+03  0.52365797236E+03  0.00000000000E+00 0. -1.
         21   -1    0    0  502  503 -0.00000000000E+00 -0.00000000000E+00 -0.82185407169E+02  0.82185407169E+02  0.00000000000E+00 0. -1.
         -6    2    1    2    0  503 -0.20960209015E+01  0.50674029033E+02  0.69249865361E+02  0.19236447309E+03  0.17215195652E+03 0.  0.
        -24    2    3    3    0    0  0.38322768526E+02  0.85156556786E+02  0.65502615170E+02  0.13889621014E+03  0.79254595112E+02 0.  0.
          6    2    1    2  501    0  0.20960209015E+01 -0.50674029033E+02  0.37222269983E+03  0.41347890643E+03  0.17275073742E+03 0.  0.
         24    2    5    5    0    0 -0.27004363620E+02  0.19068205013E+01  0.32842292669E+03  0.33896657025E+03  0.79396759076E+02 0.  0.
          5    1    5    5  501    0  0.29100384521E+02 -0.52580849535E+02  0.43799773137E+02  0.74512336186E+02  0.47000000000E+01 0. -1.
        -13    1    6    6    0    0  0.78885139780E+01  0.34723816919E+02  0.15611143451E+03  0.16012105451E+03  0.00000000000E+00 0.  1.
         14    1    6    6    0    0 -0.34892877598E+02 -0.32816996417E+02  0.17231149218E+03  0.17884551574E+03  0.00000000000E+00 0. -1.
         -5    1    3    3    0  503 -0.40418789428E+02 -0.34482527752E+02  0.37472501911E+01  0.53468262951E+02  0.47000000000E+01 0.  1.
         11    1    4    4    0    0  0.23995127302E+02  0.13143476006E+02  0.59182261521E+02  0.65200131706E+02  0.00000000000E+00 0. -1.
        -12    1    4    4    0    0  0.14327641224E+02  0.72013080780E+02  0.63203536495E+01  0.73696078435E+02  0.00000000000E+00 0.  1.
</event>
<event>
12    1  0.8449700E-002  0.1818177E+03  0.7818608E-02  0.1166452E+00
         21   -1    0    0  501  502  0.00000000000E+00  0.00000000000E+00  0.16970528076E+03  0.16970528076E+03  0.00000000000E+00 0.  1.
         21   -1    0    0  502  503 -0.00000000000E+00 -0.00000000000E+00 -0.19732612457E+03  0.19732612457E+03  0.00000000000E+00 0. -1.
         -6    2    1    2    0  503 -0.10192866097E+02  0.53697713677E+02  0.13211419307E+02  0.18229707879E+03  0.17340802854E+03 0.  0.
        -24    2    3    3    0    0 -0.19149966224E+02  0.99398556993E+02 -0.10036034190E+02  0.13003494320E+03  0.81003519256E+02 0.  0.
          6    2    1    2  501    0  0.10192866097E+02 -0.53697713677E+02 -0.40832263108E+02  0.18473432654E+03  0.17167457214E+03 0.  0.
         24    2    5    5    0    0 -0.23828244790E+02  0.27051975280E+02  0.22551242928E+00  0.87854095405E+02  0.80116768577E+02 0.  0.
          5    1    5    5  501    0  0.34021110888E+02 -0.80749688957E+02 -0.41057775538E+02  0.96880231135E+02  0.47000000000E+01 0. -1.
        -13    1    6    6    0    0  0.17780955449E+02  0.31070349169E+02 -0.20439288164E+02  0.41222487489E+02  0.00000000000E+00 0.  1.
         14    1    6    6    0    0 -0.41609200239E+02 -0.40183738889E+01  0.20664800593E+02  0.46631607916E+02  0.00000000000E+00 0. -1.
         -5    1    3    3    0  503  0.89571001271E+01 -0.45700843316E+02  0.23247453496E+02  0.52262135591E+02  0.47000000000E+01 0.  1.
         11    1    4    4    0    0 -0.47551711417E+02  0.82569080251E+02  0.80744180402E+00  0.95286254173E+02  0.00000000000E+00 0. -1.
        -12    1    4    4    0    0  0.28401745192E+02  0.16829476742E+02 -0.10843475994E+02  0.34748689026E+02  0.00000000000E+00 0.  1.
</event>
<event>
12    1  0.8449700E-002  0.1852758E+03  0.7818608E-02  0.1163016E+00
         21   -1    0    0  501  502  0.00000000000E+00  0.00000000000E+00  0.10586307132E+04  0.10586307132E+04  0.00000000000E+00 0.  1.
         21   -1    0    0  502  503 -0.00000000000E+00 -0.00000000000E+00 -0.42715606729E+02  0.42715606729E+02  0.00000000000E+00 0.  1.
         -6    2    1    2    0  503  0.60365666457E+02 -0.22881622808E+02  0.23649232912E+03  0.30042592145E+03  0.17366499416E+03 0.  0.
        -24    2    3    3    0    0  0.47498156886E+02 -0.46519240755E+02  0.24870596004E+03  0.27049980301E+03  0.83038389936E+02 0.  0.
          6    2    1    2  501    0 -0.60365666457E+02  0.22881622808E+02  0.77942277738E+03  0.80092039851E+03  0.17264424838E+03 0.  0.
         24    2    5    5    0    0 -0.46404674460E+02 -0.48199701688E+02  0.55739606447E+03  0.56732798588E+03  0.81817270962E+02 0.  0.
          5    1    5    5  501    0 -0.13960991997E+02  0.71081324496E+02  0.22202671292E+03  0.23359241263E+03  0.47000000000E+01 0. -1.
        -13    1    6    6    0    0  0.70892252798E+01  0.12811996420E+02  0.21298002991E+03  0.21348278035E+03  0.00000000000E+00 0.  1.
         14    1    6    6    0    0 -0.53493899740E+02 -0.61011698108E+02  0.34441603456E+03  0.35384520553E+03  0.00000000000E+00 0. -1.
         -5    1    3    3    0  503  0.12867509571E+02  0.23637617947E+02 -0.12213630915E+02  0.29926118441E+02  0.47000000000E+01 0.  1.
         11    1    4    4    0    0  0.32500629472E+02 -0.70500645130E+02  0.17068436038E+03  0.18750942045E+03  0.00000000000E+00 0. -1.
        -12    1    4    4    0    0  0.14997527414E+02  0.23981404375E+02  0.78021599662E+02  0.82990382564E+02  0.00000000000E+00 0.  1.
</event>
<event>
12    1  0.8449700E-002  0.2027843E+03  0.7818608E-02  0.1148733E+00
         21   -1    0    0  503  502  0.00000000000E+00  0.00000000000E+00  0.57413338020E+02  0.57413338020E+02  0.00000000000E+00 0. -1.
         21   -1    0    0  501  503 -0.00000000000E+00 -0.00000000000E+00 -0.80462898896E+03  0.80462898896E+03  0.00000000000E+00 0. -1.
          6    2    1    2  501    0 -0.71860652521E+02 -0.63539530794E+02 -0.53830846173E+03  0.57523686883E+03  0.17866233496E+03 0.  0.
         24    2    3    3    0    0 -0.43841022145E+02  0.30975592172E+01 -0.12949400650E+03  0.16005383659E+03  0.83167919249E+02 0.  0.
         -6    2    1    2    0  502  0.71860652521E+02  0.63539530794E+02 -0.20890718921E+03  0.28680545815E+03  0.17150490304E+03 0.  0.
        -24    2    5    5    0    0 -0.82428359996E+00  0.10547771257E+02 -0.27222343462E+02  0.84018131891E+02  0.78778522332E+02 0.  0.
          5    1    3    3  501    0 -0.28019630376E+02 -0.66637090011E+02 -0.40881445524E+03  0.41518303224E+03  0.47000000000E+01 0. -1.
        -11    1    4    4    0    0 -0.67271700151E+02  0.11315911914E+02 -0.10471328986E+03  0.12497361552E+03  0.00000000000E+00 0.  1.
         12    1    4    4    0    0  0.23430678006E+02 -0.82183526971E+01 -0.24780716635E+02  0.35080221063E+02  0.00000000000E+00 0. -1.
         -5    1    5    5    0  502  0.72684936121E+02  0.52991759536E+02 -0.18168484574E+03  0.20278732626E+03  0.47000000000E+01 0.  1.
         13    1    6    6    0    0 -0.97808477397E+01  0.43352289032E+02 -0.86647422800E+01  0.45278733480E+02  0.00000000000E+00 0. -1.
        -14    1    6    6    0    0  0.89565641397E+01 -0.32804517774E+02 -0.18557601182E+02  0.38739398410E+02  0.00000000000E+00 0.  1.
</event>
<event>
12    1  0.8449700E-002  0.3482255E+03  0.7818608E-02  0.1063374E+00
         21   -1    0    0  501  502  0.00000000000E+00  0.00000000000E+00  0.27359841364E+04  0.27359841364E+04  0.00000000000E+00 0.  1.
         21   -1    0    0  502  503 -0.00000000000E+00 -0.00000000000E+00 -0.44293409582E+02  0.44293409582E+02  0.00000000000E+00 0. -1.
         -6    2    1    2    0  503  0.52798488078E+02 -0.29749428109E+03  0.13646458431E+04  0.14083746847E+04  0.17311974976E+03 0.  0.
        -24    2    3    3    0    0  0.40202006887E+02 -0.21393756640E+03  0.67876595626E+03  0.71729313734E+03  0.80004611301E+02 0.  0.
          6    2    1    2  501    0 -0.52798488078E+02  0.29749428109E+03  0.13270448838E+04  0.13719028613E+04  0.17256537835E+03 0.  0.
         24    2    5    5    0    0  0.30258907621E+02  0.20236571081E+03  0.92692447114E+03  0.95230017967E+03  0.76283514642E+02 0.  0.
          5    1    5    5  501    0 -0.83057395699E+02  0.95128570273E+02  0.40012041262E+03  0.41960268166E+03  0.47000000000E+01 0. -1.
        -11    1    6    6    0    0 -0.10966171589E+02  0.14964164021E+03  0.68854268639E+03  0.70470129018E+03  0.00000000000E+00 0.  1.
         12    1    6    6    0    0  0.41225079210E+02  0.52724070604E+02  0.23838178475E+03  0.24759888949E+03  0.00000000000E+00 0. -1.
         -5    1    3    3    0  503  0.12596481190E+02 -0.83556714689E+02  0.68587988681E+03  0.69108154732E+03  0.47000000000E+01 0.  1.
         11    1    4    4    0    0  0.58025776406E+02 -0.16153511642E+03  0.56956452573E+03  0.59486497084E+03  0.00000000000E+00 0. -1.
        -12    1    4    4    0    0 -0.17823769519E+02 -0.52402449973E+02  0.10920143053E+03  0.12242816650E+03  0.00000000000E+00 0.  1.
</event>
<event>
12    1  0.8449700E-002  0.1733238E+03  0.7818608E-02  0.1174513E+00
         21   -1    0    0  501  502  0.00000000000E+00  0.00000000000E+00  0.11972976798E+04  0.11972976798E+04  0.00000000000E+00 0.  1.
         21   -1    0    0  502  503 -0.00000000000E+00 -0.00000000000E+00 -0.71750835665E+02  0.71750835665E+02  0.00000000000E+00 0.  1.
         -6    2    1    2    0  503  0.21257964889E+02  0.64284446265E+01  0.51005193589E+02  0.18067286030E+03  0.17189510378E+03 0.  0.
        -24    2    3    3    0    0 -0.43222169634E+02  0.47994144369E+02  0.20101406082E+02  0.97832476272E+02  0.70679084923E+02 0.  0.
          6    2    1    2  501    0 -0.21257964889E+02 -0.64284446265E+01  0.10745416506E+04  0.10883756552E+04  0.17154760864E+03 0.  0.
         24    2    5    5    0    0  0.12636052222E+02 -0.15083788283E+02  0.10215916460E+04  0.10247398763E+04  0.77814731518E+02 0.  0.
          5    1    5    5  501    0 -0.33894017112E+02  0.86553436565E+01  0.52950004577E+02  0.63635778886E+02  0.47000000000E+01 0. -1.
        -11    1    6    6    0    0 -0.12396955334E+01 -0.44510805304E+02  0.72573794297E+03  0.72710268223E+03  0.00000000000E+00 0.  1.
         12    1    6    6    0    0  0.13875747756E+02  0.29427017021E+02  0.29585370303E+03  0.29763719408E+03  0.00000000000E+00 0. -1.
         -5    1    3    3    0  503  0.64480134523E+02 -0.41565699743E+02  0.30903787507E+02  0.82840384026E+02  0.47000000000E+01 0.  1.
         13    1    4    4    0    0 -0.91044235188E+00 -0.15642954724E+02  0.14265268529E+02  0.21190300233E+02  0.00000000000E+00 0. -1.
        -14    1    4    4    0    0 -0.42311727282E+02  0.63637099093E+02  0.58361375534E+01  0.76642176039E+02  0.00000000000E+00 0.  1.
</event>
<event>
12    1  0.8449700E-002  0.1741862E+03  0.7818608E-02  0.1173995E+00
         21   -1    0    0  501  502  0.00000000000E+00  0.00000000000E+00  0.55023180440E+02  0.55023180440E+02  0.00000000000E+00 0.  1.
         21   -1    0    0  502  503 -0.00000000000E+00 -0.00000000000E+00 -0.75639825567E+03  0.75639825567E+03  0.00000000000E+00 0. -1.
         -6    2    1    2    0  503  0.19426231134E+02 -0.17650961149E+02 -0.13538826422E+03  0.21923741725E+03  0.17042924676E+03 0.  0.
        -24    2    3    3    0    0  0.35918404717E+02  0.49328414387E+02 -0.64362704714E+02  0.12011653833E+03  0.81006177282E+02 0.  0.
          6    2    1    2  501    0 -0.19426231134E+02  0.17650961149E+02 -0.56598681101E+03  0.59218401885E+03  0.17219729111E+03 0.  0.
         24    2    5    5    0    0  0.51131666364E+01 -0.50725110332E+02 -0.22977421829E+03  0.24818043356E+03  0.78728361592E+02 0.  0.
          5    1    5    5  501    0 -0.24539397770E+02  0.68376071480E+02 -0.33621259272E+03  0.34400358529E+03  0.47000000000E+01 0. -1.
        -11    1    6    6    0    0 -0.28777450151E+01 -0.37273733720E+02 -0.22950738178E+03  0.23253225783E+03  0.00000000000E+00 0.  1.
         12    1    6    6    0    0  0.79909116514E+01 -0.13451376612E+02 -0.26683651020E+00  0.15648175724E+02  0.00000000000E+00 0. -1.
         -5    1    3    3    0  503 -0.16492173583E+02 -0.66979375535E+02 -0.71025559505E+02  0.99120878929E+02  0.47000000000E+01 0.  1.
         11    1    4    4    0    0  0.45803334522E+01  0.28578750651E+02  0.14782835578E+02  0.32500102631E+02  0.00000000000E+00 0. -1.
        -12    1    4    4    0    0  0.31338071264E+02  0.20749663735E+02 -0.79145540292E+02  0.87616435694E+02  0.00000000000E+00 0.  1.
</event>
<event>
12    1  0.8449700E-002  0.1876996E+03  0.7818608E-02  0.1163268E+00
         21   -1    0    0  503  502  0.00000000000E+00  0.00000000000E+00  0.38684703192E+03  0.38684703192E+03  0.00000000000E+00 0.  1.
         21   -1    0    0  501  503 -0.00000000000E+00 -0.00000000000E+00 -0.15522938362E+03  0.15522938362E+03  0.00000000000E+00 0.  1.
          6    2    1    2  501    0  0.68820411386E+02 -0.22438993802E+02 -0.67682749909E+02  0.18878920840E+03  0.16068806149E+03 0.  0.
         24    2    3    3    0    0  0.41314797741E+02 -0.68859485873E+02 -0.71375755643E+02  0.13450155642E+03  0.80917420112E+02 0.  0.
         -6    2    1    2    0  502 -0.68820411386E+02  0.22438993802E+02  0.29930039821E+03  0.35328720714E+03  0.17318015157E+03 0.  0.
        -24    2    5    5    0    0 -0.23700951473E+02  0.46760470130E+00  0.47229469335E+02  0.96226220635E+02  0.80417094011E+02 0.  0.
          5    1    3    3  501    0  0.27505613644E+02  0.46420492072E+02  0.36930057346E+01  0.54287651980E+02  0.47000000000E+01 0. -1.
        -11    1    4    4    0    0  0.19498999025E+02  0.16645299502E+02 -0.13538211003E+02  0.28992414795E+02  0.00000000000E+00 0.  1.
         12    1    4    4    0    0  0.21815798716E+02 -0.85504785375E+02 -0.57837544640E+02  0.10550914162E+03  0.00000000000E+00 0. -1.
         -5    1    5    5    0  502 -0.45119459912E+02  0.21971389100E+02  0.25207092887E+03  0.25706098651E+03  0.47000000000E+01 0.  1.
         11    1    6    6    0    0 -0.17943366455E+02  0.27521221665E+02  0.57906609874E+02  0.66577454959E+02  0.00000000000E+00 0. -1.
        -12    1    6    6    0    0 -0.57575850185E+01 -0.27053616964E+02 -0.10677140539E+02  0.29648765677E+02  0.00000000000E+00 0.  1.
</event>
<event>
12    1  0.8449700E-002  0.1912320E+03  0.7818608E-02  0.1157900E+00
         21   -1    0    0  501  502  0.00000000000E+00  0.00000000000E+00  0.13559322516E+04  0.13559322516E+04  0.00000000000E+00 0. -1.
         21   -1    0    0  502  503 -0.00000000000E+00 -0.00000000000E+00 -0.90477549218E+02  0.90477549218E+02  0.00000000000E+00 0. -1.
         -6    2    1    2    0  503  0.14081019544E+02  0.79972774560E+02  0.26392294875E+02  0.19304460755E+03  0.17313505564E+03 0.  0.
        -24    2    3    3    0    0  0.14245670917E+02  0.10448168980E+03  0.63810701663E+02  0.14806748889E+03  0.82053720055E+02 0.  0.
          6    2    1    2  501    0 -0.14081019544E+02 -0.79972774560E+02  0.12390624075E+04  0.12533651933E+04  0.17045450484E+03 0.  0.
         24    2    5    5    0    0  0.37213000302E+02  0.59474218542E+01  0.60389735808E+03  0.61034879641E+03  0.80084049340E+02 0.  0.
          5    1    5    5  501    0 -0.51294019846E+02 -0.85920196415E+02  0.63516504946E+03  0.64301639689E+03  0.47000000000E+01 0. -1.
        -11    1    6    6    0    0  0.52488927258E+02  0.20250941656E+02  0.27015254690E+03  0.27594852186E+03  0.00000000000E+00 0.  1.
         12    1    6    6    0    0 -0.15275926955E+02 -0.14303519802E+02  0.33374481119E+03  0.33440027455E+03  0.00000000000E+00 0. -1.
         -5    1    3    3    0  503 -0.16465137312E+00 -0.24508915244E+02 -0.37418406788E+02  0.44977118661E+02  0.47000000000E+01 0.  1.
         13    1    4    4    0    0  0.18342822097E+02  0.15889909511E+02  0.53546216956E+02  0.58788992992E+02  0.00000000000E+00 0. -1.
        -14    1    4    4    0    0 -0.40971511798E+01  0.88591780293E+02  0.10264484707E+02  0.89278495897E+02  0.00000000000E+00 0.  1.
</event>
<event>
12    1  0.8449700E-002  0.2005807E+03  0.7818608E-02  0.1149746E+00
         21   -1    0    0  501  502  0.00000000000E+00  0.00000000000E+00  0.45700608231E+03  0.45700608231E+03  0.00000000000E+00 0.  1.
         21   -1    0    0  502  503 -0.00000000000E+00 -0.00000000000E+00 -0.13197378668E+03  0.13197378668E+03  0.00000000000E+00 0.  1.
         -6    2    1    2    0  503  0.96358869972E+02 -0.25736098803E+02 -0.10008479783E+02  0.19848667913E+03  0.17131670531E+03 0.  0.
        -24    2    3    3    0    0  0.48212396961E+02 -0.54982156279E+02 -0.59230373779E+02  0.12353136184E+03  0.80026792075E+02 0.  0.
          6    2    1    2  501    0 -0.96358869972E+02  0.25736098803E+02  0.33504077542E+03  0.39049318987E+03  0.17402652538E+03 0.  0.
         24    2    5    5    0    0 -0.82169465926E+02  0.63154138103E+02  0.32277102904E+03  0.34837329518E+03  0.80265492682E+02 0.  0.
          5    1    5    5  501    0 -0.14189404046E+02 -0.37418039300E+02  0.12269746373E+02  0.42119894686E+02  0.47000000000E+01 0. -1.
        -13    1    6    6    0    0 -0.86411331869E+02  0.76428103743E+02  0.26639767613E+03  0.29030310912E+03  0.00000000000E+00 0.  1.
         14    1    6    6    0    0  0.42418659430E+01 -0.13273965640E+02  0.56373352917E+02  0.58070186065E+02  0.00000000000E+00 0. -1.
         -5    1    3    3    0  503  0.48146473011E+02  0.29246057476E+02  0.49221893996E+02  0.74955317289E+02  0.47000000000E+01 0.  1.
         11    1    4    4    0    0  0.10809329421E+02  0.17742323775E+02 -0.30395833579E+02  0.36817636459E+02  0.00000000000E+00 0. -1.
        -12    1    4    4    0    0  0.37403067540E+02 -0.72724480054E+02 -0.28834540200E+02  0.86713725379E+02  0.00000000000E+00 0.  1.
</event>
<event>
12    1  0.8449700E-002  0.2111216E+03  0.7818608E-02  0.1140732E+00
         21   -1    0    0  503  502  0.00000000000E+00  0.00000000000E+00  0.17677180264E+03  0.17677180264E+03  0.00000000000E+00 0. -1.
         21   -1    0    0  501  503 -0.00000000000E+00 -0.00000000000E+00 -0.51311052379E+03  0.51311052379E+03  0.00000000000E+00 0. -1.
          6    2    1    2  501    0  0.10178092151E+03  0.66244728891E+02 -0.41436269517E+03  0.46504707935E+03  0.17269806824E+03 0.  0.
         24    2    3    3    0    0  0.84035018643E+02 -0.24561553734E+02 -0.18345015936E+03  0.21624316615E+03  0.73769856007E+02 0.  0.
         -6    2    1    2    0  502 -0.10178092151E+03 -0.66244728891E+02  0.78023974012E+02  0.22483524708E+03  0.17238163393E+03 0.  0.
        -24    2    5    5    0    0 -0.12077422675E+03 -0.93036723590E+02  0.43002959444E+02  0.17659503475E+03  0.78066036127E+02 0.  0.
          5    1    3    3  501    0  0.17745902872E+02  0.90806282625E+02 -0.23091253580E+03  0.24880391320E+03  0.47000000000E+01 0. -1.
        -11    1    4    4    0    0  0.17057735884E+01 -0.29032453967E+02 -0.71657125853E+02  0.77333930021E+02  0.00000000000E+00 0.  1.
         12    1    4    4    0    0  0.82329245054E+02  0.44709002337E+01 -0.11179303351E+03  0.13890923613E+03  0.00000000000E+00 0. -1.
         -5    1    5    5    0  502  0.18993305230E+02  0.26791994699E+02  0.35021014568E+02  0.48240212322E+02  0.47000000000E+01 0.  1.
         13    1    6    6    0    0 -0.63127941807E+02 -0.64593820282E+02  0.62016461850E+02  0.10956066902E+03  0.00000000000E+00 0. -1.
        -14    1    6    6    0    0 -0.57646284938E+02 -0.28442903308E+02 -0.19013502406E+02  0.67034365735E+02  0.00000000000E+00 0.  1.
</event>
<event>
12    1  0.8449700E-002  0.2510573E+03  0.7818608E-02  0.1112670E+00
         21   -1    0    0  501  502  0.00000000000E+00  0.00000000000E+00  0.77970244077E+02  0.77970244077E+02  0.00000000000E+00 0.  1.
         21   -1    0    0  502  503 -0.00000000000E+00 -0.00000000000E+00 -0.99269359038E+03  0.99269359038E+03  0.00000000000E+00 0.  1.
         -6    2    1    2    0  503  0.10993342385E+03 -0.14526503750E+03 -0.68857646512E+03  0.73291700147E+03  0.17274980152E+03 0.  0.
        -24    2    3    3    0    0  0.39877797816E+02 -0.77391989958E+02 -0.55538485518E+03  0.56776060201E+03  0.79498458918E+02 0.  0.
          6    2    1    2  501    0 -0.10993342385E+03  0.14526503750E+03 -0.22614688118E+03  0.33774683299E+03  0.17246223508E+03 0.  0.
         24    2    5    5    0    0  0.12926561456E+02  0.61681896711E+02 -0.10428518076E+03  0.14551499005E+03  0.79545339450E+02 0.  0.
          5    1    5    5  501    0 -0.12285998530E+03  0.83583140790E+02 -0.12186170042E+03  0.19223184295E+03  0.47000000000E+01 0. -1.
        -11    1    6    6    0    0 -0.11961471068E+02 -0.14341915689E+02 -0.79496433989E+01  0.20296900402E+02  0.00000000000E+00 0.  1.
         12    1    6    6    0    0  0.24888032524E+02  0.76023812400E+02 -0.96335537364E+02  0.12521808964E+03  0.00000000000E+00 0. -1.
         -5    1    3    3    0  503  0.70055626031E+02 -0.67873047544E+02 -0.13319160994E+03  0.16515639946E+03  0.47000000000E+01 0.  1.
         11    1    4    4    0    0 -0.41088690763E+01  0.14409100416E+02 -0.48762130782E+02  0.51012257138E+02  0.00000000000E+00 0. -1.
        -12    1    4    4    0    0  0.43986666892E+02 -0.91801090374E+02 -0.50662272439E+03  0.51674834487E+03  0.00000000000E+00 0.  1.
</event>
<event>
12    1  0.8449700E-002  0.2032404E+03  0.7818608E-02  0.1147385E+00
         21   -1    0    0  501  502  0.00000000000E+00  0.00000000000E+00  0.76398719243E+02  0.76398719243E+02  0.00000000000E+00 0.  1.
         21   -1    0    0  502  503 -0.00000000000E+00 -0.00000000000E+00 -0.55496131788E+03  0.55496131788E+03  0.00000000000E+00 0.  1.
         -6    2    1    2    0  503  0.59558937604E+02  0.84341950226E+02 -0.29832591610E+03  0.36097788091E+03  0.17505955179E+03 0.  0.
        -24    2    3    3    0    0  0.19249087019E+02  0.36127932607E+02 -0.28145178527E+03  0.29573754185E+03  0.81054496258E+02 0.  0.
          6    2    1    2  501    0 -0.59558937604E+02 -0.84341950226E+02 -0.18023668254E+03  0.27038215622E+03  0.17309077691E+03 0.  0.
         24    2    5    5    0    0 -0.94496628796E+02 -0.99515089741E+02 -0.11888609226E+03  0.19801606362E+03  0.79016407041E+02 0.  0.
          5    1    5    5  501    0  0.34937691192E+02  0.15173139514E+02 -0.61350590289E+02  0.72366092594E+02  0.47000000000E+01 0. -1.
        -13    1    6    6    0    0 -0.91284230376E+02 -0.43279402008E+02 -0.86792429435E+02  0.13318724849E+03  0.00000000000E+00 0.  1.
         14    1    6    6    0    0 -0.32123984206E+01 -0.56235687733E+02 -0.32093662821E+02  0.64828815134E+02  0.00000000000E+00 0. -1.
         -5    1    3    3    0  503  0.40309850585E+02  0.48214017619E+02 -0.16874130828E+02  0.65240339057E+02  0.47000000000E+01 0.  1.
         13    1    4    4    0    0  0.69618855559E+01 -0.11901174071E+02 -0.46796333999E+01  0.14560383358E+02  0.00000000000E+00 0. -1.
        -14    1    4    4    0    0  0.12287201463E+02  0.48029106679E+02 -0.27677215187E+03  0.28117715849E+03  0.00000000000E+00 0.  1.
</event>
<event>
12    1  0.8449700E-002  0.1795661E+03  0.7818608E-02  0.1168790E+00
         21   -1    0    0  503  502  0.00000000000E+00  0.00000000000E+00  0.19150611355E+03  0.19150611355E+03  0.00000000000E+00 0. -1.
         21   -1    0    0  501  503 -0.00000000000E+00 -0.00000000000E+00 -0.19907869171E+03  0.19907869171E+03  0.00000000000E+00 0. -1.
          6    2    1    2  501    0 -0.41788565852E+02  0.13924579694E+01 -0.83125086634E+02  0.19577160794E+03  0.17224552033E+03 0.  0.
         24    2    3    3    0    0 -0.89735743107E+02 -0.16671839344E+02 -0.33842371025E+02  0.12452466624E+03  0.77657147824E+02 0.  0.
         -6    2    1    2    0  502  0.41788565852E+02 -0.13924579694E+01  0.75552508480E+02  0.19481319732E+03  0.17463040152E+03 0.  0.
        -24    2    5    5    0    0  0.29752058071E+02  0.48077864785E+02 -0.53910373345E+01  0.99073247649E+02  0.81177454225E+02 0.  0.
          5    1    3    3  501    0  0.47947177255E+02  0.18064297313E+02 -0.49282715609E+02  0.71246941702E+02  0.47000000000E+01 0. -1.
        -11    1    4    4    0    0 -0.75314104441E+02 -0.20409700913E+02  0.95810863846E+01  0.78616584990E+02  0.00000000000E+00 0.  1.
         12    1    4    4    0    0 -0.14421638666E+02  0.37378615692E+01 -0.43423457409E+02  0.45908081253E+02  0.00000000000E+00 0. -1.
         -5    1    5    5    0  502  0.12036507781E+02 -0.49470322754E+02  0.80943545815E+02  0.95739949666E+02  0.47000000000E+01 0.  1.
         13    1    6    6    0    0 -0.18183110714E+02 -0.11826281834E+02 -0.53930910976E+01  0.22351104869E+02  0.00000000000E+00 0. -1.
        -14    1    6    6    0    0  0.47935168785E+02  0.59904146619E+02  0.20537631161E-02  0.76722142781E+02  0.00000000000E+00 0.  1.
</event>
<event>
12    1  0.8449700E-002  0.2402140E+03  0.7818608E-02  0.1119946E+00
         21   -1    0    0  501  502  0.00000000000E+00  0.00000000000E+00  0.35221206201E+03  0.35221206201E+03  0.00000000000E+00 0. -1.
         21   -1    0    0  502  503 -0.00000000000E+00 -0.00000000000E+00 -0.17449354699E+03  0.17449354699E+03  0.00000000000E+00 0. -1.
         -6    2    1    2    0  503  0.88631428614E+02  0.13864685383E+03  0.15723420124E+03  0.28561983802E+03  0.17256192401E+03 0.  0.
        -24    2    3    3    0    0  0.12753893832E+03  0.10001123358E+03  0.98964549340E+02  0.20547030405E+03  0.78457862506E+02 0.  0.
          6    2    1    2  501    0 -0.88631428614E+02 -0.13864685383E+03  0.20484313783E+02  0.24108577097E+03  0.17499789039E+03 0.  0.
         24    2    5    5    0    0 -0.10821939094E+03 -0.46924514034E+02  0.10200823871E+02  0.14661611421E+03  0.86480526972E+02 0.  0.
          5    1    5    5  501    0  0.19587962322E+02 -0.91722339793E+02  0.10283489912E+02  0.94469656767E+02  0.47000000000E+01 0. -1.
        -11    1    6    6    0    0  0.99776008169E+01 -0.18100285345E+02 -0.10539091223E+02  0.23200114040E+02  0.00000000000E+00 0.  1.
         12    1    6    6    0    0 -0.11819699175E+03 -0.28824228689E+02  0.20739915094E+02  0.12341600017E+03  0.00000000000E+00 0. -1.
         -5    1    3    3    0  503 -0.38907509709E+02  0.38635620251E+02  0.58269651896E+02  0.80149533973E+02  0.47000000000E+01 0.  1.
         13    1    4    4    0    0  0.68296450371E+02  0.69095149075E+01  0.48966146294E+02  0.84319807948E+02  0.00000000000E+00 0. -1.
        -14    1    4    4    0    0  0.59242487952E+02  0.93101718668E+02  0.49998403046E+02  0.12115049610E+03  0.00000000000E+00 0.  1.
</event>
<event>
12    1  0.8449700E-002  0.1844847E+03  0.7818608E-02  0.1163569E+00
         21   -1    0    0  503  502  0.00000000000E+00  0.00000000000E+00  0.14880616122E+03  0.14880616122E+03  0.00000000000E+00 0.  1.
         21   -1    0    0  501  503 -0.00000000000E+00 -0.00000000000E+00 -0.45957770280E+03  0.45957770280E+03  0.00000000000E+00 0.  1.
          6    2    1    2  501    0 -0.15057757717E+02  0.66617677081E+02  0.60334634512E+02  0.19395124442E+03  0.17120796162E+03 0.  0.
         24    2    3    3    0    0 -0.56476971455E+02  0.55434079191E+02  0.87775326763E+02  0.14280727390E+03  0.80167475021E+02 0.  0.
         -6    2    1    2    0  502  0.15057757717E+02 -0.66617677081E+02 -0.37110617609E+03  0.41443261960E+03  0.17137663576E+03 0.  0.
        -24    2    5    5    0    0 -0.32726885978E+02  0.73719731162E+01 -0.12118326265E+03  0.14940169088E+03  0.80685110398E+02 0.  0.
          5    1    3    3  501    0  0.41419213738E+02  0.11183597891E+02 -0.27440692252E+02  0.51143970511E+02  0.47000000000E+01 0. -1.
        -13    1    4    4    0    0 -0.54885170089E+02  0.10153454605E+02  0.78884562232E+02  0.96634614371E+02  0.00000000000E+00 0.  1.
         14    1    4    4    0    0 -0.15918013656E+01  0.45280624585E+02  0.88907645311E+01  0.46172659533E+02  0.00000000000E+00 0. -1.
         -5    1    5    5    0  502  0.47784643695E+02 -0.73989650197E+02 -0.24992291345E+03  0.26503092871E+03  0.47000000000E+01 0.  1.
         11    1    6    6    0    0  0.14322093392E+02  0.77311221710E+01  0.30486032580E+01  0.16558580585E+02  0.00000000000E+00 0. -1.
        -12    1    6    6    0    0 -0.47048979370E+02 -0.35914905481E+00 -0.12423186590E+03  0.13284311030E+03  0.00000000000E+00 0.  1.
</event>
<event>
12    1  0.8449700E-002  0.3252528E+03  0.7818608E-02  0.1073278E+00
         21   -1    0    0  503  502  0.00000000000E+00  0.00000000000E+00  0.27094798401E+03  0.27094798401E+03  0.00000000000E+00 0. -1.
         21   -1    0    0  501  503 -0.00000000000E+00 -0.00000000000E+00 -0.43631961598E+03  0.43631961598E+03  0.00000000000E+00 0. -1.
          6    2    1    2  501    0 -0.34456122092E+01 -0.27522187036E+03 -0.19761341708E+03  0.38042066003E+03  0.17294469000E+03 0.  0.
         24    2    3    3    0    0 -0.33531338851E+02 -0.16159094139E+03 -0.45749494130E+02  0.18832203937E+03  0.78333845016E+02 0.  0.
         -6    2    1    2    0  502  0.34456122092E+01  0.27522187036E+03  0.32241785106E+02  0.32684693997E+03  0.17329292914E+03 0.  0.
        -24    2    5    5    0    0  0.13574645631E+02  0.10233998382E+03 -0.43839306914E+02  0.13763497794E+03  0.79773172367E+02 0.  0.
          5    1    3    3  501    0  0.30085726642E+02 -0.11363092897E+03 -0.15186392295E+03  0.19209862066E+03  0.47000000000E+01 0. -1.
        -11    1    4    4    0    0 -0.32763757642E+02 -0.18694670081E+02  0.16763000187E+01  0.37759296683E+02  0.00000000000E+00 0.  1.
         12    1    4    4    0    0 -0.76758120930E+00 -0.14289627131E+03 -0.47425794149E+02  0.15056274269E+03  0.00000000000E+00 0. -1.
         -5    1    5    5    0  502 -0.10129033422E+02  0.17288188653E+03  0.76081092020E+02  0.18921196202E+03  0.47000000000E+01 0.  1.
         13    1    6    6    0    0 -0.42803352199E+01  0.23057081598E+02  0.22672419578E+02  0.32618842575E+02  0.00000000000E+00 0. -1.
        -14    1    6    6    0    0  0.17854980851E+02  0.79282902225E+02 -0.66511726492E+02  0.10501613537E+03  0.00000000000E+00 0.  1.
</event>
<event>
12    1  0.8449700E-002  0.2376208E+03  0.7818608E-02  0.1121639E+00
         21   -1    0    0  503  502  0.00000000000E+00  0.00000000000E+00  0.61836120739E+03  0.61836120739E+03  0.00000000000E+00 0. -1.
         21   -1    0    0  501  503 -0.00000000000E+00 -0.00000000000E+00 -0.10638851417E+04  0.10638851417E+04  0.00000000000E+00 0. -1.
          6    2    1    2  501    0  0.22060343545E+02 -0.15951935266E+03 -0.10271547044E+04  0.10539486649E+04  0.17270761122E+03 0.  0.
         24    2    3    3    0    0  0.30922871493E+00 -0.14014146106E+03 -0.48873664337E+03  0.51472263432E+03  0.80225675309E+02 0.  0.
         -6    2    1    2    0  502 -0.22060343545E+02  0.15951935266E+03  0.58163077009E+03  0.62829768413E+03  0.17472991884E+03 0.  0.
        -24    2    5    5    0    0 -0.73399726983E+02  0.82533967706E+02  0.42571824033E+03  0.44693261383E+03  0.79456688904E+02 0.  0.
          5    1    3    3  501    0  0.21751114830E+02 -0.19377891600E+02 -0.53841806100E+03  0.53922603061E+03  0.47000000000E+01 0. -1.
        -11    1    4    4    0    0  0.15019987001E+02  0.41408565702E+01 -0.65471969658E+02  0.67300263845E+02  0.00000000000E+00 0.  1.
         12    1    4    4    0    0 -0.14710758286E+02 -0.14428231763E+03 -0.42326467372E+03  0.44742237048E+03  0.00000000000E+00 0. -1.
         -5    1    5    5    0  502  0.51339383438E+02  0.76985384949E+02  0.15591252977E+03  0.18136507030E+03  0.47000000000E+01 0.  1.
         13    1    6    6    0    0 -0.74811322713E+02  0.35039779876E+02  0.20229350812E+03  0.21851128943E+03  0.00000000000E+00 0. -1.
        -14    1    6    6    0    0  0.14115957304E+01  0.47494187830E+02  0.22342473221E+03  0.22842132440E+03  0.00000000000E+00 0.  1.
</event>
<event>
12    1  0.8449700E-002  0.1953035E+03  0.7818608E-02  0.1153809E+00
         21   -1    0    0  501  502  0.00000000000E+00  0.00000000000E+00  0.80415827007E+02  0.80415827007E+02  0.00000000000E+00 0. -1.
         21   -1    0    0  502  503 -0.00000000000E+00 -0.00000000000E+00 -0.61721355062E+03  0.61721355062E+03  0.00000000000E+00 0. -1.
         -6    2    1    2    0  503  0.94161426250E+02  0.47591551611E+01 -0.43641749061E+03  0.47803961328E+03  0.17079994730E+03 0.  0.
        -24    2    3    3    0    0  0.60010976290E+02 -0.49603040890E+02 -0.36660935954E+03  0.38308295603E+03  0.79299115739E+02 0.  0.
          6    2    1    2  501    0 -0.94161426250E+02 -0.47591551611E+01 -0.10038023300E+03  0.21958976435E+03  0.17103932203E+03 0.  0.
         24    2    5    5    0    0 -0.31937607508E+02  0.48398398617E+02 -0.13230916021E+02  0.99946032411E+02  0.80322702233E+02 0.  0.
          5    1    5    5  501    0 -0.62223818743E+02 -0.53157553778E+02 -0.87149316981E+02  0.11964373194E+03  0.47000000000E+01 0. -1.
        -13    1    6    6    0    0 -0.15130099471E+02 -0.20029205962E+02  0.80165911374E+01  0.26350611662E+02  0.00000000000E+00 0.  1.
         14    1    6    6    0    0 -0.16807508037E+02  0.68427604579E+02 -0.21247507158E+02  0.73595420750E+02  0.00000000000E+00 0. -1.
         -5    1    3    3    0  503  0.34150449961E+02  0.54362196051E+02 -0.69808131077E+02  0.94956657252E+02  0.47000000000E+01 0.  1.
         13    1    4    4    0    0  0.24172550108E+02  0.97471181271E+01 -0.31538891049E+02  0.40914791202E+02  0.00000000000E+00 0. -1.
        -14    1    4    4    0    0  0.35838426182E+02 -0.59350159017E+02 -0.33507046849E+03  0.34216816482E+03  0.00000000000E+00 0.  1.
</event>
<event>
12    1  0.8449700E-002  0.2117509E+03  0.7818608E-02  0.1140367E+00
         21   -1    0    0  501  502  0.00000000000E+00  0.00000000000E+00  0.52208097883E+02  0.52208097883E+02  0.00000000000E+00 0.  1.
         21   -1    0    0  502  503 -0.00000000000E+00 -0.00000000000E+00 -0.14585190270E+04  0.14585190270E+04  0.00000000000E+00 0. -1.
         -6    2    1    2    0  503 -0.11336445855E+03 -0.43961666311E+02 -0.11881089466E+04  0.12066702800E+04  0.17223869191E+03 0.  0.
        -24    2    3    3    0    0 -0.30109434391E+02 -0.72064435140E+02 -0.85294978787E+03  0.86015200289E+03  0.78982698128E+02 0.  0.
          6    2    1    2  501    0  0.11336445855E+03  0.43961666311E+02 -0.21820198256E+03  0.30405684497E+03  0.17336185050E+03 0.  0.
         24    2    5    5    0    0  0.15943096772E+02  0.26600037768E+02 -0.17828224652E+03  0.19724849697E+03  0.78489908831E+02 0.  0.
          5    1    5    5  501    0  0.97421361776E+02  0.17361628543E+02 -0.39919736044E+02  0.10680834800E+03  0.47000000000E+01 0. -1.
        -11    1    6    6    0    0  0.22887705175E+02 -0.68901203614E+01 -0.10658752913E+02  0.26171163910E+02  0.00000000000E+00 0.  1.
         12    1    6    6    0    0 -0.69446084023E+01  0.33490158129E+02 -0.16762349361E+03  0.17107733306E+03  0.00000000000E+00 0. -1.
         -5    1    3    3    0  503 -0.83255024158E+02  0.28102768829E+02 -0.33515915872E+03  0.34651827706E+03  0.47000000000E+01 0.  1.
         11    1    4    4    0    0 -0.49431996342E+02 -0.32869396147E+02 -0.64108132032E+03  0.64382387244E+03  0.00000000000E+00 0. -1.
        -12    1    4    4    0    0  0.19322561950E+02 -0.39195038994E+02 -0.21186846755E+03  0.21632813045E+03  0.00000000000E+00 0.  1.
</event>
<event>
12    1  0.8449700E-002  0.2311540E+03  0.7818608E-02  0.1126064E+00
         21   -1    0    0  501  502  0.00000000000E+00  0.00000000000E+00  0.35124535614E+03  0.35124535614E+03  0.00000000000E+00 0.  1.
         21   -1    0    0  502  503 -0.00000000000E+00 -0.00000000000E+00 -0.15129630315E+03  0.15129630315E+03  0.00000000000E+00 0.  1.
         -6    2    1    2    0  503  0.12322791503E+03 -0.89273275786E+02  0.95121745371E+02  0.24872881784E+03  0.17222961873E+03 0.  0.
        -24    2    3    3    0    0  0.27208849441E+02 -0.79346458217E+02  0.26741880429E+01  0.11498711335E+03  0.78604726546E+02 0.  0.
          6    2    1    2  501    0 -0.12322791503E+03  0.89273275786E+02  0.10482730762E+03  0.25381284146E+03  0.17400390012E+03 0.  0.
         24    2    5    5    0    0 -0.14233704947E+03  0.10784001963E+03  0.11352190722E+03  0.22539508190E+03  0.77629981567E+02 0.  0.
          5    1    5    5  501    0  0.19109134443E+02 -0.18566743849E+02 -0.86945995995E+01  0.28417759562E+02  0.47000000000E+01 0. -1.
        -11    1    6    6    0    0 -0.16124658976E+02  0.55145322225E+02  0.41027032667E+02  0.70599069398E+02  0.00000000000E+00 0.  1.
         12    1    6    6    0    0 -0.12621239050E+03  0.52694697410E+02  0.72494874553E+02  0.15479601250E+03  0.00000000000E+00 0. -1.
         -5    1    3    3    0  503  0.96019065588E+02 -0.99268175694E+01  0.92447557328E+02  0.13374170449E+03  0.47000000000E+01 0.  1.
         11    1    4    4    0    0 -0.21359431945E+02 -0.20126250772E+01 -0.83128160103E+01  0.23008235542E+02  0.00000000000E+00 0. -1.
        -12    1    4    4    0    0  0.48568281386E+02 -0.77333833139E+02  0.10987004053E+02  0.91978877808E+02  0.00000000000E+00 0.  1.
</event>
<event>
12    1  0.8449700E-002  0.2608190E+03  0.7818608E-02  0.1106700E+00
         21   -1    0    0  503  502  0.00000000000E+00  0.00000000000E+00  0.16721413015E+03  0.16721413015E+03  0.00000000000E+00 0.  1.
         21   -1    0    0  501  503 -0.00000000000E+00 -0.00000000000E+00 -0.47264366484E+03  0.47264366484E+03  0.00000000000E+00 0.  1.
          6    2    1    2  501    0 -0.13896809199E+02  0.19531890343E+03 -0.27263716894E+03  0.37730306323E+03  0.17229039524E+03 0.  0.
         24    2    3    3    0    0 -0.59580364827E+02  0.66029147960E+02 -0.16058155386E+03  0.20015516176E+03  0.79787123558E+02 0.  0.
         -6    2    1    2    0  502  0.13896809199E+02 -0.19531890343E+03 -0.32792365749E+02  0.26255473175E+03  0.17180527515E+03 0.  0.
        -24    2    5    5    0    0 -0.18496478212E+02 -0.13117448245E+03 -0.81967436933E+02  0.17535318682E+03  0.80505992690E+02 0.  0.
          5    1    3    3  501    0  0.45683555628E+02  0.12928975547E+03 -0.11205561508E+03  0.17714790147E+03  0.47000000000E+01 0. -1.
        -11    1    4    4    0    0 -0.13687776505E+02  0.71308864349E+02 -0.10830005201E+03  0.13038869056E+03  0.00000000000E+00 0.  1.
         12    1    4    4    0    0 -0.45892588322E+02 -0.52797163889E+01 -0.52281501852E+02  0.69766471202E+02  0.00000000000E+00 0. -1.
         -5    1    5    5    0  502  0.32393287411E+02 -0.64144420984E+02  0.49175071184E+02  0.87201544933E+02  0.47000000000E+01 0.  1.
         11    1    6    6    0    0 -0.52136965221E+01  0.30871308332E+01 -0.30270096861E+02  0.30870564818E+02  0.00000000000E+00 0. -1.
        -12    1    6    6    0    0 -0.13282781690E+02 -0.13426161328E+03 -0.51697340073E+02  0.14448262200E+03  0.00000000000E+00 0.  1.
</event>
<event>
12    1  0.8449700E-002  0.2612741E+03  0.7818608E-02  0.1106643E+00
         21   -1    0    0  503  502  0.00000000000E+00  0.00000000000E+00  0.44212511203E+03  0.44212511203E+03  0.00000000000E+00 0.  1.
         21   -1    0    0  501  503 -0.00000000000E+00 -0.00000000000E+00 -0.16136565316E+03  0.16136565316E+03  0.00000000000E+00 0. -1.
          6    2    1    2  501    0  0.16329599387E+03 -0.10978878938E+03  0.20712436122E+03  0.33203857350E+03  0.16920388114E+03 0.  0.
         24    2    3    3    0    0  0.13002575143E+03 -0.87347659586E+02  0.22729058763E+03  0.28688018529E+03  0.78121186744E+02 0.  0.
         -6    2    1    2    0  502 -0.16329599387E+03  0.10978878938E+03  0.73635097645E+02  0.27145219168E+03  0.17188660470E+03 0.  0.
        -24    2    5    5    0    0 -0.10934211461E+03  0.10450061157E+03 -0.10200135457E+02  0.17150509457E+03  0.80211463352E+02 0.  0.
          5    1    3    3  501    0  0.33270242444E+02 -0.22441129792E+02 -0.20166226405E+02  0.45158388214E+02  0.47000000000E+01 0. -1.
        -13    1    4    4    0    0  0.10603290860E+03 -0.30578824109E+02  0.17035702144E+03  0.20297673990E+03  0.00000000000E+00 0.  1.
         14    1    4    4    0    0  0.23992842835E+02 -0.56768835477E+02  0.56933566191E+02  0.83903445388E+02  0.00000000000E+00 0. -1.
         -5    1    5    5    0  502 -0.53953879260E+02  0.52881778033E+01  0.83835233101E+02  0.99947097110E+02  0.47000000000E+01 0.  1.
         13    1    6    6    0    0 -0.42625223091E+02  0.47204359767E+02  0.35032164548E+02  0.72611388759E+02  0.00000000000E+00 0. -1.
        -14    1    6    6    0    0 -0.66716891524E+02  0.57296251807E+02 -0.45232300005E+02  0.98893705813E+02  0.00000000000E+00 0.  1.
</event>
<event>
12    1  0.8449700E-002  0.1800981E+03  0.7818608E-02  0.1167841E+00
         21   -1    0    0  501  502  0.00000000000E+00  0.00000000000E+00  0.13323186821E+03  0.13323186821E+03  0.00000000000E+00 0. -1.
         21   -1    0    0  502  503 -0.00000000000E+00 -0.00000000000E+00 -0.25759285421E+03  0.25759285421E+03  0.00000000000E+00 0. -1.
         -6    2    1    2    0  503  0.77046812435E+01 -0.52390514352E+02 -0.10924392079E+03  0.21064084693E+03  0.17213716641E+03 0.  0.
        -24    2    3    3    0    0  0.18137848747E+02 -0.85851255540E+02 -0.12480707654E+03  0.17200441332E+03  0.79431053208E+02 0.  0.
          6    2    1    2  501    0 -0.77046812435E+01  0.52390514352E+02 -0.15117065204E+02  0.18018387549E+03  0.17156216138E+03 0.  0.
         24    2    5    5    0    0  0.45265309782E+02  0.16229794463E+02 -0.50365603056E+02  0.10684925179E+03  0.81041434703E+02 0.  0.
          5    1    5    5  501    0 -0.52969991026E+02  0.36160719889E+02  0.35248537852E+02  0.73334623698E+02  0.47000000000E+01 0. -1.
        -11    1    6    6    0    0  0.79087566177E+01 -0.25135011418E+02  0.65876599442E+01  0.27160900092E+02  0.00000000000E+00 0.  1.
         12    1    6    6    0    0  0.37356553165E+02  0.41364805881E+02 -0.56953263000E+02  0.79688351698E+02  0.00000000000E+00 0. -1.
         -5    1    3    3    0  503 -0.10433167503E+02  0.33460741188E+02  0.15563155746E+02  0.38636433606E+02  0.47000000000E+01 0.  1.
         11    1    4    4    0    0  0.46568497344E+02 -0.40005426012E+02 -0.85495168359E+02  0.10525437220E+03  0.00000000000E+00 0. -1.
        -12    1    4    4    0    0 -0.28430648598E+02 -0.45845829528E+02 -0.39311908180E+02  0.66750041120E+02  0.00000000000E+00 0.  1.
</event>
<event>
12    1  0.8449700E-002  0.2069120E+03  0.7818608E-02  0.1144082E+00
         21   -1    0    0  503  502  0.00000000000E+00  0.00000000000E+00  0.74076560546E+02  0.74076560546E+02  0.00000000000E+00 0. -1.
         21   -1    0    0  501  503 -0.00000000000E+00 -0.00000000000E+00 -0.58170505207E+03  0.58170505207E+03  0.00000000000E+00 0. -1.
          6    2    1    2  501    0 -0.27823447508E+02  0.11142590688E+03 -0.22511704472E+03  0.30560265714E+03  0.17182963444E+03 0.  0.
         24    2    3    3    0    0 -0.91137288755E+01  0.95788698580E+01 -0.16871568643E+03  0.18759386196E+03  0.80942321422E+02 0.  0.
         -6    2    1    2    0  502  0.27823447508E+02 -0.11142590688E+03 -0.28251144680E+03  0.35017895548E+03  0.17211248162E+03 0.  0.
        -24    2    5    5    0    0  0.82641667082E+02 -0.64106447566E+02 -0.15075051139E+03  0.19975554464E+03  0.78976446944E+02 0.  0.
          5    1    3    3  501    0 -0.18709718633E+02  0.10184703702E+03 -0.56401358290E+02  0.11800879517E+03  0.47000000000E+01 0. -1.
        -13    1    4    4    0    0  0.10379688758E+02 -0.13098380929E+02 -0.47813516109E+00  0.16719274353E+02  0.00000000000E+00 0.  1.
         14    1    4    4    0    0 -0.19493417633E+02  0.22677250787E+02 -0.16823755127E+03  0.17087458761E+03  0.00000000000E+00 0. -1.
         -5    1    5    5    0  502 -0.54818219574E+02 -0.47319459315E+02 -0.13176093541E+03  0.15042341084E+03  0.47000000000E+01 0.  1.
         13    1    6    6    0    0  0.33220865163E+02 -0.72600846878E+02 -0.79888906298E+02  0.11294576663E+03  0.00000000000E+00 0. -1.
        -14    1    6    6    0    0  0.49420801919E+02  0.84943993127E+01 -0.70861605096E+02  0.86809778013E+02  0.00000000000E+00 0.  1.
</event>
<event>
12    1  0.8449700E-002  0.1749231E+03  0.7818608E-02  0.1173228E+00
         21   -1    0    0  501  502  0.00000000000E+00  0.00000000000E+00  0.18045537649E+04  0.18045537649E+04  0.00000000000E+00 0. -1.
         21   -1    0    0  502  503 -0.00000000000E+00 -0.00000000000E+00 -0.18094342073E+02  0.18094342073E+02  0.00000000000E+00 0. -1.
         -6    2    1    2    0  503  0.79337087540E+01  0.30741908571E+02  0.11413413037E+04  0.11546679415E+04  0.17201765876E+03 0.  0.
        -24    2    3    3    0    0 -0.41475926283E+02  0.52513151649E+02  0.95886199454E+03  0.96431015382E+03  0.77458793105E+02 0.  0.
          6    2    1    2  501    0 -0.79337087540E+01 -0.30741908571E+02  0.64511811917E+03  0.66798016551E+03  0.17032940193E+03 0.  0.
         24    2    5    5    0    0  0.24792061437E+02 -0.68776048070E+02  0.54634407059E+03  0.55709295041E+03  0.80721253839E+02 0.  0.
          5    1    5    5  501    0 -0.32725770191E+02  0.38034139499E+02  0.98774048575E+02  0.11088721511E+03  0.47000000000E+01 0. -1.
        -11    1    6    6    0    0  0.39869415169E+02 -0.47245172351E+02  0.50005314169E+03  0.50385992209E+03  0.00000000000E+00 0.  1.
         12    1    6    6    0    0 -0.15077353732E+02 -0.21530875718E+02  0.46290928902E+02  0.53233028313E+02  0.00000000000E+00 0. -1.
         -5    1    3    3    0  503  0.49409635037E+02 -0.21771243079E+02  0.18247930915E+03  0.19035778767E+03  0.47000000000E+01 0.  1.
         13    1    4    4    0    0 -0.22733767244E+01  0.99160648330E+01  0.64941393908E+03  0.64949361880E+03  0.00000000000E+00 0. -1.
        -14    1    4    4    0    0 -0.39202549559E+02  0.42597086816E+02  0.30944805545E+03  0.31481653502E+03  0.00000000000E+00 0.  1.
</event>
<event>
12    1  0.8449700E-002  0.1857245E+03  0.7818608E-02  0.1162392E+00
         21   -1    0    0  503  502  0.00000000000E+00  0.00000000000E+00  0.84685992245E+03  0.84685992245E+03  0.00000000000E+00 0. -1.
         21   -1    0    0  501  503 -0.00000000000E+00 -0.00000000000E+00 -0.21488522438E+03  0.21488522438E+03  0.00000000000E+00 0. -1.
          6    2    1    2  501    0 -0.64952111608E+02  0.18761404378E+02 -0.16196502155E+03  0.24637169971E+03  0.17290338087E+03 0.  0.
         24    2    3    3    0    0 -0.10489971245E+03  0.38823187688E+02 -0.10269199984E+03  0.17198307784E+03  0.80754830544E+02 0.  0.
         -6    2    1    2    0  502  0.64952111608E+02 -0.18761404378E+02  0.79393971962E+03  0.81537344712E+03  0.17298211696E+03 0.  0.
        -24    2    5    5    0    0  0.10144773721E+03 -0.28442007627E+02  0.44398403604E+03  0.46335538617E+03  0.80472345873E+02 0.  0.
          5    1    3    3  501    0  0.39947600838E+02 -0.20061783310E+02 -0.59273021704E+02  0.74388621873E+02  0.47000000000E+01 0. -1.
        -13    1    4    4    0    0  0.50623883055E+00 -0.13712373248E+02  0.26467959939E+01  0.13974655161E+02  0.00000000000E+00 0.  1.
         14    1    4    4    0    0 -0.10540595128E+03  0.52535560936E+02 -0.10533879584E+03  0.15800842267E+03  0.00000000000E+00 0. -1.
         -5    1    5    5    0  502 -0.36495625606E+02  0.96806032488E+01  0.34995568358E+03  0.35201806095E+03  0.47000000000E+01 0.  1.
         11    1    6    6    0    0  0.33587775694E+02 -0.13462933575E+00  0.29813133987E+03  0.30001742052E+03  0.00000000000E+00 0. -1.
        -12    1    6    6    0    0  0.67859961520E+02 -0.28307378291E+02  0.14585269616E+03  0.16333796564E+03  0.00000000000E+00 0.  1.
</event>
<event>
12    1  0.8449700E-002  0.1864166E+03  0.7818608E-02  0.1162306E+00
         21   -1    0    0  503  502  0.00000000000E+00  0.00000000000E+00  0.37005270275E+02  0.37005270275E+02  0.00000000000E+00 0. -1.
         21   -1    0    0  501  503 -0.00000000000E+00 -0.00000000000E+00 -0.96862617476E+03  0.96862617476E+03  0.00000000000E+00 0. -1.
          6    2    1    2  501    0 -0.31720320067E+02  0.60793042519E+02 -0.57331405654E+03  0.60285996832E+03  0.17334693895E+03 0.  0.
         24    2    3    3    0    0  0.28303240870E+01 -0.29647922803E+02 -0.31376169839E+03  0.32579890674E+03  0.82531898041E+02 0.  0.
         -6    2    1    2    0  502  0.31720320067E+02 -0.60793042519E+02 -0.35830684794E+03  0.40277147672E+03  0.17070176464E+03 0.  0.
        -24    2    5    5    0    0  0.22404778962E+02  0.51429092725E+01 -0.74754281469E+02  0.11146669303E+03  0.79424161448E+02 0.  0.
          5    1    3    3  501    0 -0.34550644154E+02  0.90440965321E+02 -0.25955235815E+03  0.27706106158E+03  0.47000000000E+01 0. -1.
        -13    1    4    4    0    0  0.37637243469E+01 -0.43732442577E+02 -0.77120121182E+02  0.88736718702E+02  0.00000000000E+00 0.  1.
         14    1    4    4    0    0 -0.93340025991E+00  0.14084519775E+02 -0.23664157721E+03  0.23706218804E+03  0.00000000000E+00 0. -1.
         -5    1    5    5    0  502  0.93155411048E+01 -0.65935951791E+02 -0.28355256648E+03  0.29130478369E+03  0.47000000000E+01 0.  1.
         11    1    6    6    0    0  0.49285539494E+02  0.88832441127E+00 -0.66978415435E+02  0.83162261018E+02  0.00000000000E+00 0. -1.
        -12    1    6    6    0    0 -0.26880760532E+02  0.42545848612E+01 -0.77758660335E+01  0.28304432015E+02  0.00000000000E+00 0.  1.
</event>
<event>
12    1  0.8449700E-002  0.1893516E+03  0.7818608E-02  0.1159065E+00
         21   -1    0    0  503  502  0.00000000000E+00  0.00000000000E+00  0.42105750669E+03  0.42105750669E+03  0.00000000000E+00 0.  1.
         21   -1    0    0  501  503 -0.00000000000E+00 -0.00000000000E+00 -0.95894366001E+02  0.95894366001E+02  0.00000000000E+00 0. -1.
          6    2    1    2  501    0 -0.38974332175E+02 -0.69950021459E+02  0.75904108689E+02  0.20392777372E+03  0.17150247551E+03 0.  0.
         24    2    3    3    0    0 -0.91117656493E+02 -0.38814119917E+02  0.58499129377E+02  0.14057642061E+03  0.80812243277E+02 0.  0.
         -6    2    1    2    0  502  0.38974332175E+02  0.69950021459E+02  0.24925903200E+03  0.31302409897E+03  0.17158676358E+03 0.  0.
        -24    2    5    5    0    0 -0.42677395185E+02  0.46300925520E+02  0.17126397333E+03  0.19756153579E+03  0.75723682557E+02 0.  0.
          5    1    3    3  501    0  0.52143324318E+02 -0.31135901542E+02  0.17404979313E+02  0.63351353108E+02  0.47000000000E+01 0. -1.
        -13    1    4    4    0    0 -0.69556515161E+02 -0.61271417479E+02  0.27607204614E+02  0.96718421967E+02  0.00000000000E+00 0.  1.
         14    1    4    4    0    0 -0.21561141332E+02  0.22457297561E+02  0.30891924763E+02  0.43857998642E+02  0.00000000000E+00 0. -1.
         -5    1    5    5    0  502  0.81651727360E+02  0.23649095939E+02  0.77995058672E+02  0.11546256318E+03  0.47000000000E+01 0.  1.
         11    1    6    6    0    0 -0.45490548031E+02  0.30254832799E+02  0.17276914034E+03  0.18120132649E+03  0.00000000000E+00 0. -1.
        -12    1    6    6    0    0  0.28131528465E+01  0.16046092721E+02 -0.15051670144E+01  0.16360209298E+02  0.00000000000E+00 0.  1.
</event>
<event>
12    1  0.8449700E-002  0.1957356E+03  0.7818608E-02  0.1153400E+00
         21   -1    0    0  503  502  0.00000000000E+00  0.00000000000E+00  0.14692958157E+03  0.14692958157E+03  0.00000000000E+00 0. -1.
         21   -1    0    0  501  503 -0.00000000000E+00 -0.00000000000E+00 -0.26523034101E+03  0.26523034101E+03  0.00000000000E+00 0. -1.
          6    2    1    2  501    0 -0.93320436215E+02  0.15578469367E+01 -0.86148151835E+02  0.21380112593E+03  0.17198339072E+03 0.  0.
         24    2    3    3    0    0  0.11476361446E+02 -0.13018127256E+02 -0.71921244122E+01  0.81698998432E+02  0.79509881033E+02 0.  0.
         -6    2    1    2    0  502  0.93320436215E+02 -0.15578469367E+01 -0.32152607607E+02  0.19835879665E+03  0.17205025815E+03 0.  0.
        -24    2    5    5    0    0  0.30152460991E+02 -0.34565333790E+02  0.36332204463E+02  0.99404530612E+02  0.80357317160E+02 0.  0.
          5    1    3    3  501    0 -0.10479679766E+03  0.14575974193E+02 -0.78956027423E+02  0.13210212750E+03  0.47000000000E+01 0. -1.
        -11    1    4    4    0    0  0.16280737618E+02  0.11039626086E+02  0.30757759626E+02  0.36509937534E+02  0.00000000000E+00 0.  1.
         12    1    4    4    0    0 -0.48043761717E+01 -0.24057753343E+02 -0.37949884038E+02  0.45189060898E+02  0.00000000000E+00 0. -1.
         -5    1    5    5    0  502  0.63167975224E+02  0.33007486854E+02 -0.68484812071E+02  0.98954266036E+02  0.47000000000E+01 0.  1.
         13    1    6    6    0    0  0.28702640073E+02  0.21587945235E+02  0.94838769065E+01  0.37145993698E+02  0.00000000000E+00 0. -1.
        -14    1    6    6    0    0  0.14498209187E+01 -0.56153279026E+02  0.26848327557E+02  0.62258536914E+02  0.00000000000E+00 0.  1.
</event>
<event>
12    1  0.8449700E-002  0.2050030E+03  0.7818608E-02  0.1145629E+00
         21   -1    0    0  501  502  0.00000000000E+00  0.00000000000E+00  0.24711378781E+02  0.24711378781E+02  0.00000000000E+00 0.  1.
         21   -1    0    0  502  503 -0.00000000000E+00 -0.00000000000E+00 -0.18968965003E+04  0.18968965003E+04  0.00000000000E+00 0.  1.
         -6    2    1    2    0  503 -0.10929769997E+03  0.25583687431E+02 -0.12469182827E+04  0.12636579650E+04  0.17153931490E+03 0.  0.
        -24    2    3    3    0    0 -0.29691913396E+02  0.70767759491E+02 -0.59941909768E+03  0.60970386401E+03  0.80906499289E+02 0.  0.
          6    2    1    2  501    0  0.10929769997E+03 -0.25583687431E+02 -0.62526683882E+03  0.65794991406E+03  0.17128618567E+03 0.  0.
         24    2    5    5    0    0  0.14358310615E+03 -0.28174549152E+02 -0.46739439363E+03  0.49630833342E+03  0.80340083604E+02 0.  0.
          5    1    5    5  501    0 -0.34285406178E+02  0.25908617212E+01 -0.15787244520E+03  0.16164158065E+03  0.47000000000E+01 0. -1.
        -11    1    6    6    0    0  0.37736397570E+02  0.26988381516E+02 -0.10584312152E+03  0.11556459152E+03  0.00000000000E+00 0.  1.
         12    1    6    6    0    0  0.10584670858E+03 -0.55162930668E+02 -0.36155127210E+03  0.38074374190E+03  0.00000000000E+00 0. -1.
         -5    1    3    3    0  503 -0.79605786574E+02 -0.45184072061E+02 -0.64749918499E+03  0.65395410098E+03  0.47000000000E+01 0.  1.
         13    1    4    4    0    0 -0.15097221200E+02  0.48104998003E+02 -0.55807980476E+03  0.56035264379E+03  0.00000000000E+00 0. -1.
        -14    1    4    4    0    0 -0.14594692196E+02  0.22662761488E+02 -0.41339292913E+02  0.49351220219E+02  0.00000000000E+00 0.  1.
</event>
<event>
12    1  0.8449700E-002  0.2308839E+03  0.7818608E-02  0.1126185E+00
         21   -1    0    0  503  502  0.00000000000E+00  0.00000000000E+00  0.29043717684E+03  0.29043717684E+03  0.00000000000E+00 0. -1.
         21   -1    0    0  501  503 -0.00000000000E+00 -0.00000000000E+00 -0.27083803707E+03  0.27083803707E+03  0.00000000000E+00 0. -1.
          6    2    1    2  501    0  0.14728818439E+03  0.44377610914E+02 -0.15022480804E+03  0.27466126979E+03  0.17090388690E+03 0.  0.
         24    2    3    3    0    0  0.26498045310E+02 -0.21705840138E+02 -0.25255721366E+02  0.88659541763E+02  0.77777715205E+02 0.  0.
         -6    2    1    2    0  502 -0.14728818439E+03 -0.44377610914E+02  0.16982394781E+03  0.28661394412E+03  0.17217490555E+03 0.  0.
        -24    2    5    5    0    0 -0.94162108026E+02  0.46793805962E+01  0.29650164642E+02  0.12881740457E+03  0.82621984153E+02 0.  0.
          5    1    3    3  501    0  0.12079013908E+03  0.66083451052E+02 -0.12496908667E+03  0.18600172802E+03  0.47000000000E+01 0. -1.
        -11    1    4    4    0    0 -0.13180382773E+02  0.16942824146E+02  0.92786410283E+01  0.23385357800E+02  0.00000000000E+00 0.  1.
         12    1    4    4    0    0  0.39678428083E+02 -0.38648664284E+02 -0.34534362394E+02  0.65274183963E+02  0.00000000000E+00 0. -1.
         -5    1    5    5    0  502 -0.53126076368E+02 -0.49056991510E+02  0.14017378317E+03  0.15779653955E+03  0.47000000000E+01 0.  1.
         11    1    6    6    0    0 -0.41869763636E+02 -0.11559857641E+02  0.53653090962E+02  0.69031598456E+02  0.00000000000E+00 0. -1.
        -12    1    6    6    0    0 -0.52292344389E+02  0.16239238237E+02 -0.24002926321E+02  0.59785806110E+02  0.00000000000E+00 0.  1.
</event>
<event>
12    1  0.8449700E-002  0.2601108E+03  0.7818608E-02  0.1107226E+00
         21   -1    0    0  501  502  0.00000000000E+00  0.00000000000E+00  0.79524460006E+03  0.79524460006E+03  0.00000000000E+00 0. -1.
         21   -1    0    0  502  503 -0.00000000000E+00 -0.00000000000E+00 -0.33568109859E+03  0.33568109859E+03  0.00000000000E+00 0.  1.
         -6    2    1    2    0  503 -0.11453116305E+03  0.15621757672E+03 -0.25900178647E+03  0.36706887473E+03  0.17359814173E+03 0.  0.
        -24    2    3    3    0    0  0.40553952945E+01  0.28438888133E+02 -0.89751966036E+02  0.12405085730E+03  0.80672071998E+02 0.  0.
          6    2    1    2  501    0  0.11453116305E+03 -0.15621757672E+03  0.71856528794E+03  0.76385682392E+03  0.17210420050E+03 0.  0.
         24    2    5    5    0    0  0.10616931376E+03 -0.90146739853E+02  0.64453990155E+03  0.66417170047E+03  0.79334766159E+02 0.  0.
          5    1    5    5  501    0  0.83618492916E+01 -0.66070836865E+02  0.74025386396E+02  0.99685123457E+02  0.47000000000E+01 0. -1.
        -13    1    6    6    0    0  0.23519539987E+02  0.80012946783E+01  0.48678028282E+02  0.54651074237E+02  0.00000000000E+00 0.  1.
         14    1    6    6    0    0  0.82649773773E+02 -0.98148034531E+02  0.59586187327E+03  0.60952062623E+03  0.00000000000E+00 0. -1.
         -5    1    3    3    0  503 -0.11858655835E+03  0.12777868858E+03 -0.16924982044E+03  0.24301801743E+03  0.47000000000E+01 0.  1.
         13    1    4    4    0    0 -0.79480673647E+00  0.17370995132E+01  0.15366946924E+02  0.15485228130E+02  0.00000000000E+00 0. -1.
        -14    1    4    4    0    0  0.48502020310E+01  0.26701788620E+02 -0.10511891296E+03  0.10856562917E+03  0.00000000000E+00 0.  1.
</event>
<event>
12    1  0.8449700E-002  0.1744685E+03  0.7818608E-02  0.1174431E+00
         21   -1    0    0  503  502  0.00000000000E+00  0.00000000000E+00  0.78574180662E+03  0.78574180662E+03  0.00000000000E+00 0. -1.
         21   -1    0    0  501  503 -0.00000000000E+00 -0.00000000000E+00 -0.49406944676E+02  0.49406944676E+02  0.00000000000E+00 0. -1.
          6    2    1    2  501    0 -0.18541692886E+02  0.26525431265E+02  0.56739819564E+03  0.59229312087E+03  0.16680238527E+03 0.  0.
         24    2    3    3    0    0 -0.19568557274E+02  0.74340594962E+02  0.47962144301E+03  0.49222218287E+03  0.79602111906E+02 0.  0.
         -6    2    1    2    0  502  0.18541692886E+02 -0.26525431265E+02  0.16893666630E+03  0.24285563042E+03  0.17144056442E+03 0.  0.
        -24    2    5    5    0    0 -0.49207384976E+02 -0.26514216156E+02  0.60474711547E+02  0.11488679318E+03  0.80108764289E+02 0.  0.
          5    1    3    3  501    0  0.10268643878E+01 -0.47815163696E+02  0.87776752633E+02  0.10007093800E+03  0.47000000000E+01 0. -1.
        -11    1    4    4    0    0 -0.31060733096E+02 -0.26976728967E+01  0.10231718115E+03  0.10696191910E+03  0.00000000000E+00 0.  1.
         12    1    4    4    0    0  0.11492175822E+02  0.77038267858E+02  0.37730426186E+03  0.38526026376E+03  0.00000000000E+00 0. -1.
         -5    1    5    5    0  502  0.67749077861E+02 -0.11215109596E-01  0.10846195475E+03  0.12796883724E+03  0.47000000000E+01 0.  1.
         11    1    6    6    0    0  0.11872807010E+02 -0.33034145398E+02  0.30655134045E+02  0.46604243925E+02  0.00000000000E+00 0. -1.
        -12    1    6    6    0    0 -0.61080191986E+02  0.65199292423E+01  0.29819577502E+02  0.68282549255E+02  0.00000000000E+00 0.  1.
</event>
<event>
12    1  0.8449700E-002  0.2177055E+03  0.7818608E-02  0.1135883E+00
         21   -1    0    0  501  502  0.00000000000E+00  0.00000000000E+00  0.65581819752E+02  0.65581819752E+02  0.00000000000E+00 0.  1.
         21   -1    0    0  502  503 -0.00000000000E+00 -0.00000000000E+00 -0.82282296821E+03  0.82282296821E+03  0.00000000000E+00 0. -1.
         -6    2    1    2    0  503 -0.10089492490E+03  0.86066773365E+02 -0.53839752881E+03  0.58074741927E+03  0.17265106606E+03 0.  0.
        -24    2    3    3    0    0 -0.90631676434E+02 -0.64533709255E+01 -0.35171756403E+03  0.37209265508E+03  0.80572652605E+02 0.  0.
          6    2    1    2  501    0  0.10089492490E+03 -0.86066773365E+02 -0.21884361965E+03  0.30765736870E+03  0.17080178952E+03 0.  0.
         24    2    5    5    0    0  0.97625942359E+02 -0.11385005741E+03 -0.12857037490E+03  0.21303207695E+03  0.79747503512E+02 0.  0.
          5    1    5    5  501    0  0.32689825446E+01  0.27783284044E+02 -0.90273244754E+02  0.94625291743E+02  0.47000000000E+01 0. -1.
        -11    1    6    6    0    0  0.67393040933E+01 -0.16349997833E+02  0.10364226843E+02  0.20497752239E+02  0.00000000000E+00 0.  1.
         12    1    6    6    0    0  0.90886638265E+02 -0.97500059576E+02 -0.13893460174E+03  0.19253432472E+03  0.00000000000E+00 0. -1.
         -5    1    3    3    0  503 -0.10263248469E+02  0.92520144290E+02 -0.18667996478E+03  0.20865476419E+03  0.47000000000E+01 0.  1.
         13    1    4    4    0    0 -0.75800366171E+02  0.29979689452E+02 -0.25381999583E+03  0.26658782338E+03  0.00000000000E+00 0. -1.
        -14    1    4    4    0    0 -0.14831310263E+02 -0.36433060378E+02 -0.97897568200E+02  0.10550483170E+03  0.00000000000E+00 0.  1.
</event>
<event>
12    1  0.8449700E-002  0.1944285E+03  0.7818608E-02  0.1154535E+00
         21   -1    0    0  503  502  0.00000000000E+00  0.00000000000E+00  0.13905941693E+04  0.13905941693E+04  0.00000000000E+00 0. -1.
         21   -1    0    0  501  503 -0.00000000000E+00 -0.00000000000E+00 -0.86660250331E+02  0.86660250331E+02  0.00000000000E+00 0. -1.
          6    2    1    2  501    0 -0.50687477950E+02 -0.73635322930E+02  0.40012041238E+02  0.19846556172E+03  0.17261585831E+03 0.  0.
         24    2    3    3    0    0 -0.58646256336E+02 -0.39131392778E+02  0.88154677988E+02  0.13851836143E+03  0.80283497175E+02 0.  0.
         -6    2    1    2    0  502  0.50687477950E+02  0.73635322930E+02  0.12639218777E+04  0.12787888579E+04  0.17265876436E+03 0.  0.
        -24    2    5    5    0    0  0.47833593382E+02  0.13655542926E+02  0.34677167327E+03  0.35966301984E+03  0.81439351367E+02 0.  0.
          5    1    3    3  501    0  0.79587783860E+01 -0.34503930152E+02 -0.48142636749E+02  0.59947200289E+02  0.47000000000E+01 0. -1.
        -11    1    4    4    0    0 -0.26609271052E+02  0.97553440567E+01 -0.47703031062E+01  0.28739795325E+02  0.00000000000E+00 0.  1.
         12    1    4    4    0    0 -0.32036985284E+02 -0.48886736835E+02  0.92924981094E+02  0.10977856610E+03  0.00000000000E+00 0. -1.
         -5    1    5    5    0  502  0.28538845676E+01  0.59979780004E+02  0.91715020447E+03  0.91912583808E+03  0.47000000000E+01 0.  1.
         11    1    6    6    0    0  0.49028284033E+01 -0.11045042799E+02  0.25577331243E+03  0.25605862229E+03  0.00000000000E+00 0. -1.
        -12    1    6    6    0    0  0.42930764979E+02  0.24700585724E+02  0.90998360834E+02  0.10360439755E+03  0.00000000000E+00 0.  1.
</event>
<event>
12    1  0.8449700E-002  0.1965352E+03  0.7818608E-02  0.1152796E+00
         21   -1    0    0  503  502  0.00000000000E+00  0.00000000000E+00  0.54849646932E+03  0.54849646932E+03  0.00000000000E+00 0. -1.
         21   -1    0    0  501  503 -0.00000000000E+00 -0.00000000000E+00 -0.77644226152E+02  0.77644226152E+02  0.00000000000E+00 0. -1.
          6    2    1    2  501    0 -0.91698092543E+02 -0.24049655310E+02  0.33226093061E+03  0.38603552397E+03  0.17216031384E+03 0.  0.
         24    2    3    3    0    0 -0.30236921026E+02 -0.30187435277E+02  0.65550567786E+02  0.11222599970E+03  0.80450266804E+02 0.  0.
         -6    2    1    2    0  502  0.91698092543E+02  0.24049655310E+02  0.13859131257E+03  0.24010517151E+03  0.17162754840E+03 0.  0.
        -24    2    5    5    0    0  0.69407287134E+02  0.38983684030E+02  0.23177215997E+02  0.12152014333E+03  0.88841785027E+02 0.  0.
          5    1    3    3  501    0 -0.61461171518E+02  0.61377799671E+01  0.26671036282E+03  0.27380952427E+03  0.47000000000E+01 0. -1.
        -11    1    4    4    0    0 -0.39142980185E+02  0.15454443887E+02  0.18172558391E+02  0.45839443846E+02  0.00000000000E+00 0.  1.
         12    1    4    4    0    0  0.89060591591E+01 -0.45641879164E+02  0.47378009395E+02  0.66386555850E+02  0.00000000000E+00 0. -1.
         -5    1    5    5    0  502  0.22290805409E+02 -0.14934028720E+02  0.11541409657E+03  0.11858502817E+03  0.47000000000E+01 0.  1.
         13    1    6    6    0    0  0.79087425406E+02  0.82567399105E+01 -0.36441900795E+01  0.79600720679E+02  0.00000000000E+00 0. -1.
        -14    1    6    6    0    0 -0.96801382711E+01  0.30726944120E+02  0.26821406076E+02  0.41919422656E+02  0.00000000000E+00 0.  1.
</event>
<event>
12    1  0.8449700E-002  0.2464881E+03  0.7818608E-02  0.1115634E+00
         21   -1    0    0  503  502  0.00000000000E+00  0.00000000000E+00  0.78938790513E+02  0.78938790513E+02  0.00000000000E+00 0. -1.
         21   -1    0    0  501  503 -0.00000000000E+00 -0.00000000000E+00 -0.16130759812E+04  0.16130759812E+04  0.00000000000E+00 0. -1.
          6    2    1    2  501    0 -0.12336236098E+03 -0.12581653663E+03 -0.13798447788E+04  0.14016875455E+04  0.17236092526E+03 0.  0.
         24    2    3    3    0    0 -0.70694722680E+01 -0.78219121011E+02 -0.47021073982E+03  0.48340342560E+03  0.80078234941E+02 0.  0.
         -6    2    1    2    0  502  0.12336236098E+03  0.12581653663E+03 -0.15429241188E+03  0.29032722623E+03  0.17156828649E+03 0.  0.
        -24    2    5    5    0    0  0.75843770860E+02  0.14708875866E+03 -0.14905129156E+03  0.23779073244E+03  0.83311250243E+02 0.  0.
          5    1    3    3  501    0 -0.11629288872E+03 -0.47597415623E+02 -0.90963403896E+03  0.91828411986E+03  0.47000000000E+01 0. -1.
        -11    1    4    4    0    0  0.25326001943E+02 -0.61132083852E+00 -0.16009835626E+03  0.16209029510E+03  0.00000000000E+00 0.  1.
         12    1    4    4    0    0 -0.32395474211E+02 -0.77607800173E+02 -0.31011238356E+03  0.32131313050E+03  0.00000000000E+00 0. -1.
         -5    1    5    5    0  502  0.47518590124E+02 -0.21272222025E+02 -0.52411203176E+01  0.52536493787E+02  0.47000000000E+01 0.  1.
         11    1    6    6    0    0  0.90463981741E+02  0.10501196935E+03 -0.12741101064E+03  0.18826792433E+03  0.00000000000E+00 0. -1.
        -12    1    6    6    0    0 -0.14620210881E+02  0.42076789313E+02 -0.21640280919E+02  0.49522808113E+02  0.00000000000E+00 0.  1.
</event>
<event>
12    1  0.8449700E-002  0.1756281E+03  0.7818608E-02  0.1172463E+00
         21   -1    0    0  501  502  0.00000000000E+00  0.00000000000E+00  0.25764701240E+02  0.25764701240E+02  0.00000000000E+00 0. -1.
         21   -1    0    0  502  503 -0.00000000000E+00 -0.00000000000E+00 -0.21038204253E+04  0.21038204253E+04  0.00000000000E+00 0. -1.
         -6    2    1    2    0  503  0.27017412388E+02 -0.40102063033E+01 -0.17393727227E+04  0.17480731434E+04  0.17203553111E+03 0.  0.
        -24    2    3    3    0    0  0.50202437252E+02 -0.17148762526E+02 -0.54570488504E+03  0.55409861954E+03  0.80106765322E+02 0.  0.
          6    2    1    2  501    0 -0.27017412388E+02  0.40102063033E+01 -0.33868300136E+03  0.38151198311E+03  0.17349119725E+03 0.  0.
         24    2    5    5    0    0 -0.82161530889E+02 -0.20708789022E+02 -0.23166028692E+03  0.25851664198E+03  0.77362746482E+02 0.  0.
          5    1    5    5  501    0  0.55144118501E+02  0.24718995325E+02 -0.10702271444E+03  0.12299534114E+03  0.47000000000E+01 0. -1.
        -11    1    6    6    0    0  0.10818908758E+02  0.50084211893E+01 -0.63842548610E+02  0.64946162954E+02  0.00000000000E+00 0.  1.
         12    1    6    6    0    0 -0.92980439647E+02 -0.25717210211E+02 -0.16781773831E+03  0.19357047902E+03  0.00000000000E+00 0. -1.
         -5    1    3    3    0  503 -0.23185024864E+02  0.13138556222E+02 -0.11936678376E+04  0.11939745238E+04  0.47000000000E+01 0.  1.
         13    1    4    4    0    0 -0.85052261637E+01  0.14243997418E+02 -0.26848035082E+03  0.26899243319E+03  0.00000000000E+00 0. -1.
        -14    1    4    4    0    0  0.58707663416E+02 -0.31392759943E+02 -0.27722453422E+03  0.28510618635E+03  0.00000000000E+00 0.  1.
</event>
<event>
12    1  0.8449700E-002  0.1777107E+03  0.7818608E-02  0.1171044E+00
         21   -1    0    0  501  502  0.00000000000E+00  0.00000000000E+00  0.22616626873E+03  0.22616626873E+03  0.00000000000E+00 0.  1.
         21   -1    0    0  502  503 -0.00000000000E+00 -0.00000000000E+00 -0.14018402321E+03  0.14018402321E+03  0.00000000000E+00 0.  1.
         -6    2    1    2    0  503 -0.29578438336E+02 -0.91296819152E+01  0.12731875588E+02  0.17413504807E+03  0.17088791415E+03 0.  0.
        -24    2    3    3    0    0 -0.49090053219E+02  0.36778653787E+02  0.49072036041E+02  0.11224017216E+03  0.80170373738E+02 0.  0.
          6    2    1    2  501    0  0.29578438336E+02  0.91296819152E+01  0.73250369937E+02  0.19221524387E+03  0.17499385182E+03 0.  0.
         24    2    5    5    0    0  0.86325464074E+02 -0.10295337377E+01  0.29510060673E+02  0.11969807868E+03  0.77483163797E+02 0.  0.
          5    1    5    5  501    0 -0.56747025738E+02  0.10159215653E+02  0.43740309264E+02  0.72517165191E+02  0.47000000000E+01 0. -1.
        -11    1    6    6    0    0  0.11364212915E+02 -0.32705962206E+02  0.87502265524E+01  0.35712627511E+02  0.00000000000E+00 0.  1.
         12    1    6    6    0    0  0.74961251159E+02  0.31676428468E+02  0.20759834121E+02  0.83985451172E+02  0.00000000000E+00 0. -1.
         -5    1    3    3    0  503  0.19511614882E+02 -0.45908335702E+02 -0.36340160454E+02  0.61894875911E+02  0.47000000000E+01 0.  1.
         11    1    4    4    0    0 -0.47119140686E+02 -0.45052488129E+01  0.52596234437E+02  0.70759271921E+02  0.00000000000E+00 0. -1.
        -12    1    4    4    0    0 -0.19709125326E+01  0.41283902600E+02 -0.35241983957E+01  0.41480900236E+02  0.00000000000E+00 0.  1.
</event>
<event>
12    1  0.8449700E-002  0.1932666E+03  0.7818608E-02  0.1155659E+00
         21   -1    0    0  503  502  0.00000000000E+00  0.00000000000E+00  0.10576447298E+03  0.10576447298E+03  0.00000000000E+00 0.  1.
         21   -1    0    0  501  503 -0.00000000000E+00 -0.00000000000E+00 -0.10910626508E+04  0.10910626508E+04  0.00000000000E+00 0.  1.
          6    2    1    2  501    0 -0.43437397804E+02  0.76243310519E+02 -0.98487317475E+03  0.10035601015E+04  0.17163291373E+03 0.  0.
         24    2    3    3    0    0  0.24570569914E+02  0.11504749730E+01 -0.60623730674E+03  0.61157639245E+03  0.76791765337E+02 0.  0.
         -6    2    1    2    0  502  0.43437397804E+02 -0.76243310519E+02 -0.42500302190E+00  0.19326702222E+03  0.17219788420E+03 0.  0.
        -24    2    5    5    0    0 -0.33121597623E+02 -0.31166098813E+02 -0.36783004078E+02  0.97156517918E+02  0.77575986237E+02 0.  0.
          5    1    3    3  501    0 -0.68007967717E+02  0.75092835546E+02 -0.37863586801E+03  0.39198370906E+03  0.47000000000E+01 0. -1.
        -11    1    4    4    0    0  0.46578351336E+02  0.10554653233E+02 -0.51646930538E+03  0.51867281298E+03  0.00000000000E+00 0.  1.
         12    1    4    4    0    0 -0.22007781422E+02 -0.94041782601E+01 -0.89768001351E+02  0.92903579470E+02  0.00000000000E+00 0. -1.
         -5    1    5    5    0  502  0.76558995427E+02 -0.45077211706E+02  0.36358001056E+02  0.96110504300E+02  0.47000000000E+01 0.  1.
         13    1    6    6    0    0  0.20626601450E+02 -0.88298735414E+01 -0.31553409854E+02  0.38717451201E+02  0.00000000000E+00 0. -1.
        -14    1    6    6    0    0 -0.53748199073E+02 -0.22336225271E+02 -0.52295942247E+01  0.58439066717E+02  0.00000000000E+00 0.  1.
</event>
<event>
12    1  0.8449700E-002  0.2596777E+03  0.7818608E-02  0.1107341E+00
         21   -1    0    0  503  502  0.00000000000E+00  0.00000000000E+00  0.42873119152E+03  0.42873119152E+03  0.00000000000E+00 0.  1.
         21   -1    0    0  501  503 -0.00000000000E+00 -0.00000000000E+00 -0.16138641749E+03  0.16138641749E+03  0.00000000000E+00 0.  1.
          6    2    1    2  501    0 -0.84465090953E+02 -0.17535294001E+03  0.18081340696E+03  0.31642692730E+03  0.17189970047E+03 0.  0.
         24    2    3    3    0    0 -0.91131457774E+02 -0.17963998770E+03  0.20013515275E+03  0.29502040762E+03  0.80046822376E+02 0.  0.
         -6    2    1    2    0  502  0.84465090953E+02  0.17535294001E+03  0.86531367069E+02  0.27369068172E+03  0.17186013678E+03 0.  0.
        -24    2    5    5    0    0 -0.84176655883E+01  0.13390633024E+03  0.35948398569E+02  0.15999919292E+03  0.79408387481E+02 0.  0.
          5    1    3    3  501    0  0.66663668214E+01  0.42870476862E+01 -0.19321745783E+02  0.21406519675E+02  0.47000000000E+01 0. -1.
        -13    1    4    4    0    0 -0.33904731103E+02 -0.10124747513E+03  0.54162056846E+02  0.11972514528E+03  0.00000000000E+00 0.  1.
         14    1    4    4    0    0 -0.57226726671E+02 -0.78392512572E+02  0.14597309590E+03  0.17529526234E+03  0.00000000000E+00 0. -1.
         -5    1    5    5    0  502  0.92882756541E+02  0.41446609770E+02  0.50582968499E+02  0.11369148880E+03  0.47000000000E+01 0.  1.
         11    1    6    6    0    0  0.25088764069E+02  0.21998182455E+02 -0.94367531359E+01  0.34675905519E+02  0.00000000000E+00 0. -1.
        -12    1    6    6    0    0 -0.33506429657E+02  0.11190814779E+03  0.45385151705E+02  0.12532328740E+03  0.00000000000E+00 0.  1.
</event>
<event>
12    1  0.8449700E-002  0.2311997E+03  0.7818608E-02  0.1125912E+00
         21   -1    0    0  501  502  0.00000000000E+00  0.00000000000E+00  0.25889990242E+03  0.25889990242E+03  0.00000000000E+00 0. -1.
         21   -1    0    0  502  503 -0.00000000000E+00 -0.00000000000E+00 -0.17690200268E+04  0.17690200268E+04  0.00000000000E+00 0. -1.
         -6    2    1    2    0  503  0.11987006244E+03 -0.96395080814E+02 -0.17080678221E+04  0.17235573102E+04  0.17173605583E+03 0.  0.
        -24    2    3    3    0    0  0.10818208549E+03 -0.31759151662E+02 -0.76146457107E+03  0.77466626421E+03  0.86991497087E+02 0.  0.
          6    2    1    2  501    0 -0.11987006244E+03  0.96395080814E+02  0.19794769779E+03  0.30436261903E+03  0.17260495164E+03 0.  0.
         24    2    5    5    0    0 -0.10327576201E+03  0.13074009596E+03  0.15659446176E+03  0.24790793807E+03  0.95800128368E+02 0.  0.
          5    1    5    5  501    0 -0.16594300428E+02 -0.34345015149E+02  0.41353236028E+02  0.56454680959E+02  0.47000000000E+01 0. -1.
        -11    1    6    6    0    0  0.15540556365E+02  0.37500313789E+02  0.25677819611E+02  0.48032622731E+02  0.00000000000E+00 0.  1.
         12    1    6    6    0    0 -0.11881631838E+03  0.93239782174E+02  0.13091664215E+03  0.19987531534E+03  0.00000000000E+00 0. -1.
         -5    1    3    3    0  503  0.11687976946E+02 -0.64635929152E+02 -0.94660325107E+03  0.94889104594E+03  0.47000000000E+01 0.  1.
         11    1    4    4    0    0  0.10623890823E+03 -0.47697833508E+02 -0.52989955284E+03  0.54254522857E+03  0.00000000000E+00 0. -1.
        -12    1    4    4    0    0  0.19431772691E+01  0.15938681846E+02 -0.23156501823E+03  0.23212103564E+03  0.00000000000E+00 0.  1.
</event>
<event>
12    1  0.8449700E-002  0.2853705E+03  0.7818608E-02  0.1093124E+00
         21   -1    0    0  503  502  0.00000000000E+00  0.00000000000E+00  0.48002749609E+03  0.48002749609E+03  0.00000000000E+00 0.  1.
         21   -1    0    0  501  503 -0.00000000000E+00 -0.00000000000E+00 -0.16849227591E+03  0.16849227591E+03  0.00000000000E+00 0.  1.
          6    2    1    2  501    0 -0.35975262344E+02 -0.22294739591E+03  0.17047671979E+03  0.33241334078E+03  0.17446075860E+03 0.  0.
         24    2    3    3    0    0 -0.83934947823E+02 -0.10638290004E+03  0.90290088417E+02  0.18294963622E+03  0.83401873123E+02 0.  0.
         -6    2    1    2    0  502  0.35975262344E+02  0.22294739591E+03  0.14105850040E+03  0.31610643123E+03  0.17037022770E+03 0.  0.
        -24    2    5    5    0    0 -0.15639196274E+02  0.20953230933E+03  0.90001744548E+02  0.24212738552E+03  0.79856018448E+02 0.  0.
          5    1    3    3  501    0  0.47959685479E+02 -0.11656449587E+03  0.80186631371E+02  0.14946370455E+03  0.47000000000E+01 0. -1.
        -11    1    4    4    0    0 -0.37499645587E+02 -0.75212607492E+02  0.93415893090E+01  0.84560185878E+02  0.00000000000E+00 0.  1.
         12    1    4    4    0    0 -0.46435302236E+02 -0.31170292551E+02  0.80948499108E+02  0.98389450345E+02  0.00000000000E+00 0. -1.
         -5    1    5    5    0  502  0.51614458619E+02  0.13415086579E+02  0.51056755848E+02  0.73979045710E+02  0.47000000000E+01 0.  1.
         13    1    6    6    0    0  0.53613483991E+01  0.81104985943E+02 -0.43353424206E+01  0.81397530647E+02  0.00000000000E+00 0. -1.
        -14    1    6    6    0    0 -0.21000544674E+02  0.12842732339E+03  0.94337086968E+02  0.16072985487E+03  0.00000000000E+00 0.  1.
</event>
<event>
12    1  0.8449700E-002  0.3042091E+03  0.7818608E-02  0.1083162E+00
         21   -1    0    0  503  502  0.00000000000E+00  0.00000000000E+00  0.24132999316E+03  0.24132999316E+03  0.00000000000E+00 0. -1.
         21   -1    0    0  501  503 -0.00000000000E+00 -0.00000000000E+00 -0.45771127188E+03  0.45771127188E+03  0.00000000000E+00 0. -1.
          6    2    1    2  501    0  0.24795811216E+03  0.37889951240E+02 -0.24900979863E+03  0.39308737803E+03  0.17202596652E+03 0.  0.
         24    2    3    3    0    0  0.16628761678E+03  0.42144236479E+02 -0.24717378909E+03  0.31115063603E+03  0.79322935695E+02 0.  0.
         -6    2    1    2    0  502 -0.24795811216E+03 -0.37889951240E+02  0.32628519921E+02  0.30595388701E+03  0.17211707316E+03 0.  0.
        -24    2    5    5    0    0 -0.18323144717E+03 -0.76510173538E+02 -0.16984027329E+02  0.21559594560E+03  0.82253174339E+02 0.  0.
          5    1    3    3  501    0  0.81670495381E+02 -0.42542852386E+01 -0.18360095486E+01  0.81936742001E+02  0.47000000000E+01 0. -1.
        -13    1    4    4    0    0  0.93739287568E+02  0.38554917961E+02 -0.20091546815E+03  0.22503457751E+03  0.00000000000E+00 0.  1.
         14    1    4    4    0    0  0.72548329214E+02  0.35893185181E+01 -0.46258320933E+02  0.86116058518E+02  0.00000000000E+00 0. -1.
         -5    1    5    5    0  502 -0.64726664992E+02  0.38620222297E+02  0.49612547250E+02  0.90357941410E+02  0.47000000000E+01 0.  1.
         13    1    6    6    0    0 -0.49163209033E+02  0.10562269070E+02  0.15188026194E+02  0.52528647327E+02  0.00000000000E+00 0. -1.
        -14    1    6    6    0    0 -0.13406823814E+03 -0.87072442608E+02 -0.32172053523E+02  0.16306729828E+03  0.00000000000E+00 0.  1.
</event>
<event>
12    1  0.8449700E-002  0.1817618E+03  0.7818608E-02  0.1167319E+00
         21   -1    0    0  501  502  0.00000000000E+00  0.00000000000E+00  0.63739178289E+02  0.63739178289E+02  0.00000000000E+00 0.  1.
         21   -1    0    0  502  503 -0.00000000000E+00 -0.00000000000E+00 -0.59294532149E+03  0.59294532149E+03  0.00000000000E+00 0.  1.
         -6    2    1    2    0  503  0.25172245801E+02 -0.55175939375E+02 -0.13444300400E+03  0.22208665948E+03  0.16604076834E+03 0.  0.
        -24    2    3    3    0    0  0.22224587872E+02  0.16107666692E+02 -0.21129846988E+02  0.88101575485E+02  0.81006345040E+02 0.  0.
          6    2    1    2  501    0 -0.25172245801E+02  0.55175939375E+02 -0.39476313920E+03  0.43459784030E+03  0.17134561703E+03 0.  0.
         24    2    5    5    0    0  0.16370931248E+02  0.41034186900E+02 -0.96257872373E+02  0.13284743177E+03  0.80193829251E+02 0.  0.
          5    1    5    5  501    0 -0.41543177049E+02  0.14141752475E+02 -0.29850526683E+03  0.30175040853E+03  0.47000000000E+01 0. -1.
        -11    1    6    6    0    0 -0.10300925546E+02  0.29466256897E+02  0.11073065832E+01  0.31234524015E+02  0.00000000000E+00 0.  1.
         12    1    6    6    0    0  0.26671856794E+02  0.11567930003E+02 -0.97365178956E+02  0.10161290776E+03  0.00000000000E+00 0. -1.
         -5    1    3    3    0  503  0.29476579288E+01 -0.71283606067E+02 -0.11331315701E+03  0.13398508399E+03  0.47000000000E+01 0.  1.
         13    1    4    4    0    0  0.44625036500E+02  0.33602600222E+01 -0.36799312123E+02  0.57938541600E+02  0.00000000000E+00 0. -1.
        -14    1    4    4    0    0 -0.22400448628E+02  0.12747406670E+02  0.15669465134E+02  0.30163033885E+02  0.00000000000E+00 0.  1.
</event>
<event>
12    1  0.8449700E-002  0.1902146E+03  0.7818608E-02  0.1158643E+00
         21   -1    0    0  501  502  0.00000000000E+00  0.00000000000E+00  0.16934283302E+03  0.16934283302E+03  0.00000000000E+00 0. -1.
         21   -1    0    0  502  503 -0.00000000000E+00 -0.00000000000E+00 -0.21382957620E+03  0.21382957620E+03  0.00000000000E+00 0. -1.
         -6    2    1    2    0  503 -0.18542179956E+02  0.78833797351E+02 -0.40808694946E+02  0.19292228029E+03  0.17027940746E+03 0.  0.
        -24    2    3    3    0    0  0.36441463295E+02  0.72640898104E+02  0.14365047638E+02  0.11464211104E+03  0.79572474549E+02 0.  0.
          6    2    1    2  501    0  0.18542179956E+02 -0.78833797351E+02 -0.36780482352E+01  0.19025012893E+03  0.17211334485E+03 0.  0.
         24    2    5    5    0    0 -0.34402986815E+02  0.66383747707E+01 -0.17089400940E+02  0.88708820721E+02  0.79684212538E+02 0.  0.
          5    1    5    5  501    0  0.52945166771E+02 -0.85472172122E+02  0.13411352705E+02  0.10154130821E+03  0.47000000000E+01 0. -1.
        -11    1    6    6    0    0 -0.64204340387E+01  0.11098211859E+01 -0.46958325113E+02  0.47408205763E+02  0.00000000000E+00 0.  1.
         12    1    6    6    0    0 -0.27982552776E+02  0.55285535849E+01  0.29868924173E+02  0.41300614958E+02  0.00000000000E+00 0. -1.
         -5    1    3    3    0  503 -0.54983643251E+02  0.61928992470E+01 -0.55173742584E+02  0.78280169245E+02  0.47000000000E+01 0.  1.
         13    1    4    4    0    0  0.10751477863E+02  0.63596664582E+02 -0.22936360042E+02  0.68455873628E+02  0.00000000000E+00 0. -1.
        -14    1    4    4    0    0  0.25689985432E+02  0.90442335222E+01  0.37301407680E+02  0.46186237413E+02  0.00000000000E+00 0.  1.
</event>
<event>
12    1  0.8449700E-002  0.2486594E+03  0.7818608E-02  0.1116071E+00
         21   -1    0    0  503  502  0.00000000000E+00  0.00000000000E+00  0.80941157067E+02  0.80941157067E+02  0.00000000000E+00 0. -1.
         21   -1    0    0  501  503 -0.00000000000E+00 -0.00000000000E+00 -0.84478912151E+03  0.84478912151E+03  0.00000000000E+00 0. -1.
          6    2    1    2  501    0 -0.12806379771E+03  0.99787146029E+02 -0.56174131192E+03  0.61431652655E+03  0.18834458441E+03 0.  0.
         24    2    3    3    0    0 -0.11908751508E+03  0.40177497925E+02 -0.51871851810E+03  0.54010780344E+03  0.82773611318E+02 0.  0.
         -6    2    1    2    0  502  0.12806379771E+03 -0.99787146029E+02 -0.20210665252E+03  0.31141375202E+03  0.17255032646E+03 0.  0.
        -24    2    5    5    0    0  0.14000770394E+03 -0.12804272911E+03 -0.17434017192E+03  0.26977119787E+03  0.79905606910E+02 0.  0.
          5    1    3    3  501    0 -0.89762826295E+01  0.59609648104E+02 -0.43022793820E+02  0.74208723106E+02  0.47000000000E+01 0. -1.
        -11    1    4    4    0    0 -0.11160390357E+02  0.17816526405E+02 -0.23173310747E+03  0.23268479973E+03  0.00000000000E+00 0.  1.
         12    1    4    4    0    0 -0.10792712472E+03  0.22360971520E+02 -0.28698541063E+03  0.30742300371E+03  0.00000000000E+00 0. -1.
         -5    1    5    5    0  502 -0.11943906230E+02  0.28255583085E+02 -0.27766480594E+02  0.41642554149E+02  0.47000000000E+01 0.  1.
         11    1    6    6    0    0  0.66938783663E+02 -0.11858646854E+02 -0.47946361977E+02  0.83188231682E+02  0.00000000000E+00 0. -1.
        -12    1    6    6    0    0  0.73068920276E+02 -0.11618408226E+03 -0.12639380995E+03  0.18658296619E+03  0.00000000000E+00 0.  1.
</event>
<event>
12    1  0.8449700E-002  0.4877217E+03  0.7818608E-02  0.1017067E+00
         21   -1    0    0  503  502  0.00000000000E+00  0.00000000000E+00  0.16546236407E+04  0.16546236407E+04  0.00000000000E+00 0. -1.
         21   -1    0    0  501  503 -0.00000000000E+00 -0.00000000000E+00 -0.20765400238E+03  0.20765400238E+03  0.00000000000E+00 0. -1.
          6    2    1    2  501    0 -0.40324055228E+03  0.21374283737E+03  0.20616226558E+03  0.52905772046E+03  0.17061725674E+03 0.  0.
         24    2    3    3    0    0 -0.10968047484E+03  0.30782805795E+02  0.35925119454E+02  0.14350011369E+03  0.79525346435E+02 0.  0.
         -6    2    1    2    0  502  0.40324055228E+03 -0.21374283737E+03  0.12408073728E+04  0.13332199227E+04  0.17199849512E+03 0.  0.
        -24    2    5    5    0    0  0.38489708776E+03 -0.23577310049E+03  0.11544422020E+04  0.12420999583E+04  0.79629049754E+02 0.  0.
          5    1    3    3  501    0 -0.29356007743E+03  0.18296003158E+03  0.17023714613E+03  0.38555760677E+03  0.47000000000E+01 0. -1.
        -13    1    4    4    0    0 -0.36811504928E+01 -0.49217938067E+01 -0.18222944737E+02  0.19231501192E+02  0.00000000000E+00 0.  1.
         14    1    4    4    0    0 -0.10599932435E+03  0.35704599602E+02  0.54148064191E+02  0.12426861249E+03  0.00000000000E+00 0. -1.
         -5    1    5    5    0  502  0.18343464520E+02  0.22030263112E+02  0.86365170740E+02  0.91119964334E+02  0.47000000000E+01 0.  1.
         13    1    6    6    0    0  0.14319797952E+03 -0.65526616914E+02  0.31606746452E+03  0.35312609786E+03  0.00000000000E+00 0. -1.
        -14    1    6    6    0    0  0.24169910824E+03 -0.17024648357E+03  0.83837473751E+03  0.88897386047E+03  0.00000000000E+00 0.  1.
</event>
<event>
12    1  0.8449700E-002  0.1808346E+03  0.7818608E-02  0.1167540E+00
         21   -1    0    0  503  502  0.00000000000E+00  0.00000000000E+00  0.12563119106E+03  0.12563119106E+03  0.00000000000E+00 0.  1.
         21   -1    0    0  501  503 -0.00000000000E+00 -0.00000000000E+00 -0.41625907133E+03  0.41625907133E+03  0.00000000000E+00 0.  1.
          6    2    1    2  501    0 -0.51705059696E+02 -0.78048879249E+01 -0.31341815515E+03  0.36184539995E+03  0.17310928346E+03 0.  0.
         24    2    3    3    0    0 -0.76391645445E+01  0.36950296227E+02 -0.27279683826E+03  0.28689867881E+03  0.80430440222E+02 0.  0.
         -6    2    1    2    0  502  0.51705059696E+02  0.78048879249E+01  0.22790274878E+02  0.18004486244E+03  0.17077009805E+03 0.  0.
        -24    2    5    5    0    0 -0.15931675338E+02  0.27360198943E+02 -0.32438661900E+02  0.90437588334E+02  0.78257854766E+02 0.  0.
          5    1    3    3  501    0 -0.44065895151E+02 -0.44755184152E+02 -0.40621316887E+02  0.74946721140E+02  0.47000000000E+01 0. -1.
        -11    1    4    4    0    0 -0.13182960863E+02  0.30419466521E+02 -0.32423023050E+02  0.46372263523E+02  0.00000000000E+00 0.  1.
         12    1    4    4    0    0  0.55437963181E+01  0.65308297067E+01 -0.24037381521E+03  0.24052641529E+03  0.00000000000E+00 0. -1.
         -5    1    5    5    0  502  0.67636735033E+02 -0.19555311018E+02  0.55228936778E+02  0.89607274106E+02  0.47000000000E+01 0.  1.
         11    1    6    6    0    0 -0.40742334957E+02  0.23880156288E+02  0.26769058980E+01  0.47300798590E+02  0.00000000000E+00 0. -1.
        -12    1    6    6    0    0  0.24810659620E+02  0.34800426551E+01 -0.35115567798E+02  0.43136789744E+02  0.00000000000E+00 0.  1.
</event>
<event>
12    1  0.8449700E-002  0.1860506E+03  0.7818608E-02  0.1162220E+00
         21   -1    0    0  501  502  0.00000000000E+00  0.00000000000E+00  0.98025562596E+02  0.98025562596E+02  0.00000000000E+00 0.  1.
         21   -1    0    0  502  503 -0.00000000000E+00 -0.00000000000E+00 -0.45440042871E+03  0.45440042871E+03  0.00000000000E+00 0.  1.
         -6    2    1    2    0  503  0.30726457440E+02 -0.68563552846E+02 -0.30912746864E+03  0.36046989905E+03  0.16951011853E+03 0.  0.
        -24    2    3    3    0    0  0.59394516895E+02  0.11743552119E+02 -0.18034275806E+03  0.20594261854E+03  0.78887464739E+02 0.  0.
          6    2    1    2  501    0 -0.30726457440E+02  0.68563552846E+02 -0.47247397474E+02  0.19195609226E+03  0.17020501997E+03 0.  0.
         24    2    5    5    0    0 -0.31643551975E+02 -0.15310378278E+02  0.14347031853E+02  0.87784881707E+02  0.79149390830E+02 0.  0.
          5    1    5    5  501    0  0.91709453490E+00  0.83873931123E+02 -0.61594429327E+02  0.10417121056E+03  0.47000000000E+01 0. -1.
        -11    1    6    6    0    0 -0.59781512658E+00  0.20544560126E+02  0.31277029969E+02  0.37425779048E+02  0.00000000000E+00 0.  1.
         12    1    6    6    0    0 -0.31045736849E+02 -0.35854938404E+02 -0.16929998115E+02  0.50359102659E+02  0.00000000000E+00 0. -1.
         -5    1    3    3    0  503 -0.28668059454E+02 -0.80307104965E+02 -0.12878471059E+03  0.15452728051E+03  0.47000000000E+01 0.  1.
         11    1    4    4    0    0  0.13745388591E+02  0.27123536462E+01 -0.14941033331E+03  0.15006578647E+03  0.00000000000E+00 0. -1.
        -12    1    4    4    0    0  0.45649128304E+02  0.90311984728E+01 -0.30932424744E+02  0.55876832062E+02  0.00000000000E+00 0.  1.
</event>
<event>
12    1  0.8449700E-002  0.3705519E+03  0.7818608E-02  0.1054498E+00
         21   -1    0    0  501  502  0.00000000000E+00  0.00000000000E+00  0.32350826598E+03  0.32350826598E+03  0.00000000000E+00 0. -1.
         21   -1    0    0  502  503 -0.00000000000E+00 -0.00000000000E+00 -0.46500180633E+03  0.46500180633E+03  0.00000000000E+00 0. -1.
         -6    2    1    2    0  503 -0.12250934708E+03  0.30433807773E+03 -0.18744617663E+03  0.41511970636E+03  0.17192468060E+03 0.  0.
        -24    2    3    3    0    0 -0.98586722148E+02  0.15751138799E+03 -0.40649854495E+02  0.20607038444E+03  0.79267985612E+02 0.  0.
          6    2    1    2  501    0  0.12250934708E+03 -0.30433807773E+03  0.45952636280E+02  0.37339036594E+03  0.17227453358E+03 0.  0.
         24    2    5    5    0    0  0.79786958938E+02 -0.29950507708E+03  0.64856841960E+02  0.32618846623E+03  0.78251233478E+02 0.  0.
          5    1    5    5  501    0  0.42722388142E+02 -0.48330006490E+01 -0.18904205680E+02  0.47201899710E+02  0.47000000000E+01 0. -1.
        -11    1    6    6    0    0  0.22881940588E+02 -0.11206681731E+02  0.92934046661E+01  0.27120846055E+02  0.00000000000E+00 0.  1.
         12    1    6    6    0    0  0.56905018350E+02 -0.28829839535E+03  0.55563437294E+02  0.29906762018E+03  0.00000000000E+00 0. -1.
         -5    1    3    3    0  503 -0.23922624932E+02  0.14682668974E+03 -0.14679632213E+03  0.20904932192E+03  0.47000000000E+01 0.  1.
         13    1    4    4    0    0 -0.64650813405E+02  0.88434457840E+02 -0.62427782985E+02  0.12608572122E+03  0.00000000000E+00 0. -1.
        -14    1    4    4    0    0 -0.33935908743E+02  0.69076930151E+02  0.21777928490E+02  0.79984663221E+02  0.00000000000E+00 0.  1.
</event>
<event>
12    1  0.8449700E-002  0.2066563E+03  0.7818608E-02  0.1144371E+00
         21   -1    0    0  503  502  0.00000000000E+00  0.00000000000E+00  0.68238877841E+03  0.68238877841E+03  0.00000000000E+00 0. -1.
         21   -1    0    0  501  503 -0.00000000000E+00 -0.00000000000E+00 -0.62451278661E+02  0.62451278661E+02  0.00000000000E+00 0. -1.
          6    2    1    2  501    0 -0.10793060665E+03 -0.34999319613E+02  0.32197224901E+03  0.38258718033E+03  0.17272189553E+03 0.  0.
         24    2    3    3    0    0 -0.67971798994E+02 -0.82018989219E+02  0.15547448982E+03  0.20496074802E+03  0.80556261044E+02 0.  0.
         -6    2    1    2    0  502  0.10793060665E+03  0.34999319613E+02  0.29796525074E+03  0.36225287674E+03  0.17195897137E+03 0.  0.
        -24    2    5    5    0    0  0.12701947910E+03  0.68350697144E+02  0.25599010764E+03  0.30515031924E+03  0.82340854095E+02 0.  0.
          5    1    3    3  501    0 -0.39958807656E+02  0.47019669606E+02  0.16649775919E+03  0.17762643231E+03  0.47000000000E+01 0. -1.
        -11    1    4    4    0    0 -0.61900975623E+02 -0.54648289455E+02  0.15645504178E+03  0.17690773421E+03  0.00000000000E+00 0.  1.
         12    1    4    4    0    0 -0.60708233715E+01 -0.27370699764E+02 -0.98055195927E+00  0.28053013816E+02  0.00000000000E+00 0. -1.
         -5    1    5    5    0  502 -0.19088872452E+02 -0.33351377531E+02  0.41975143105E+02  0.57102557503E+02  0.47000000000E+01 0.  1.
         11    1    6    6    0    0  0.85575576698E+02  0.15826652451E+02  0.85489060032E+02  0.12199197367E+03  0.00000000000E+00 0. -1.
        -12    1    6    6    0    0  0.41443902404E+02  0.52524044693E+02  0.17050104760E+03  0.18315834557E+03  0.00000000000E+00 0.  1.
</event>
<event>
12    1  0.8449700E-002  0.1933879E+03  0.7818608E-02  0.1155524E+00
         21   -1    0    0  503  502  0.00000000000E+00  0.00000000000E+00  0.26824692830E+03  0.26824692830E+03  0.00000000000E+00 0. -1.
         21   -1    0    0  501  503 -0.00000000000E+00 -0.00000000000E+00 -0.25462484506E+03  0.25462484506E+03  0.00000000000E+00 0. -1.
          6    2    1    2  501    0  0.66292102119E+02  0.58470353996E+02 -0.16924549099E+03  0.25698813657E+03  0.17200418896E+03 0.  0.
         24    2    3    3    0    0  0.10155791809E+03  0.52299150968E+02 -0.17118780471E+03  0.22082705106E+03  0.80063163059E+02 0.  0.
         -6    2    1    2    0  502 -0.66292102119E+02 -0.58470353996E+02  0.18286757423E+03  0.26588363678E+03  0.17158127376E+03 0.  0.
        -24    2    5    5    0    0 -0.24488932994E+02 -0.59930573237E+02  0.19606381072E+03  0.22177164468E+03  0.80933695494E+02 0.  0.
          5    1    3    3  501    0 -0.35265815972E+02  0.61712030276E+01  0.19423137219E+01  0.36161085515E+02  0.47000000000E+01 0. -1.
        -11    1    4    4    0    0  0.47323334171E+02  0.17178901482E+02 -0.16162542388E+02  0.52875706990E+02  0.00000000000E+00 0.  1.
         12    1    4    4    0    0  0.54234583920E+02  0.35120249486E+02 -0.15502526232E+03  0.16795134407E+03  0.00000000000E+00 0. -1.
         -5    1    5    5    0  502 -0.41803169126E+02  0.14602192412E+01 -0.13196236488E+02  0.44111992096E+02  0.47000000000E+01 0.  1.
         13    1    6    6    0    0 -0.30488643373E+02 -0.70323274708E+01  0.18389910008E+02  0.36293247230E+02  0.00000000000E+00 0. -1.
        -14    1    6    6    0    0  0.59997103800E+01 -0.52898245766E+02  0.17767390071E+03  0.18547839745E+03  0.00000000000E+00 0.  1.
</event>
<event>
12    1  0.8449700E-002  0.2377095E+03  0.7818608E-02  0.1121467E+00
         21   -1    0    0  501  502  0.00000000000E+00  0.00000000000E+00  0.62742809346E+02  0.62742809346E+02  0.00000000000E+00 0.  1.
         21   -1    0    0  502  503 -0.00000000000E+00 -0.00000000000E+00 -0.10279329267E+04  0.10279329267E+04  0.00000000000E+00 0.  1.
         -6    2    1    2    0  503  0.15085037459E+03  0.63226211335E+02 -0.67612949133E+03  0.71642732562E+03  0.17135820536E+03 0.  0.
        -24    2    3    3    0    0  0.10129564230E+03  0.10906782363E+03 -0.45692106098E+03  0.48701165300E+03  0.79037313277E+02 0.  0.
          6    2    1    2  501    0 -0.15085037459E+03 -0.63226211335E+02 -0.28906062599E+03  0.37424841038E+03  0.17248894998E+03 0.  0.
         24    2    5    5    0    0 -0.23988040963E+02 -0.43640658785E+01 -0.44566464614E+02  0.92542377780E+02  0.77352768126E+02 0.  0.
          5    1    5    5  501    0 -0.12686233362E+03 -0.58862145456E+02 -0.24449416137E+03  0.28170603260E+03  0.47000000000E+01 0. -1.
        -13    1    6    6    0    0 -0.50473672616E+02 -0.12394983376E+02 -0.37162518224E+02  0.63892722598E+02  0.00000000000E+00 0.  1.
         14    1    6    6    0    0  0.26485631653E+02  0.80309174971E+01 -0.74039463899E+01  0.28649655182E+02  0.00000000000E+00 0. -1.
         -5    1    3    3    0  503  0.49554732290E+02 -0.45841612294E+02 -0.21920843035E+03  0.22941567263E+03  0.47000000000E+01 0.  1.
         13    1    4    4    0    0 -0.12354057711E+02  0.17558992696E+02 -0.80094966682E+02  0.82922521996E+02  0.00000000000E+00 0. -1.
        -14    1    4    4    0    0  0.11364970001E+03  0.91508830933E+02 -0.37682609430E+03  0.40408913100E+03  0.00000000000E+00 0.  1.
</event>
<event>
12    1  0.8449700E-002  0.1923090E+03  0.7818608E-02  0.1157445E+00
         21   -1    0    0  503  502  0.00000000000E+00  0.00000000000E+00  0.56463568922E+02  0.56463568922E+02  0.00000000000E+00 0.  1.
         21   -1    0    0  501  503 -0.00000000000E+00 -0.00000000000E+00 -0.93908540729E+03  0.93908540729E+03  0.00000000000E+00 0.  1.
          6    2    1    2  501    0  0.54359271583E+02 -0.56556785664E+02 -0.71890827518E+03  0.74299226936E+03  0.17045469720E+03 0.  0.
         24    2    3    3    0    0  0.69621986702E+02 -0.82941528335E+02 -0.67961327386E+03  0.69303936907E+03  0.81870916222E+02 0.  0.
         -6    2    1    2    0  502 -0.54359271583E+02  0.56556785664E+02 -0.16371356319E+03  0.25255670685E+03  0.17558234248E+03 0.  0.
        -24    2    5    5    0    0 -0.62919844141E+02 -0.21530941896E+02 -0.12955882651E+03  0.16676852214E+03  0.81263535522E+02 0.  0.
          5    1    3    3  501    0 -0.15262715119E+02  0.26384742671E+02 -0.39295001321E+02  0.49952900291E+02  0.47000000000E+01 0. -1.
        -11    1    4    4    0    0  0.46475231468E+02 -0.29422946771E+01 -0.34923974999E+03  0.35233082070E+03  0.00000000000E+00 0.  1.
         12    1    4    4    0    0  0.23146755233E+02 -0.79999233658E+02 -0.33037352386E+03  0.34070854837E+03  0.00000000000E+00 0. -1.
         -5    1    5    5    0  502  0.85605725577E+01  0.78087727560E+02 -0.34154736679E+02  0.85788184709E+02  0.47000000000E+01 0.  1.
         13    1    6    6    0    0  0.15746993474E+02  0.48815628859E+01 -0.46599870626E+02  0.49430207384E+02  0.00000000000E+00 0. -1.
        -14    1    6    6    0    0 -0.78666837615E+02 -0.26412504781E+02 -0.82958955886E+02  0.11733831476E+03  0.00000000000E+00 0.  1.
</event>
<event>
12    1  0.8449700E-002  0.1822157E+03  0.7818608E-02  0.1166897E+00
         21   -1    0    0  503  502  0.00000000000E+00  0.00000000000E+00  0.16871728932E+02  0.16871728932E+02  0.00000000000E+00 0. -1.
         21   -1    0    0  501  503 -0.00000000000E+00 -0.00000000000E+00 -0.22142450566E+04  0.22142450566E+04  0.00000000000E+00 0. -1.
          6    2    1    2  501    0 -0.35320276428E+02  0.26348516039E+02 -0.14962589320E+04  0.15067108637E+04  0.17159565575E+03 0.  0.
         24    2    3    3    0    0  0.40892405819E+02 -0.10956158490E+02 -0.68961586608E+03  0.69560351111E+03  0.80634829075E+02 0.  0.
         -6    2    1    2    0  502  0.35320276428E+02 -0.26348516039E+02 -0.70111439574E+03  0.72440592187E+03  0.17680717606E+03 0.  0.
        -24    2    5    5    0    0  0.90269441303E+02 -0.84729355168E+00 -0.49756334191E+03  0.51197982982E+03  0.80029850624E+02 0.  0.
          5    1    3    3  501    0 -0.76212682247E+02  0.37304674530E+02 -0.80664306590E+03  0.81110735260E+03  0.47000000000E+01 0. -1.
        -11    1    4    4    0    0  0.16137362667E+02  0.31119173253E+02 -0.16283364271E+03  0.16656413965E+03  0.00000000000E+00 0.  1.
         12    1    4    4    0    0  0.24755043151E+02 -0.42075331743E+02 -0.52678222336E+03  0.52903937146E+03  0.00000000000E+00 0. -1.
         -5    1    5    5    0  502 -0.54949164875E+02 -0.25501222488E+02 -0.20355105382E+03  0.21242609204E+03  0.47000000000E+01 0.  1.
         13    1    6    6    0    0  0.67201166347E+02  0.35076771114E+02 -0.36203730525E+03  0.36988834399E+03  0.00000000000E+00 0. -1.
        -14    1    6    6    0    0  0.23068274957E+02 -0.35924064666E+02 -0.13552603667E+03  0.14209148583E+03  0.00000000000E+00 0.  1.
</event>
<event>
12    1  0.8449700E-002  0.1825009E+03  0.7818608E-02  0.1166816E+00
         21   -1    0    0  503  502  0.00000000000E+00  0.00000000000E+00  0.22971716066E+03  0.22971716066E+03  0.00000000000E+00 0. -1.
         21   -1    0    0  501  503 -0.00000000000E+00 -0.00000000000E+00 -0.15678980657E+03  0.15678980657E+03  0.00000000000E+00 0. -1.
          6    2    1    2  501    0  0.52743592329E+02  0.24592138078E+02 -0.26563579057E+02  0.17864879934E+03  0.16680260785E+03 0.  0.
         24    2    3    3    0    0  0.88585337499E+02  0.41935350100E+02  0.59334394871E+01  0.12703907240E+03  0.80608837011E+02 0.  0.
         -6    2    1    2    0  502 -0.52743592329E+02 -0.24592138078E+02  0.99490933140E+02  0.20785816789E+03  0.17297373325E+03 0.  0.
        -24    2    5    5    0    0 -0.12120511713E+02 -0.77745179782E+02  0.59531362981E+02  0.12979192827E+03  0.84325213800E+02 0.  0.
          5    1    3    3  501    0 -0.35841745170E+02 -0.17343212023E+02 -0.32497018544E+02  0.51609726935E+02  0.47000000000E+01 0. -1.
        -13    1    4    4    0    0 -0.71592312886E+01  0.87320751386E+01  0.21718607312E+02  0.24478595394E+02  0.00000000000E+00 0.  1.
         14    1    4    4    0    0  0.95744568788E+02  0.33203274962E+02 -0.15785167825E+02  0.10256047701E+03  0.00000000000E+00 0. -1.
         -5    1    5    5    0  502 -0.40623080616E+02  0.53153041705E+02  0.39959570160E+02  0.78066239621E+02  0.47000000000E+01 0.  1.
         13    1    6    6    0    0 -0.31310803069E+02 -0.51223492891E+02  0.72893606906E+02  0.94433524452E+02  0.00000000000E+00 0. -1.
        -14    1    6    6    0    0  0.19190291356E+02 -0.26521686891E+02 -0.13362243925E+02  0.35358403819E+02  0.00000000000E+00 0.  1.
</event>
<event>
12    1  0.8449700E-002  0.2307968E+03  0.7818608E-02  0.1127664E+00
         21   -1    0    0  501  502  0.00000000000E+00  0.00000000000E+00  0.21067991561E+03  0.21067991561E+03  0.00000000000E+00 0.  1.
         21   -1    0    0  502  503 -0.00000000000E+00 -0.00000000000E+00 -0.24324072968E+03  0.24324072968E+03  0.00000000000E+00 0. -1.
         -6    2    1    2    0  503 -0.11091512282E+03  0.83399690096E+02 -0.14291101249E+02  0.22240189615E+03  0.17320708721E+03 0.  0.
        -24    2    3    3    0    0 -0.10040648225E+03  0.14382908562E+02 -0.55091815510E+02  0.14140476075E+03  0.81681506404E+02 0.  0.
          6    2    1    2  501    0  0.11091512282E+03 -0.83399690096E+02 -0.18269712822E+02  0.23151874914E+03  0.18441658282E+03 0.  0.
         24    2    5    5    0    0  0.15046696614E+03 -0.65342671276E+02 -0.31430445795E+02  0.18584929401E+03  0.81499169162E+02 0.  0.
          5    1    5    5  501    0 -0.39551843322E+02 -0.18057018821E+02  0.13160732973E+02  0.45669455123E+02  0.47000000000E+01 0. -1.
        -11    1    6    6    0    0  0.11698805481E+02  0.13453237887E+02 -0.18585929662E+02  0.25754386825E+02  0.00000000000E+00 0.  1.
         12    1    6    6    0    0  0.13876816066E+03 -0.78795909162E+02 -0.12844516133E+02  0.16009490719E+03  0.00000000000E+00 0. -1.
         -5    1    3    3    0  503 -0.10508640564E+02  0.69016781534E+02  0.40800714261E+02  0.80997135407E+02  0.47000000000E+01 0.  1.
         11    1    4    4    0    0 -0.35562064518E+02  0.15043271719E+02 -0.65197940282E+02  0.75774216418E+02  0.00000000000E+00 0. -1.
        -12    1    4    4    0    0 -0.64844417736E+02 -0.66036315689E+00  0.10106124772E+02  0.65630544329E+02  0.00000000000E+00 0.  1.
</event>
<event>
12    1  0.8449700E-002  0.1754594E+03  0.7818608E-02  0.1172829E+00
         21   -1    0    0  501  502  0.00000000000E+00  0.00000000000E+00  0.21264051521E+03  0.21264051521E+03  0.00000000000E+00 0.  1.
         21   -1    0    0  502  503 -0.00000000000E+00 -0.00000000000E+00 -0.18064143516E+03  0.18064143516E+03  0.00000000000E+00 0.  1.
         -6    2    1    2    0  503  0.80911257997E+01 -0.29220337092E+02 -0.73891417773E+02  0.18834590568E+03  0.17057240148E+03 0.  0.
        -24    2    3    3    0    0  0.35567967318E+02 -0.19027200319E+02 -0.11001612049E+03  0.14159164380E+03  0.79482904914E+02 0.  0.
          6    2    1    2  501    0 -0.80911257997E+01  0.29220337092E+02  0.10589049782E+03  0.20493604470E+03  0.17281982083E+03 0.  0.
         24    2    5    5    0    0  0.14089659775E+02 -0.72514358469E+01  0.13181537128E+03  0.15477264635E+03  0.79549846746E+02 0.  0.
          5    1    5    5  501    0 -0.22180785574E+02  0.36471772939E+02 -0.25924873459E+02  0.50163398349E+02  0.47000000000E+01 0. -1.
        -11    1    6    6    0    0 -0.22957328880E+02 -0.23617268087E+02  0.93059133021E+02  0.98715837330E+02  0.00000000000E+00 0.  1.
         12    1    6    6    0    0  0.37046988654E+02  0.16365832240E+02  0.38756238262E+02  0.56056809020E+02  0.00000000000E+00 0. -1.
         -5    1    3    3    0  503 -0.27476841519E+02 -0.10193136773E+02  0.36124702721E+02  0.46754261879E+02  0.47000000000E+01 0.  1.
         13    1    4    4    0    0  0.51004500034E+02 -0.18453050557E+02 -0.33985590700E+02  0.64007768855E+02  0.00000000000E+00 0. -1.
        -14    1    4    4    0    0 -0.15436532716E+02 -0.57414976175E+00 -0.76030529794E+02  0.77583874942E+02  0.00000000000E+00 0.  1.
</event>
<event>
12    1  0.8449700E-002  0.2031616E+03  0.7818608E-02  0.1149814E+00
         21   -1    0    0  503  502  0.00000000000E+00  0.00000000000E+00  0.79622269599E+02  0.79622269599E+02  0.00000000000E+00 0. -1.
         21   -1    0    0  501  503 -0.00000000000E+00 -0.00000000000E+00 -0.59972740488E+03  0.59972740488E+03  0.00000000000E+00 0. -1.
          6    2    1    2  501    0 -0.18991823631E+02  0.82200590426E+02 -0.40077915504E+03  0.44373702410E+03  0.17076588948E+03 0.  0.
         24    2    3    3    0    0 -0.22747080388E+02  0.69198087499E+02 -0.11886062584E+03  0.16145469355E+03  0.81449154163E+02 0.  0.
         -6    2    1    2    0  502  0.18991823631E+02 -0.82200590426E+02 -0.11932598025E+03  0.23561265039E+03  0.18481613844E+03 0.  0.
        -24    2    5    5    0    0 -0.46163952326E+02  0.12643444219E+01 -0.34874499094E+02  0.10009212368E+03  0.81666966850E+02 0.  0.
          5    1    3    3  501    0  0.37552567572E+01  0.13002502927E+02 -0.28191852919E+03  0.28228233055E+03  0.47000000000E+01 0. -1.
        -11    1    4    4    0    0 -0.19544819092E+02 -0.14521864918E+02 -0.17687880423E+02  0.30095608116E+02  0.00000000000E+00 0.  1.
         12    1    4    4    0    0 -0.32022612962E+01  0.83719952418E+02 -0.10117274542E+03  0.13135908543E+03  0.00000000000E+00 0. -1.
         -5    1    5    5    0  502  0.65155775957E+02 -0.83464934848E+02 -0.84451481155E+02  0.13552052671E+03  0.47000000000E+01 0.  1.
         11    1    6    6    0    0 -0.27246874598E+02 -0.39473002016E+02 -0.10931187510E+02  0.49193504895E+02  0.00000000000E+00 0. -1.
        -12    1    6    6    0    0 -0.18917077729E+02  0.40737346438E+02 -0.23943311584E+02  0.50898618785E+02  0.00000000000E+00 0.  1.
</event>
<event>
12    1  0.8449700E-002  0.1735267E+03  0.7818608E-02  0.1174339E+00
         21   -1    0    0  501  502  0.00000000000E+00  0.00000000000E+00  0.52627938764E+02  0.52627938764E+02  0.00000000000E+00 0. -1.
         21   -1    0    0  502  503 -0.00000000000E+00 -0.00000000000E+00 -0.16774293139E+04  0.16774293139E+04  0.00000000000E+00 0. -1.
         -6    2    1    2    0  503 -0.22289048492E+02  0.50548673872E+01 -0.15154381011E+04  0.15253406638E+04  0.17201496732E+03 0.  0.
        -24    2    3    3    0    0 -0.79357737418E+02  0.85406934987E+01 -0.83537311227E+03  0.84286028658E+03  0.78705984927E+02 0.  0.
          6    2    1    2  501    0  0.22289048492E+02 -0.50548673872E+01 -0.10936327396E+03  0.20471658880E+03  0.17154067352E+03 0.  0.
         24    2    5    5    0    0 -0.29409536915E+02  0.48855567374E+02 -0.58479198037E+02  0.11421599271E+03  0.79835387288E+02 0.  0.
          5    1    5    5  501    0  0.51698585407E+02 -0.53910434762E+02 -0.50884075926E+02  0.90500596087E+02  0.47000000000E+01 0. -1.
        -13    1    6    6    0    0 -0.17530850672E+02  0.22993489852E+02  0.17005655912E+02  0.33544353233E+02  0.00000000000E+00 0.  1.
         14    1    6    6    0    0 -0.11878686243E+02  0.25862077523E+02 -0.75484853950E+02  0.80671639480E+02  0.00000000000E+00 0. -1.
         -5    1    3    3    0  503  0.57068688926E+02 -0.34858261115E+01 -0.68006498888E+03  0.68248037726E+03  0.47000000000E+01 0.  1.
         13    1    4    4    0    0 -0.46893395056E+02  0.28697207548E+02 -0.70119331727E+03  0.70334528391E+03  0.00000000000E+00 0. -1.
        -14    1    4    4    0    0 -0.32464342362E+02 -0.20156514049E+02 -0.13417979500E+03  0.13951500267E+03  0.00000000000E+00 0.  1.
</event>
<event>
12    1  0.8449700E-002  0.1994182E+03  0.7818608E-02  0.1150603E+00
         21   -1    0    0  501  502  0.00000000000E+00  0.00000000000E+00  0.69637596191E+03  0.69637596191E+03  0.00000000000E+00 0.  1.
         21   -1    0    0  502  503 -0.00000000000E+00 -0.00000000000E+00 -0.13921533921E+03  0.13921533921E+03  0.00000000000E+00 0. -1.
         -6    2    1    2    0  503  0.97669462299E+02  0.88994427950E+01 -0.42754316689E+02  0.20394985556E+03  0.17363492748E+03 0.  0.
        -24    2    3    3    0    0  0.88852170552E+02 -0.55516916021E+02 -0.14177968186E+02  0.13277465194E+03  0.80319718876E+02 0.  0.
          6    2    1    2  501    0 -0.97669462299E+02 -0.88994427950E+01  0.59991493939E+03  0.63164144555E+03  0.17162300919E+03 0.  0.
         24    2    5    5    0    0 -0.28338820540E+02 -0.64714830965E+02  0.24079189926E+03  0.26162314412E+03  0.73992112354E+02 0.  0.
          5    1    5    5  501    0 -0.69330641759E+02  0.55815388170E+02  0.35912304013E+03  0.37001830143E+03  0.47000000000E+01 0. -1.
        -11    1    6    6    0    0  0.12814160114E+02 -0.41021042032E+02  0.17673150722E+03  0.18188170395E+03  0.00000000000E+00 0.  1.
         12    1    6    6    0    0 -0.41152980654E+02 -0.23693788933E+02  0.64060392045E+02  0.79741440165E+02  0.00000000000E+00 0. -1.
         -5    1    3    3    0  503  0.88172917470E+01  0.64416358816E+02 -0.28576348503E+02  0.71175203622E+02  0.47000000000E+01 0.  1.
         11    1    4    4    0    0  0.62768462201E+02 -0.29966372072E+02  0.29752762565E+02  0.75651108270E+02  0.00000000000E+00 0. -1.
        -12    1    4    4    0    0  0.26083708350E+02 -0.25550543949E+02 -0.43930730750E+02  0.57123543672E+02  0.00000000000E+00 0.  1.
</event>
<event>
12    1  0.8449700E-002  0.2404389E+03  0.7818608E-02  0.1119739E+00
         21   -1    0    0  501  502  0.00000000000E+00  0.00000000000E+00  0.13413334856E+04  0.13413334856E+04  0.00000000000E+00 0. -1.
         21   -1    0    0  502  503 -0.00000000000E+00 -0.00000000000E+00 -0.12279352232E+03  0.12279352232E+03  0.00000000000E+00 0.  1.
         -6    2    1    2    0  503 -0.10847590890E+03 -0.12732419682E+03  0.17936252841E+02  0.23968421815E+03  0.17072885332E+03 0.  0.
        -24    2    3    3    0    0 -0.77841612854E+02 -0.10110143658E+02 -0.17428793654E+02  0.11338944048E+03  0.79949175526E+02 0.  0.
          6    2    1    2  501    0  0.10847590890E+03  0.12732419682E+03  0.12006037104E+04  0.12244427897E+04  0.17272058932E+03 0.  0.
         24    2    5    5    0    0  0.61292578076E+02  0.14378856100E+03  0.71338065461E+03  0.73464105628E+03  0.79709427262E+02 0.  0.
          5    1    5    5  501    0  0.47183330824E+02 -0.16464364180E+02  0.48722305579E+03  0.48980173344E+03  0.47000000000E+01 0. -1.
        -11    1    6    6    0    0 -0.19480510686E+02  0.23846474809E+02  0.13282135556E+03  0.13634389297E+03  0.00000000000E+00 0.  1.
         12    1    6    6    0    0  0.80773088762E+02  0.11994208619E+03  0.58055929905E+03  0.59829716331E+03  0.00000000000E+00 0. -1.
         -5    1    3    3    0  503 -0.30634296046E+02 -0.11721405316E+03  0.35365046495E+02  0.12629477767E+03  0.47000000000E+01 0.  1.
         11    1    4    4    0    0 -0.68958116891E+01  0.16017237557E+02 -0.31954108729E+02  0.36402873272E+02  0.00000000000E+00 0. -1.
        -12    1    4    4    0    0 -0.70945801165E+02 -0.26127381215E+02  0.14525315076E+02  0.76986567206E+02  0.00000000000E+00 0.  1.
</event>
<event>
12    1  0.8449700E-002  0.1895326E+03  0.7818608E-02  0.1158964E+00
         21   -1    0    0  501  502  0.00000000000E+00  0.00000000000E+00  0.26384995494E+03  0.26384995494E+03  0.00000000000E+00 0. -1.
         21   -1    0    0  502  503 -0.00000000000E+00 -0.00000000000E+00 -0.13867154746E+03  0.13867154746E+03  0.00000000000E+00 0. -1.
         -6    2    1    2    0  503 -0.73289600689E+02  0.31277477907E+02  0.34039723823E+02  0.19221491963E+03  0.17157571604E+03 0.  0.
        -24    2    3    3    0    0 -0.42285538146E+02  0.87368183989E+01  0.87737595584E+02  0.12607200877E+03  0.79573029248E+02 0.  0.
          6    2    1    2  501    0  0.73289600689E+02 -0.31277477907E+02  0.91138683659E+02  0.21030658278E+03  0.17196788336E+03 0.  0.
         24    2    5    5    0    0  0.62542152251E+02 -0.86221388244E+02  0.64259616096E+02  0.14802564506E+03  0.80228702685E+02 0.  0.
          5    1    5    5  501    0  0.10747448438E+02  0.54943910336E+02  0.26879067563E+02  0.62280937726E+02  0.47000000000E+01 0. -1.
        -13    1    6    6    0    0  0.10053984954E+02 -0.28743378212E+02 -0.17514485081E+02  0.35128643472E+02  0.00000000000E+00 0.  1.
         14    1    6    6    0    0  0.52488167297E+02 -0.57478010032E+02  0.81774101177E+02  0.11289700158E+03  0.00000000000E+00 0. -1.
         -5    1    3    3    0  503 -0.31004062543E+02  0.22540659508E+02 -0.53697871761E+02  0.66142910859E+02  0.47000000000E+01 0.  1.
         13    1    4    4    0    0 -0.61917594611E+01 -0.15296232238E+02 -0.98961483334E+01  0.19241786761E+02  0.00000000000E+00 0. -1.
        -14    1    4    4    0    0 -0.36093778685E+02  0.24033050637E+02  0.97633743917E+02  0.10683022201E+03  0.00000000000E+00 0.  1.
</event>
<event>
12    1  0.8449700E-002  0.2141331E+03  0.7818608E-02  0.1138724E+00
         21   -1    0    0  503  502  0.00000000000E+00  0.00000000000E+00  0.13828070868E+03  0.13828070868E+03  0.00000000000E+00 0.  1.
         21   -1    0    0  501  503 -0.00000000000E+00 -0.00000000000E+00 -0.33339167063E+03  0.33339167063E+03  0.00000000000E+00 0.  1.
          6    2    1    2  501    0  0.11179491487E+03 -0.61307141122E+02 -0.12569299407E+03  0.24656833137E+03  0.16953036523E+03 0.  0.
         24    2    3    3    0    0  0.80220939594E+02 -0.95780612352E+02 -0.51807695341E+02  0.15900998796E+03  0.83611088506E+02 0.  0.
         -6    2    1    2    0  502 -0.11179491487E+03  0.61307141122E+02 -0.69417967874E+02  0.22510404794E+03  0.17203577997E+03 0.  0.
        -24    2    5    5    0    0 -0.69322459285E+02 -0.29037077665E+02 -0.57513488853E+02  0.12445717033E+03  0.80827165019E+02 0.  0.
          5    1    3    3  501    0  0.31573975278E+02  0.34473471230E+02 -0.73885298729E+02  0.87558343416E+02  0.47000000000E+01 0. -1.
        -11    1    4    4    0    0 -0.12868611453E+02 -0.34925718323E+02 -0.24272800206E+02  0.44436199105E+02  0.00000000000E+00 0.  1.
         12    1    4    4    0    0  0.93089551047E+02 -0.60854894029E+02 -0.27534895135E+02  0.11457378885E+03  0.00000000000E+00 0. -1.
         -5    1    5    5    0  502 -0.42472455586E+02  0.90344218786E+02 -0.11904479021E+02  0.10064687761E+03  0.47000000000E+01 0.  1.
         11    1    6    6    0    0 -0.80599056978E+02 -0.19187496873E+01 -0.37496429244E+02  0.88914969449E+02  0.00000000000E+00 0. -1.
        -12    1    6    6    0    0  0.11276597693E+02 -0.27118327977E+02 -0.20017059608E+02  0.35542200877E+02  0.00000000000E+00 0.  1.
</event>
<event>
12    1  0.8449700E-002  0.1842355E+03  0.7818608E-02  0.1164255E+00
         21   -1    0    0  503  502  0.00000000000E+00  0.00000000000E+00  0.11915586292E+04  0.11915586292E+04  0.00000000000E+00 0.  1.
         21   -1    0    0  501  503 -0.00000000000E+00 -0.00000000000E+00 -0.37639375968E+02  0.37639375968E+02  0.00000000000E+00 0.  1.
          6    2    1    2  501    0 -0.30081711548E+02  0.58317960313E+02  0.27107655715E+03  0.32775787255E+03  0.17215350511E+03 0.  0.
         24    2    3    3    0    0  0.47738678578E+02  0.39075970945E+02  0.12299812273E+03  0.15930734565E+03  0.80276891107E+02 0.  0.
         -6    2    1    2    0  502  0.30081711548E+02 -0.58317960313E+02  0.88284269613E+03  0.90144013266E+03  0.16993290674E+03 0.  0.
        -24    2    5    5    0    0  0.63385996545E+01 -0.41641684876E+02  0.85869485789E+03  0.86340013244E+03  0.79553264968E+02 0.  0.
          5    1    3    3  501    0 -0.77820390126E+02  0.19241989369E+02  0.14807843442E+03  0.16845052690E+03  0.47000000000E+01 0. -1.
        -13    1    4    4    0    0 -0.12748967543E+02 -0.35142583728E+01 -0.26608078521E+01  0.13489480485E+02  0.00000000000E+00 0.  1.
         14    1    4    4    0    0  0.60487646121E+02  0.42590229317E+02  0.12565893058E+03  0.14581786517E+03  0.00000000000E+00 0. -1.
         -5    1    5    5    0  502  0.23743111894E+02 -0.16676275437E+02  0.24147838235E+02  0.38040000214E+02  0.47000000000E+01 0.  1.
         11    1    6    6    0    0 -0.30224777123E+02  0.39532978978E+01  0.36123541606E+03  0.36251922919E+03  0.00000000000E+00 0. -1.
        -12    1    6    6    0    0  0.36563376778E+02 -0.45594982774E+02  0.49745944183E+03  0.50088090325E+03  0.00000000000E+00 0.  1.
</event>
<event>
12    1  0.8449700E-002  0.1903410E+03  0.7818608E-02  0.1158247E+00
         21   -1    0    0  503  502  0.00000000000E+00  0.00000000000E+00  0.14189856692E+03  0.14189856692E+03  0.00000000000E+00 0.  1.
         21   -1    0    0  501  503 -0.00000000000E+00 -0.00000000000E+00 -0.35728712801E+03  0.35728712801E+03  0.00000000000E+00 0.  1.
          6    2    1    2  501    0 -0.71318524926E+02 -0.40575422261E+02 -0.24147707621E+03  0.30747497840E+03  0.17174686930E+03 0.  0.
         24    2    3    3    0    0 -0.84658100502E+02  0.26802450473E+02 -0.13527561063E+03  0.18091051536E+03  0.80893500399E+02 0.  0.
         -6    2    1    2    0  502  0.71318524926E+02  0.40575422261E+02  0.26088515124E+02  0.19171071652E+03  0.17128832803E+03 0.  0.
        -24    2    5    5    0    0 -0.28754117209E+02  0.21025851801E+02  0.19054371329E+02  0.89396061719E+02  0.79747734035E+02 0.  0.
          5    1    3    3  501    0  0.13339575576E+02 -0.67377872734E+02 -0.10620146559E+03  0.12656446303E+03  0.47000000000E+01 0. -1.
        -11    1    4    4    0    0 -0.59366334056E+02 -0.12434617421E+02 -0.11500000812E+03  0.13001531909E+03  0.00000000000E+00 0.  1.
         12    1    4    4    0    0 -0.25291766445E+02  0.39237067894E+02 -0.20275602503E+02  0.50895196273E+02  0.00000000000E+00 0. -1.
         -5    1    5    5    0  502  0.10007264213E+03  0.19549570460E+02  0.70341437946E+01  0.10231465481E+03  0.47000000000E+01 0.  1.
         13    1    6    6    0    0 -0.21464179738E+02 -0.26573584087E+02  0.22842056145E+02  0.41092893692E+02  0.00000000000E+00 0. -1.
        -14    1    6    6    0    0 -0.72899374709E+01  0.47599435888E+02 -0.37876848155E+01  0.48303168027E+02  0.00000000000E+00 0.  1.
</event>
<event>
12    1  0.8449700E-002  0.2095640E+03  0.7818608E-02  0.1141985E+00
         21   -1    0    0  503  502  0.00000000000E+00  0.00000000000E+00  0.67220560561E+03  0.67220560561E+03  0.00000000000E+00 0. -1.
         21   -1    0    0  501  503 -0.00000000000E+00 -0.00000000000E+00 -0.21637955122E+03  0.21637955122E+03  0.00000000000E+00 0. -1.
          6    2    1    2  501    0  0.31188936665E+02  0.11486303398E+03 -0.14349572750E+03  0.25368069736E+03  0.17203664161E+03 0.  0.
         24    2    3    3    0    0  0.37579358390E+02  0.87625848993E+01 -0.20664597884E+02  0.91176176843E+02  0.79981738834E+02 0.  0.
         -6    2    1    2    0  502 -0.31188936665E+02 -0.11486303398E+03  0.59932178190E+03  0.63490445947E+03  0.17248422551E+03 0.  0.
        -24    2    5    5    0    0 -0.34245084251E+01 -0.13417155052E+03  0.35252425162E+03  0.38575632434E+03  0.80751851753E+02 0.  0.
          5    1    3    3  501    0 -0.63904217246E+01  0.10610044908E+03 -0.12283112962E+03  0.16250452052E+03  0.47000000000E+01 0. -1.
        -11    1    4    4    0    0  0.23103960242E+02  0.39873164369E+02  0.76187323680E+01  0.46708749700E+02  0.00000000000E+00 0.  1.
         12    1    4    4    0    0  0.14475398148E+02 -0.31110579470E+02 -0.28283330252E+02  0.44467427142E+02  0.00000000000E+00 0. -1.
         -5    1    5    5    0  502 -0.27764428240E+02  0.19308516541E+02  0.24679753027E+03  0.24914813512E+03  0.47000000000E+01 0.  1.
         11    1    6    6    0    0  0.29341256268E+02 -0.44888817244E+02  0.19027300198E+03  0.19768593909E+03  0.00000000000E+00 0. -1.
        -12    1    6    6    0    0 -0.32765764694E+02 -0.89282733276E+02  0.16225124965E+03  0.18807038525E+03  0.00000000000E+00 0.  1.
</event>
<event>
12    1  0.8449700E-002  0.2730012E+03  0.7818608E-02  0.1099605E+00
         21   -1    0    0  503  502  0.00000000000E+00  0.00000000000E+00  0.43684286876E+03  0.43684286876E+03  0.00000000000E+00 0.  1.
         21   -1    0    0  501  503 -0.00000000000E+00 -0.00000000000E+00 -0.41377749949E+03  0.41377749949E+03  0.00000000000E+00 0.  1.
          6    2    1    2  501    0  0.11676483592E+03 -0.17641121398E+03 -0.31460075774E+03  0.41653725256E+03  0.17255347773E+03 0.  0.
         24    2    3    3    0    0  0.51466776024E+02 -0.13762404220E+03 -0.29294077546E+03  0.33742008532E+03  0.80304483193E+02 0.  0.
         -6    2    1    2    0  502 -0.11676483592E+03  0.17641121398E+03  0.33766612701E+03  0.43408311568E+03  0.17220567548E+03 0.  0.
        -24    2    5    5    0    0 -0.82014859294E+02  0.16280930191E+03  0.16926120349E+03  0.26152912079E+03  0.80714435387E+02 0.  0.
          5    1    3    3  501    0  0.65298059901E+02 -0.38787171776E+02 -0.21659982280E+02  0.79117167249E+02  0.47000000000E+01 0. -1.
        -11    1    4    4    0    0  0.51491884663E+02 -0.59620028478E+02 -0.20634762106E+03  0.22087395207E+03  0.00000000000E+00 0.  1.
         12    1    4    4    0    0 -0.25108638936E-01 -0.78004013723E+02 -0.86593154395E+02  0.11654613325E+03  0.00000000000E+00 0. -1.
         -5    1    5    5    0  502 -0.34749976631E+02  0.13601912066E+02  0.16840492352E+03  0.17255399490E+03  0.47000000000E+01 0.  1.
         11    1    6    6    0    0 -0.78086027591E+02  0.66179561867E+02  0.79836007496E+02  0.12981120987E+03  0.00000000000E+00 0. -1.
        -12    1    6    6    0    0 -0.39288317036E+01  0.96629740044E+02  0.89425195990E+02  0.13171791092E+03  0.00000000000E+00 0.  1.
</event>
<event>
12    1  0.8449700E-002  0.2008217E+03  0.7818608E-02  0.1149528E+00
         21   -1    0    0  503  502  0.00000000000E+00  0.00000000000E+00  0.22132415942E+04  0.22132415942E+04  0.00000000000E+00 0.  1.
         21   -1    0    0  501  503 -0.00000000000E+00 -0.00000000000E+00 -0.20859875823E+02  0.20859875823E+02  0.00000000000E+00 0.  1.
          6    2    1    2  501    0  0.71061805607E+02 -0.74342210410E+02  0.67835500724E+03  0.70681424842E+03  0.16983616063E+03 0.  0.
         24    2    3    3    0    0  0.58753867195E+02  0.91888016835E+01  0.23078158219E+03  0.25132223297E+03  0.79788941086E+02 0.  0.
         -6    2    1    2    0  502 -0.71061805607E+02  0.74342210410E+02  0.15140267111E+04  0.15272872216E+04  0.17249008890E+03 0.  0.
        -24    2    5    5    0    0 -0.29344695458E+02 -0.25484169127E+02  0.73703682679E+03  0.74278674760E+03  0.83655928296E+02 0.  0.
          5    1    3    3  501    0  0.12307938412E+02 -0.83531012094E+02  0.44757342504E+03  0.45549201544E+03  0.47000000000E+01 0. -1.
        -11    1    4    4    0    0  0.30264320774E+02 -0.27163907813E+02  0.17104559741E+03  0.17581354724E+03  0.00000000000E+00 0.  1.
         12    1    4    4    0    0  0.28489546421E+02  0.36352709497E+02  0.59735984784E+02  0.75508685733E+02  0.00000000000E+00 0. -1.
         -5    1    5    5    0  502 -0.41717110149E+02  0.99826379537E+02  0.77698988434E+03  0.78450047399E+03  0.47000000000E+01 0.  1.
         11    1    6    6    0    0  0.17292695658E+01 -0.33296201603E+02  0.11024076725E+03  0.11517228043E+03  0.00000000000E+00 0. -1.
        -12    1    6    6    0    0 -0.31073965024E+02  0.78120324761E+01  0.62679605954E+03  0.62761446717E+03  0.00000000000E+00 0.  1.
</event>
<event>
12    1  0.8449700E-002  0.2039113E+03  0.7818608E-02  0.1147989E+00
         21   -1    0    0  501  502  0.00000000000E+00  0.00000000000E+00  0.19281490996E+03  0.19281490996E+03  0.00000000000E+00 0.  1.
         21   -1    0    0  502  503 -0.00000000000E+00 -0.00000000000E+00 -0.21367523898E+03  0.21367523898E+03  0.00000000000E+00 0.  1.
         -6    2    1    2    0  503  0.44411034526E+02 -0.93939835302E+02  0.22202330598E+02  0.20511650314E+03  0.17545028849E+03 0.  0.
        -24    2    3    3    0    0  0.75404990995E+02 -0.60931244779E+02 -0.37046165804E+02  0.13039925806E+03  0.78949470202E+02 0.  0.
          6    2    1    2  501    0 -0.44411034526E+02  0.93939835302E+02 -0.43062659620E+02  0.20137364581E+03  0.16703269119E+03 0.  0.
         24    2    5    5    0    0 -0.32453074237E+02 -0.74633343988E+00  0.19363911277E+02  0.87235001521E+02  0.78620769453E+02 0.  0.
          5    1    5    5  501    0 -0.11957960288E+02  0.94686168742E+02 -0.62426570897E+02  0.11413864429E+03  0.47000000000E+01 0. -1.
        -11    1    6    6    0    0 -0.50432134321E+02 -0.15782339964E+02  0.30790789406E+02  0.61160077985E+02  0.00000000000E+00 0.  1.
         12    1    6    6    0    0  0.17979060083E+02  0.15036006524E+02 -0.11426878128E+02  0.26074923536E+02  0.00000000000E+00 0. -1.
         -5    1    3    3    0  503 -0.30993956469E+02 -0.33008590524E+02  0.59248496402E+02  0.74717245077E+02  0.47000000000E+01 0.  1.
         13    1    4    4    0    0  0.35997797769E+02  0.94908253142E+00  0.16463334592E+02  0.39595247035E+02  0.00000000000E+00 0. -1.
        -14    1    4    4    0    0  0.39407193226E+02 -0.61880327310E+02 -0.53509500397E+02  0.90804011027E+02  0.00000000000E+00 0.  1.
</event>
<event>
12    1  0.8449700E-002  0.1960840E+03  0.7818608E-02  0.1153515E+00
         21   -1    0    0  501  502  0.00000000000E+00  0.00000000000E+00  0.32518940773E+02  0.32518940773E+02  0.00000000000E+00 0.  1.
         21   -1    0    0  502  503 -0.00000000000E+00 -0.00000000000E+00 -0.16719251420E+04  0.16719251420E+04  0.00000000000E+00 0. -1.
         -6    2    1    2    0  503  0.43424161383E+02  0.78934444893E+02 -0.12835162177E+04  0.12981109434E+04  0.17193555753E+03 0.  0.
        -24    2    3    3    0    0  0.80363304415E+02  0.34788111698E+02 -0.10631000397E+04  0.10702540134E+04  0.87140607213E+02 0.  0.
          6    2    1    2  501    0 -0.43424161383E+02 -0.78934444893E+02 -0.35588998361E+03  0.40633313944E+03  0.17416266933E+03 0.  0.
         24    2    5    5    0    0 -0.83835158663E+02 -0.25825606611E+02 -0.21300644805E+03  0.24856307846E+03  0.93362526104E+02 0.  0.
          5    1    5    5  501    0  0.40410997280E+02 -0.53108838282E+02 -0.14288353556E+03  0.15777006097E+03  0.47000000000E+01 0. -1.
        -13    1    6    6    0    0 -0.62391397015E+02 -0.51301245756E+02 -0.19418015503E+03  0.21031033461E+03  0.00000000000E+00 0.  1.
         14    1    6    6    0    0 -0.21443761648E+02  0.25475639144E+02 -0.18826293021E+02  0.38252743854E+02  0.00000000000E+00 0. -1.
         -5    1    3    3    0  503 -0.36939143032E+02  0.44146333195E+02 -0.22041617795E+03  0.22785692994E+03  0.47000000000E+01 0.  1.
         11    1    4    4    0    0 -0.73618586625E+01  0.33757774787E+02 -0.37378569898E+03  0.37537918574E+03  0.00000000000E+00 0. -1.
        -12    1    4    4    0    0  0.87725163077E+02  0.10303369113E+01 -0.68931434073E+03  0.69487482770E+03  0.00000000000E+00 0.  1.
</event>
<event>
12    1  0.8449700E-002  0.3432121E+03  0.7818608E-02  0.1065626E+00
         21   -1    0    0  501  502  0.00000000000E+00  0.00000000000E+00  0.12441594097E+04  0.12441594097E+04  0.00000000000E+00 0. -1.
         21   -1    0    0  502  503 -0.00000000000E+00 -0.00000000000E+00 -0.11519929700E+03  0.11519929700E+03  0.00000000000E+00 0.  1.
         -6    2    1    2    0  503  0.11077098101E+03 -0.27402098609E+03  0.27537538469E+03  0.44002973349E+03  0.17446160839E+03 0.  0.
        -24    2    3    3    0    0  0.20336747746E+02 -0.11051192320E+03  0.10565763105E+03  0.18756236907E+03  0.10672225079E+03 0.  0.
          6    2    1    2  501    0 -0.11077098101E+03  0.27402098609E+03  0.85358472804E+03  0.91932897325E+03  0.17088347509E+03 0.  0.
         24    2    5    5    0    0 -0.14710442004E+02  0.20166741639E+03  0.48123434685E+03  0.52801124738E+03  0.79518782939E+02 0.  0.
          5    1    5    5  501    0 -0.96060539010E+02  0.72353569707E+02  0.37235038119E+03  0.39131772587E+03  0.47000000000E+01 0. -1.
        -11    1    6    6    0    0 -0.16232142548E+02  0.14341809299E+03  0.24191502242E+03  0.28170039034E+03  0.00000000000E+00 0.  1.
         12    1    6    6    0    0  0.15217005442E+01  0.58249323394E+02  0.23931932443E+03  0.24631085704E+03  0.00000000000E+00 0. -1.
         -5    1    3    3    0  503  0.90434233269E+02 -0.16350906289E+03  0.16971775364E+03  0.25246736442E+03  0.47000000000E+01 0.  1.
         11    1    4    4    0    0  0.61522978671E+02 -0.79047958318E+02  0.86362541724E+02  0.13225787399E+03  0.00000000000E+00 0. -1.
        -12    1    4    4    0    0 -0.41186230926E+02 -0.31463964883E+02  0.19295089331E+02  0.55304495082E+02  0.00000000000E+00 0.  1.
</event>
<event>
12    1  0.8449700E-002  0.1831531E+03  0.7818608E-02  0.1164923E+00
         21   -1    0    0  501  502  0.00000000000E+00  0.00000000000E+00  0.14284351840E+04  0.14284351840E+04  0.00000000000E+00 0. -1.
         21   -1    0    0  502  503 -0.00000000000E+00 -0.00000000000E+00 -0.34917890760E+02  0.34917890760E+02  0.00000000000E+00 0. -1.
         -6    2    1    2    0  503 -0.26584998299E+02 -0.57235872837E+02  0.27596499084E+03  0.33089193975E+03  0.17131868651E+03 0.  0.
        -24    2    3    3    0    0 -0.16916115373E+02 -0.16630560753E+02  0.27645365783E+03  0.28888470869E+03  0.80405344832E+02 0.  0.
          6    2    1    2  501    0  0.26584998299E+02  0.57235872837E+02  0.11175523024E+04  0.11324611350E+04  0.17193710024E+03 0.  0.
         24    2    5    5    0    0 -0.40622458002E+02  0.13375942475E+01  0.43062987041E+03  0.43998299290E+03  0.80566590463E+02 0.  0.
          5    1    5    5  501    0  0.67207456302E+02  0.55898278589E+02  0.68692243199E+03  0.69247814212E+03  0.47000000000E+01 0. -1.
        -11    1    6    6    0    0 -0.82260129878E+01 -0.33954925675E+02  0.27321111491E+03  0.27543586835E+03  0.00000000000E+00 0.  1.
         12    1    6    6    0    0 -0.32396445015E+02  0.35292519922E+02  0.15741875551E+03  0.16454712455E+03  0.00000000000E+00 0. -1.
         -5    1    3    3    0  503 -0.96688829263E+01 -0.40605312083E+02 -0.48866698184E+00  0.42007231066E+02  0.47000000000E+01 0.  1.
         13    1    4    4    0    0 -0.48353232036E+02 -0.19654785419E+02  0.16716068298E+03  0.17512007187E+03  0.00000000000E+00 0. -1.
        -14    1    4    4    0    0  0.31437116663E+02  0.30242246661E+01  0.10929297484E+03  0.11376463681E+03  0.00000000000E+00 0.  1.
</event>
<event>
12    1  0.8449700E-002  0.1805006E+03  0.7818608E-02  0.1167855E+00
         21   -1    0    0  501  502  0.00000000000E+00  0.00000000000E+00  0.76719477809E+02  0.76719477809E+02  0.00000000000E+00 0. -1.
         21   -1    0    0  502  503 -0.00000000000E+00 -0.00000000000E+00 -0.63165891251E+03  0.63165891251E+03  0.00000000000E+00 0. -1.
         -6    2    1    2    0  503  0.48813191370E+02 -0.11318420554E+02 -0.48160724251E+03  0.51355010895E+03  0.17110623621E+03 0.  0.
        -24    2    3    3    0    0  0.81187468318E+02 -0.53319130545E+02 -0.32625635963E+03  0.34933031642E+03  0.78448219084E+02 0.  0.
          6    2    1    2  501    0 -0.48813191370E+02  0.11318420554E+02 -0.73332192198E+02  0.19482828137E+03  0.17340592410E+03 0.  0.
         24    2    5    5    0    0 -0.98570318718E+02  0.20517521412E+02 -0.65970210942E+02  0.14347963050E+03  0.78084948738E+02 0.  0.
          5    1    5    5  501    0  0.49757127348E+02 -0.91991008581E+01 -0.73619812565E+01  0.51348650874E+02  0.47000000000E+01 0. -1.
        -13    1    6    6    0    0 -0.15286188739E+02 -0.92738940045E+01  0.15170378588E+02  0.23448092943E+02  0.00000000000E+00 0.  1.
         14    1    6    6    0    0 -0.83284129980E+02  0.29791415416E+02 -0.81140589530E+02  0.12003153756E+03  0.00000000000E+00 0. -1.
         -5    1    3    3    0  503 -0.32374276948E+02  0.42000709991E+02 -0.15535088288E+03  0.16421979253E+03  0.47000000000E+01 0.  1.
         13    1    4    4    0    0  0.96133766295E+02 -0.38070419370E+02 -0.27560848385E+03  0.29436557921E+03  0.00000000000E+00 0. -1.
        -14    1    4    4    0    0 -0.14946297977E+02 -0.15248711175E+02 -0.50647875779E+02  0.54964737211E+02  0.00000000000E+00 0.  1.
</event>
<event>
12    1  0.8449700E-002  0.1951306E+03  0.7818608E-02  0.1154230E+00
         21   -1    0    0  503  502  0.00000000000E+00  0.00000000000E+00  0.15800344560E+03  0.15800344560E+03  0.00000000000E+00 0.  1.
         21   -1    0    0  501  503 -0.00000000000E+00 -0.00000000000E+00 -0.26748030594E+03  0.26748030594E+03  0.00000000000E+00 0.  1.
          6    2    1    2  501    0 -0.25503961367E+02 -0.86031494466E+02 -0.12373458206E+03  0.22983290984E+03  0.17164221381E+03 0.  0.
         24    2    3    3    0    0  0.23202086056E+02 -0.10961138340E+03 -0.10219312653E+03  0.17139991809E+03  0.79884320389E+02 0.  0.
         -6    2    1    2    0  502  0.25503961367E+02  0.86031494466E+02  0.14257721727E+02  0.19565084170E+03  0.17327463503E+03 0.  0.
        -24    2    5    5    0    0 -0.50534520020E+02  0.59533811554E+02 -0.12134150457E+02  0.11078271595E+03  0.77637362873E+02 0.  0.
          5    1    3    3  501    0 -0.48706047424E+02  0.23579888937E+02 -0.21541455532E+02  0.58432991746E+02  0.47000000000E+01 0. -1.
        -13    1    4    4    0    0  0.38794051524E+02 -0.40283843027E+02 -0.13101464506E+02  0.57440532857E+02  0.00000000000E+00 0.  1.
         14    1    4    4    0    0 -0.15591965468E+02 -0.69327540376E+02 -0.89091662022E+02  0.11395938524E+03  0.00000000000E+00 0. -1.
         -5    1    5    5    0  502  0.76038481387E+02  0.26497682912E+02  0.26391872183E+02  0.84868125752E+02  0.47000000000E+01 0.  1.
         11    1    6    6    0    0  0.10243679912E+02 -0.10731522855E+02 -0.99300316405E+01  0.17852285269E+02  0.00000000000E+00 0. -1.
        -12    1    6    6    0    0 -0.60778199932E+02  0.70265334410E+02 -0.22041188161E+01  0.92930430681E+02  0.00000000000E+00 0.  1.
</event>
<event>
12    1  0.8449700E-002  0.1870127E+03  0.7818608E-02  0.1161996E+00
         21   -1    0    0  503  502  0.00000000000E+00  0.00000000000E+00  0.76309100393E+03  0.76309100393E+03  0.00000000000E+00 0.  1.
         21   -1    0    0  501  503 -0.00000000000E+00 -0.00000000000E+00 -0.64108729529E+02  0.64108729529E+02  0.00000000000E+00 0. -1.
          6    2    1    2  501    0  0.10131719437E+02  0.67453469927E+02  0.12588068353E+03  0.22543226784E+03  0.17412966019E+03 0.  0.
         24    2    3    3    0    0 -0.15108070259E+02 -0.25366074134E+02  0.89611810218E+02  0.12252436769E+03  0.78168105021E+02 0.  0.
         -6    2    1    2    0  502 -0.10131719437E+02 -0.67453469927E+02  0.57310159087E+03  0.60176746562E+03  0.17037026403E+03 0.  0.
        -24    2    5    5    0    0 -0.16048707416E+02 -0.85307841840E+02  0.57024699040E+03  0.58217083103E+03  0.78779804208E+02 0.  0.
          5    1    3    3  501    0  0.25239789696E+02  0.92819544061E+02  0.36268873308E+02  0.10290790016E+03  0.47000000000E+01 0. -1.
        -13    1    4    4    0    0  0.63768091941E-01 -0.40896327820E+02  0.13026220096E+02  0.42920812032E+02  0.00000000000E+00 0.  1.
         14    1    4    4    0    0 -0.15171838351E+02  0.15530253686E+02  0.76585590123E+02  0.79603555655E+02  0.00000000000E+00 0. -1.
         -5    1    5    5    0  502  0.59169879793E+01  0.17854371913E+02  0.28546004716E+01  0.19596634584E+02  0.47000000000E+01 0.  1.
         13    1    6    6    0    0 -0.31630030475E+02 -0.64913457001E+02  0.23262282116E+03  0.24357256137E+03  0.00000000000E+00 0. -1.
        -14    1    6    6    0    0  0.15581323059E+02 -0.20394384840E+02  0.33762416924E+03  0.33859826966E+03  0.00000000000E+00 0.  1.
</event>
<event>
12    1  0.8449700E-002  0.1961532E+03  0.7818608E-02  0.1154748E+00
         21   -1    0    0  503  502  0.00000000000E+00  0.00000000000E+00  0.34632567779E+03  0.34632567779E+03  0.00000000000E+00 0.  1.
         21   -1    0    0  501  503 -0.00000000000E+00 -0.00000000000E+00 -0.12453357934E+03  0.12453357934E+03  0.00000000000E+00 0.  1.
          6    2    1    2  501    0  0.52624841514E+02  0.57158531689E+02  0.19969108163E+02  0.18941902862E+03  0.17159350639E+03 0.  0.
         24    2    3    3    0    0  0.69550261798E+02  0.97172384665E+02  0.68747002786E+01  0.14379960513E+03  0.79695380506E+02 0.  0.
         -6    2    1    2    0  502 -0.52624841514E+02 -0.57158531689E+02  0.20182299029E+03  0.28144022851E+03  0.18010999729E+03 0.  0.
        -24    2    5    5    0    0  0.57186094331E+00 -0.99059109397E+02  0.13105369981E+03  0.18337937985E+03  0.81485523498E+02 0.  0.
          5    1    3    3  501    0 -0.16925420284E+02 -0.40013852977E+02  0.13094407884E+02  0.45619423491E+02  0.47000000000E+01 0. -1.
        -11    1    4    4    0    0  0.81306469208E+02  0.51182258019E+02  0.21858634817E+01  0.96099653850E+02  0.00000000000E+00 0.  1.
         12    1    4    4    0    0 -0.11756207410E+02  0.45990126647E+02  0.46888367969E+01  0.47699951280E+02  0.00000000000E+00 0. -1.
         -5    1    5    5    0  502 -0.53196702457E+02  0.41900577709E+02  0.70769290483E+02  0.98060848661E+02  0.47000000000E+01 0.  1.
         13    1    6    6    0    0  0.18381022192E+02  0.55476144158E+01  0.36547176980E+02  0.41283582061E+02  0.00000000000E+00 0. -1.
        -14    1    6    6    0    0 -0.17809161249E+02 -0.10460672381E+03  0.94506522831E+02  0.14209579779E+03  0.00000000000E+00 0.  1.
</event>
<event>
12    1  0.8449700E-002  0.3284040E+03  0.7818608E-02  0.1072023E+00
         21   -1    0    0  503  502  0.00000000000E+00  0.00000000000E+00  0.37106718280E+03  0.37106718280E+03  0.00000000000E+00 0.  1.
         21   -1    0    0  501  503 -0.00000000000E+00 -0.00000000000E+00 -0.28924609060E+03  0.28924609060E+03  0.00000000000E+00 0.  1.
          6    2    1    2  501    0  0.24328925374E+03  0.13593564202E+03  0.38923465343E+02  0.32911933470E+03  0.17069370395E+03 0.  0.
         24    2    3    3    0    0  0.79618316792E+02  0.33774480856E+02  0.64784078771E+02  0.13439917710E+03  0.79914767202E+02 0.  0.
         -6    2    1    2    0  502 -0.24328925374E+03 -0.13593564202E+03  0.42897626860E+02  0.33119393869E+03  0.17372696648E+03 0.  0.
        -24    2    5    5    0    0 -0.79660370035E+02 -0.27108202425E+02  0.65026119036E+02  0.13338194877E+03  0.80509123141E+02 0.  0.
          5    1    3    3  501    0  0.16367093694E+03  0.10216116116E+03 -0.25860613427E+02  0.19472015760E+03  0.47000000000E+01 0. -1.
        -11    1    4    4    0    0  0.27414636605E+02  0.48355858856E+02  0.84519268408E+01  0.56225318614E+02  0.00000000000E+00 0.  1.
         12    1    4    4    0    0  0.52203680186E+02 -0.14581378001E+02  0.56332151930E+02  0.78173858485E+02  0.00000000000E+00 0. -1.
         -5    1    5    5    0  502 -0.16362888370E+03 -0.10882743959E+03 -0.22128492176E+02  0.19781198992E+03  0.47000000000E+01 0.  1.
         11    1    6    6    0    0 -0.79706386481E+02 -0.12729537584E+02  0.15995062475E+02  0.82286032816E+02  0.00000000000E+00 0. -1.
        -12    1    6    6    0    0  0.46016445862E-01 -0.14378664840E+02  0.49031056560E+02  0.51095915957E+02  0.00000000000E+00 0.  1.
</event>
<event>
12    1  0.8449700E-002  0.1904130E+03  0.7818608E-02  0.1158311E+00
         21   -1    0    0  503  502  0.00000000000E+00  0.00000000000E+00  0.13980442232E+03  0.13980442232E+03  0.00000000000E+00 0.  1.
         21   -1    0    0  501  503 -0.00000000000E+00 -0.00000000000E+00 -0.25893948038E+03  0.25893948038E+03  0.00000000000E+00 0.  1.
          6    2    1    2  501    0  0.34049357158E+02  0.72861760234E+02 -0.71375924332E+02  0.20243285377E+03  0.17151193219E+03 0.  0.
         24    2    3    3    0    0 -0.29729388316E+02  0.17975095077E+02 -0.76489236524E+02  0.11800234774E+03  0.82867425419E+02 0.  0.
         -6    2    1    2    0  502 -0.34049357158E+02 -0.72861760234E+02 -0.47759133734E+02  0.19631104893E+03  0.17259460667E+03 0.  0.
        -24    2    5    5    0    0  0.10866026715E+02  0.99119390420E+01  0.16223366639E+02  0.82360501087E+02  0.79396079513E+02 0.  0.
          5    1    3    3  501    0  0.63778745475E+02  0.54886665157E+02  0.51133121917E+01  0.84430506027E+02  0.47000000000E+01 0. -1.
        -13    1    4    4    0    0 -0.85243480983E+01 -0.26045750383E+02 -0.19885847453E+00  0.27405933084E+02  0.00000000000E+00 0.  1.
         14    1    4    4    0    0 -0.21205040218E+02  0.44020845460E+02 -0.76290378049E+02  0.90596414656E+02  0.00000000000E+00 0. -1.
         -5    1    5    5    0  502 -0.44915383873E+02 -0.82773699276E+02 -0.63982500373E+02  0.11395054785E+03  0.47000000000E+01 0.  1.
         13    1    6    6    0    0  0.13826560044E+02 -0.18116425161E+02  0.39635661852E+02  0.45720502116E+02  0.00000000000E+00 0. -1.
        -14    1    6    6    0    0 -0.29605333283E+01  0.28028364203E+02 -0.23412295213E+02  0.36639998971E+02  0.00000000000E+00 0.  1.
</event>
<event>
12    1  0.8449700E-002  0.1897998E+03  0.7818608E-02  0.1159776E+00
         21   -1    0    0  503  502  0.00000000000E+00  0.00000000000E+00  0.10521023757E+03  0.10521023757E+03  0.00000000000E+00 0.  1.
         21   -1    0    0  501  503 -0.00000000000E+00 -0.00000000000E+00 -0.33451270102E+03  0.33451270102E+03  0.00000000000E+00 0. -1.
          6    2    1    2  501    0 -0.74928152403E+02 -0.64983406630E+01 -0.12810544324E+03  0.22898685161E+03  0.17426278194E+03 0.  0.
         24    2    3    3    0    0 -0.30924833334E+02 -0.34672180302E+02 -0.19277535547E+01  0.92337824159E+02  0.79775009452E+02 0.  0.
         -6    2    1    2    0  502  0.74928152403E+02  0.64983406630E+01 -0.10119702021E+03  0.21073608698E+03  0.16885616661E+03 0.  0.
        -24    2    5    5    0    0 -0.15941661977E+02 -0.13231512729E+02 -0.18674501460E+02  0.86322878752E+02  0.81692673329E+02 0.  0.
          5    1    3    3  501    0 -0.44003319069E+02  0.28173839639E+02 -0.12617768969E+03  0.13664902745E+03  0.47000000000E+01 0. -1.
        -11    1    4    4    0    0 -0.52825152552E+02 -0.31262754838E+01  0.55703768006E+01  0.53209956194E+02  0.00000000000E+00 0.  1.
         12    1    4    4    0    0  0.21900319218E+02 -0.31545904818E+02 -0.74981303553E+01  0.39127867964E+02  0.00000000000E+00 0. -1.
         -5    1    5    5    0  502  0.90869814380E+02  0.19729853392E+02 -0.82522518752E+02  0.12441320823E+03  0.47000000000E+01 0.  1.
         11    1    6    6    0    0  0.21073397810E+02 -0.16576203539E+02 -0.36349696986E+02  0.45168120284E+02  0.00000000000E+00 0. -1.
        -12    1    6    6    0    0 -0.37015059787E+02  0.33446908108E+01  0.17675195526E+02  0.41154758468E+02  0.00000000000E+00 0.  1.
</event>
<event>
12    1  0.8449700E-002  0.2096315E+03  0.7818608E-02  0.1141896E+00
         21   -1    0    0  501  502  0.00000000000E+00  0.00000000000E+00  0.18925995959E+02  0.18925995959E+02  0.00000000000E+00 0.  1.
         21   -1    0    0  502  503 -0.00000000000E+00 -0.00000000000E+00 -0.24200590763E+04  0.24200590763E+04  0.00000000000E+00 0. -1.
         -6    2    1    2    0  503  0.10929773191E+03  0.55011754203E+02 -0.14482236303E+04  0.14632895433E+04  0.16997740038E+03 0.  0.
        -24    2    3    3    0    0  0.14322082722E+03  0.30082362795E+02 -0.10768520416E+04  0.10895099319E+04  0.77488181649E+02 0.  0.
          6    2    1    2  501    0 -0.10929773191E+03 -0.55011754203E+02 -0.95290945004E+03  0.97569552904E+03  0.17021474116E+03 0.  0.
         24    2    5    5    0    0 -0.40292278090E+02 -0.91410946113E+02 -0.67604755056E+03  0.68801296924E+03  0.79637469075E+02 0.  0.
          5    1    5    5  501    0 -0.69005453820E+02  0.36399191910E+02 -0.27686189948E+03  0.28768255980E+03  0.47000000000E+01 0. -1.
        -11    1    6    6    0    0  0.62116253947E+01 -0.51560456803E+02 -0.15703628452E+03  0.16540090583E+03  0.00000000000E+00 0.  1.
         12    1    6    6    0    0 -0.46503903485E+02 -0.39850489310E+02 -0.51901126604E+03  0.52261206341E+03  0.00000000000E+00 0. -1.
         -5    1    3    3    0  503 -0.33923095307E+02  0.24929391408E+02 -0.37137158870E+03  0.37377961133E+03  0.47000000000E+01 0.  1.
         11    1    4    4    0    0  0.56074148508E+02  0.10445430251E+02 -0.69548508602E+03  0.69782012154E+03  0.00000000000E+00 0. -1.
        -12    1    4    4    0    0  0.87146678709E+02  0.19636932543E+02 -0.38136695563E+03  0.39168981040E+03  0.00000000000E+00 0.  1.
</event>
<event>
12    1  0.8449700E-002  0.2211982E+03  0.7818608E-02  0.1133093E+00
         21   -1    0    0  503  502  0.00000000000E+00  0.00000000000E+00  0.66456629276E+02  0.66456629276E+02  0.00000000000E+00 0.  1.
         21   -1    0    0  501  503 -0.00000000000E+00 -0.00000000000E+00 -0.93952919709E+03  0.93952919709E+03  0.00000000000E+00 0.  1.
          6    2    1    2  501    0  0.81272625826E+02 -0.11155175023E+03 -0.67195154394E+03  0.70742315290E+03  0.17285718721E+03 0.  0.
         24    2    3    3    0    0  0.14549987713E+02 -0.73379329856E+02 -0.20222887392E+03  0.23142890835E+03  0.84063035764E+02 0.  0.
         -6    2    1    2    0  502 -0.81272625826E+02  0.11155175023E+03 -0.20112102388E+03  0.29856267347E+03  0.17216553387E+03 0.  0.
        -24    2    5    5    0    0 -0.30237154130E+02  0.88758990600E+02 -0.36972759736E+02  0.12509546653E+03  0.74090801592E+02 0.  0.
          5    1    3    3  501    0  0.66722638113E+02 -0.38172420378E+02 -0.46972267002E+03  0.47599424455E+03  0.47000000000E+01 0. -1.
        -13    1    4    4    0    0  0.39558370173E+02 -0.56997932925E+02 -0.18343235526E+03  0.19611491010E+03  0.00000000000E+00 0.  1.
         14    1    4    4    0    0 -0.25008382460E+02 -0.16381396932E+02 -0.18796518661E+02  0.35313998251E+02  0.00000000000E+00 0. -1.
         -5    1    5    5    0  502 -0.51035471696E+02  0.22792759634E+02 -0.16414826415E+03  0.17346720695E+03  0.47000000000E+01 0.  1.
         13    1    6    6    0    0  0.18998948304E+02  0.41476228360E+02  0.34684753279E+01  0.45752244500E+02  0.00000000000E+00 0. -1.
        -14    1    6    6    0    0 -0.49236102435E+02  0.47282762240E+02 -0.40441235064E+02  0.79343222026E+02  0.00000000000E+00 0.  1.
</event>
<event>
12    1  0.8449700E-002  0.2021674E+03  0.7818608E-02  0.1150146E+00
         21   -1    0    0  503  502  0.00000000000E+00  0.00000000000E+00  0.42175762438E+03  0.42175762438E+03  0.00000000000E+00 0. -1.
         21   -1    0    0  501  503 -0.00000000000E+00 -0.00000000000E+00 -0.10002890280E+03  0.10002890280E+03  0.00000000000E+00 0. -1.
          6    2    1    2  501    0 -0.71263905519E+01  0.10509431607E+03  0.90839665770E+02  0.22163823070E+03  0.17255740992E+03 0.  0.
         24    2    3    3    0    0  0.27207075355E+02  0.31740205296E+02 -0.11677983554E+02  0.90903495945E+02  0.79871175611E+02 0.  0.
         -6    2    1    2    0  502  0.71263905519E+01 -0.10509431607E+03  0.23088905580E+03  0.30014829648E+03  0.16026117146E+03 0.  0.
        -24    2    5    5    0    0 -0.34184505819E+02 -0.10011788209E+03  0.21810148298E+03  0.25636511394E+03  0.83442459319E+02 0.  0.
          5    1    3    3  501    0 -0.34333465907E+02  0.73354110773E+02  0.10251764932E+03  0.13073473476E+03  0.47000000000E+01 0. -1.
        -11    1    4    4    0    0  0.47868685986E+02  0.10897530890E+02  0.14904625717E+02  0.51306092673E+02  0.00000000000E+00 0.  1.
         12    1    4    4    0    0 -0.20661610631E+02  0.20842674406E+02 -0.26582609271E+02  0.39597403273E+02  0.00000000000E+00 0. -1.
         -5    1    5    5    0  502  0.41310896371E+02 -0.49764339814E+01  0.12787572823E+02  0.43783182535E+02  0.47000000000E+01 0.  1.
         13    1    6    6    0    0 -0.27471497231E+02 -0.97307001582E+02  0.22478853384E+03  0.24648168424E+03  0.00000000000E+00 0. -1.
        -14    1    6    6    0    0 -0.67130085883E+01 -0.28108805056E+01 -0.66870508626E+01  0.98834297065E+01  0.00000000000E+00 0.  1.
</event>
<event>
12    1  0.8449700E-002  0.1944742E+03  0.7818608E-02  0.1154550E+00
         21   -1    0    0  501  502  0.00000000000E+00  0.00000000000E+00  0.16220154199E+03  0.16220154199E+03  0.00000000000E+00 0. -1.
         21   -1    0    0  502  503 -0.00000000000E+00 -0.00000000000E+00 -0.23374937465E+03  0.23374937465E+03  0.00000000000E+00 0.  1.
         -6    2    1    2    0  503  0.80110115318E+02 -0.44213198944E+02 -0.48282488004E+02  0.20037815892E+03  0.17160352673E+03 0.  0.
        -24    2    3    3    0    0  0.11849672771E+03 -0.22096255626E+02 -0.56042936936E+02  0.15515641901E+03  0.80018651510E+02 0.  0.
          6    2    1    2  501    0 -0.80110115318E+02  0.44213198944E+02 -0.23265344657E+02  0.19557275773E+03  0.17127460339E+03 0.  0.
         24    2    5    5    0    0 -0.10986948062E+03  0.69438454618E+02 -0.86186946813E+01  0.15363771626E+03  0.81469406581E+02 0.  0.
          5    1    5    5  501    0  0.29759365304E+02 -0.25225255673E+02 -0.14646649976E+02  0.41935041464E+02  0.47000000000E+01 0. -1.
        -13    1    6    6    0    0 -0.10677557439E+01  0.29014111120E+02 -0.22514102802E+02  0.36740217357E+02  0.00000000000E+00 0.  1.
         14    1    6    6    0    0 -0.10880172488E+03  0.40424343497E+02  0.13895408121E+02  0.11689749891E+03  0.00000000000E+00 0. -1.
         -5    1    3    3    0  503 -0.38386612390E+02 -0.22116943318E+02  0.77604489319E+01  0.45221739906E+02  0.47000000000E+01 0.  1.
         13    1    4    4    0    0  0.11708783586E+03 -0.25657540937E+01 -0.27097601112E+02  0.12020991801E+03  0.00000000000E+00 0. -1.
        -14    1    4    4    0    0  0.14088918435E+01 -0.19530501533E+02 -0.28945335824E+02  0.34946501002E+02  0.00000000000E+00 0.  1.
</event>
<event>
12    1  0.8449700E-002  0.1823490E+03  0.7818608E-02  0.1166029E+00
         21   -1    0    0  503  502  0.00000000000E+00  0.00000000000E+00  0.78707942469E+03  0.78707942469E+03  0.00000000000E+00 0. -1.
         21   -1    0    0  501  503 -0.00000000000E+00 -0.00000000000E+00 -0.57127980523E+02  0.57127980523E+02  0.00000000000E+00 0.  1.
          6    2    1    2  501    0  0.42581814299E+02  0.47179363545E+02  0.14473373048E+03  0.23123845033E+03  0.16877282044E+03 0.  0.
         24    2    3    3    0    0  0.69079297577E+02  0.56520002047E+02  0.50711829975E+02  0.13299603626E+03  0.84556466201E+02 0.  0.
         -6    2    1    2    0  502 -0.42581814299E+02 -0.47179363545E+02  0.58521771369E+03  0.61296895489E+03  0.17091537083E+03 0.  0.
        -24    2    5    5    0    0 -0.99936539696E+00 -0.67898424164E+02  0.53146721405E+03  0.54176793143E+03  0.80273888544E+02 0.  0.
          5    1    3    3  501    0 -0.26497483278E+02 -0.93406385016E+01  0.94021900500E+02  0.98242414065E+02  0.47000000000E+01 0. -1.
        -13    1    4    4    0    0  0.74450667077E+01  0.59472662328E+02  0.15327944601E+02  0.61865761681E+02  0.00000000000E+00 0.  1.
         14    1    4    4    0    0  0.61634230869E+02 -0.29526602812E+01  0.35383885374E+02  0.71130274579E+02  0.00000000000E+00 0. -1.
         -5    1    5    5    0  502 -0.41582448902E+02  0.20719060619E+02  0.53750499640E+02  0.71201023456E+02  0.47000000000E+01 0.  1.
         11    1    6    6    0    0  0.25499414021E+02 -0.31125167903E+01  0.26565910321E+03  0.26689823340E+03  0.00000000000E+00 0. -1.
        -12    1    6    6    0    0 -0.26498779418E+02 -0.64785907374E+02  0.26580811085E+03  0.27486969803E+03  0.00000000000E+00 0.  1.
</event>
<event>
12    1  0.8449700E-002  0.2028529E+03  0.7818608E-02  0.1148086E+00
         21   -1    0    0  503  502  0.00000000000E+00  0.00000000000E+00  0.38214982119E+03  0.38214982119E+03  0.00000000000E+00 0. -1.
         21   -1    0    0  501  503 -0.00000000000E+00 -0.00000000000E+00 -0.96986332136E+03  0.96986332136E+03  0.00000000000E+00 0. -1.
          6    2    1    2  501    0  0.62392013281E+02 -0.79344730405E+02 -0.93163478188E+03  0.95272482403E+03  0.17190949349E+03 0.  0.
         24    2    3    3    0    0 -0.18761761279E+02  0.20779808809E+01 -0.41446103333E+03  0.42290752606E+03  0.81954290673E+02 0.  0.
         -6    2    1    2    0  502 -0.62392013281E+02  0.79344730405E+02  0.34392128171E+03  0.39928831852E+03  0.17595727814E+03 0.  0.
        -24    2    5    5    0    0 -0.50414580678E+02  0.12396830656E+03  0.26689640453E+03  0.30934586945E+03  0.80940751281E+02 0.  0.
          5    1    3    3  501    0  0.81153774560E+02 -0.81422711286E+02 -0.51717374855E+03  0.52981729797E+03  0.47000000000E+01 0. -1.
        -11    1    4    4    0    0  0.13491569758E+02  0.18330360818E+02 -0.35114533450E+02  0.41845609587E+02  0.00000000000E+00 0.  1.
         12    1    4    4    0    0 -0.32253331036E+02 -0.16252379937E+02 -0.37934649988E+03  0.38106191647E+03  0.00000000000E+00 0. -1.
         -5    1    5    5    0  502 -0.11977432603E+02 -0.44623576156E+02  0.77024877181E+02  0.89942449074E+02  0.47000000000E+01 0.  1.
         11    1    6    6    0    0 -0.36424480761E+01  0.10037325108E+03  0.20480180686E+03  0.22810488170E+03  0.00000000000E+00 0. -1.
        -12    1    6    6    0    0 -0.46772132602E+02  0.23595055479E+02  0.62094597667E+02  0.81240987750E+02  0.00000000000E+00 0.  1.
</event>
<event>
12    1  0.8449700E-002  0.2088869E+03  0.7818608E-02  0.1142601E+00
         21   -1    0    0  501  502  0.00000000000E+00  0.00000000000E+00  0.68726232818E+02  0.68726232818E+02  0.00000000000E+00 0.  1.
         21   -1    0    0  502  503 -0.00000000000E+00 -0.00000000000E+00 -0.65483775655E+03  0.65483775655E+03  0.00000000000E+00 0.  1.
         -6    2    1    2    0  503 -0.23369400848E+02 -0.11378452677E+03 -0.35919953486E+03  0.41514417964E+03  0.17270592526E+03 0.  0.
        -24    2    3    3    0    0  0.19757013016E+02 -0.13331127920E+03 -0.24338517513E+03  0.28993939718E+03  0.81647252485E+02 0.  0.
          6    2    1    2  501    0  0.23369400848E+02  0.11378452677E+03 -0.22691198888E+03  0.30841980973E+03  0.17361071657E+03 0.  0.
         24    2    5    5    0    0  0.36471682627E+02  0.12269964387E+03 -0.24261341354E+03  0.28562126071E+03  0.79579205205E+02 0.  0.
          5    1    5    5  501    0 -0.13102281779E+02 -0.89151170951E+01  0.15701424667E+02  0.22798549015E+02  0.47000000000E+01 0. -1.
        -11    1    6    6    0    0  0.58060802331E+01 -0.52400957528E+01  0.18203823283E+01  0.80301284543E+01  0.00000000000E+00 0.  1.
         12    1    6    6    0    0  0.30665602394E+02  0.12793973962E+03 -0.24443379587E+03  0.27759113226E+03  0.00000000000E+00 0. -1.
         -5    1    3    3    0  503 -0.43126413864E+02  0.19526752426E+02 -0.11581435973E+03  0.12520478247E+03  0.47000000000E+01 0.  1.
         11    1    4    4    0    0  0.22423494603E+02 -0.92883126197E+02 -0.89893569700E+02  0.13119048028E+03  0.00000000000E+00 0. -1.
        -12    1    4    4    0    0 -0.26664815868E+01 -0.40428152999E+02 -0.15349160543E+03  0.15874891690E+03  0.00000000000E+00 0.  1.
</event>
<event>
12    1  0.8449700E-002  0.1819021E+03  0.7818608E-02  0.1165991E+00
         21   -1    0    0  501  502  0.00000000000E+00  0.00000000000E+00  0.51803000316E+02  0.51803000316E+02  0.00000000000E+00 0. -1.
         21   -1    0    0  502  503 -0.00000000000E+00 -0.00000000000E+00 -0.14568512216E+04  0.14568512216E+04  0.00000000000E+00 0. -1.
         -6    2    1    2    0  503 -0.54910489013E+02 -0.26970544549E+02 -0.12678232464E+04  0.12807966594E+04  0.17123587985E+03 0.  0.
        -24    2    3    3    0    0 -0.61204260067E-02  0.20353849823E+02 -0.99673556243E+03  0.10001461465E+04  0.79976582224E+02 0.  0.
          6    2    1    2  501    0  0.54910489013E+02  0.26970544549E+02 -0.13722497494E+03  0.22785756257E+03  0.17130616742E+03 0.  0.
         24    2    5    5    0    0 -0.30233448544E+02  0.16792730402E+02 -0.36556179898E+02  0.95534570241E+02  0.81206173517E+02 0.  0.
          5    1    5    5  501    0  0.85143937556E+02  0.10177814147E+02 -0.10066879504E+03  0.13232299233E+03  0.47000000000E+01 0. -1.
        -13    1    6    6    0    0 -0.27960230205E+02  0.48366146987E+02 -0.29194303517E+02  0.63034641312E+02  0.00000000000E+00 0.  1.
         14    1    6    6    0    0 -0.22732183383E+01 -0.31573416586E+02 -0.73618763811E+01  0.32499928929E+02  0.00000000000E+00 0. -1.
         -5    1    3    3    0  503 -0.54904368587E+02 -0.47324394371E+02 -0.27108768394E+03  0.28065051287E+03  0.47000000000E+01 0.  1.
         11    1    4    4    0    0  0.25147216238E+02 -0.21083815282E+02 -0.32059327406E+03  0.32226845506E+03  0.00000000000E+00 0. -1.
        -12    1    4    4    0    0 -0.25153336664E+02  0.41437665105E+02 -0.67614228837E+03  0.67787769144E+03  0.00000000000E+00 0.  1.
</event>
<event>
12    1  0.8449700E-002  0.1827264E+03  0.7818608E-02  0.1165201E+00
         21   -1    0    0  503  502  0.00000000000E+00  0.00000000000E+00  0.69042539163E+02  0.69042539163E+02  0.00000000000E+00 0.  1.
         21   -1    0    0  501  503 -0.00000000000E+00 -0.00000000000E+00 -0.48947902701E+03  0.48947902701E+03  0.00000000000E+00 0. -1.
          6    2    1    2  501    0  0.97283982106E+01  0.60996331027E+02 -0.17928347749E+03  0.25595967705E+03  0.17192322950E+03 0.  0.
         24    2    3    3    0    0 -0.13778226319E+01  0.10589931031E+03 -0.15242218722E+03  0.20226382427E+03  0.80383886032E+02 0.  0.
         -6    2    1    2    0  502 -0.97283982106E+01 -0.60996331027E+02 -0.24115301035E+03  0.30256188912E+03  0.17197013757E+03 0.  0.
        -24    2    5    5    0    0 -0.69433720635E+02 -0.21570993320E+02 -0.16669337444E+03  0.19919163150E+03  0.81266694696E+02 0.  0.
          5    1    3    3  501    0  0.11106220843E+02 -0.44902979284E+02 -0.26861290272E+02  0.53695852773E+02  0.47000000000E+01 0. -1.
        -13    1    4    4    0    0 -0.17512750762E+02  0.38431908211E+02 -0.93432340491E+01  0.43255104097E+02  0.00000000000E+00 0.  1.
         14    1    4    4    0    0  0.16134928130E+02  0.67467402100E+02 -0.14307895317E+03  0.15900872018E+03  0.00000000000E+00 0. -1.
         -5    1    5    5    0  502  0.59705322425E+02 -0.39425337707E+02 -0.74459635918E+02  0.10337025762E+03  0.47000000000E+01 0.  1.
         13    1    6    6    0    0 -0.56647014359E+02 -0.39416844975E+01 -0.16803688975E+03  0.17737197476E+03  0.00000000000E+00 0. -1.
        -14    1    6    6    0    0 -0.12786706276E+02 -0.17629308823E+02  0.13435153195E+01  0.21819656743E+02  0.00000000000E+00 0.  1.
</event>
<event>
12    1  0.8449700E-002  0.2188848E+03  0.7818608E-02  0.1136435E+00
         21   -1    0    0  503  502  0.00000000000E+00  0.00000000000E+00  0.42151406413E+03  0.42151406413E+03  0.00000000000E+00 0.  1.
         21   -1    0    0  501  503 -0.00000000000E+00 -0.00000000000E+00 -0.13862559383E+03  0.13862559383E+03  0.00000000000E+00 0. -1.
          6    2    1    2  501    0  0.11143090436E+03 -0.75576113348E+02  0.98017664955E+01  0.21015834805E+03  0.16106477353E+03 0.  0.
         24    2    3    3    0    0  0.70320906486E+02 -0.79124649962E+02  0.51232396741E+02  0.15149651071E+03  0.95502325419E+02 0.  0.
         -6    2    1    2    0  502 -0.11143090436E+03  0.75576113348E+02  0.27308670381E+03  0.34998130992E+03  0.17257454662E+03 0.  0.
        -24    2    5    5    0    0 -0.80431434353E+02  0.11964241062E+03  0.21875437848E+03  0.27332038590E+03  0.77891162497E+02 0.  0.
          5    1    3    3  501    0  0.41109997871E+02  0.35485366138E+01 -0.41430630246E+02  0.58661837336E+02  0.47000000000E+01 0. -1.
        -11    1    4    4    0    0 -0.13615537904E+02  0.11686796752E+02  0.84275407281E+00  0.17963137954E+02  0.00000000000E+00 0.  1.
         12    1    4    4    0    0  0.83936444390E+02 -0.90811446713E+02  0.50389642669E+02  0.13353337275E+03  0.00000000000E+00 0. -1.
         -5    1    5    5    0  502 -0.30999470005E+02 -0.44066297267E+02  0.54332325322E+02  0.76660924012E+02  0.47000000000E+01 0.  1.
         13    1    6    6    0    0 -0.54238507256E+02  0.28945528093E+02  0.47204124560E+02  0.77510571159E+02  0.00000000000E+00 0. -1.
        -14    1    6    6    0    0 -0.26192927097E+02  0.90696882523E+02  0.17155025392E+03  0.19580981475E+03  0.00000000000E+00 0.  1.
</event>
<event>
12    1  0.8449700E-002  0.1984789E+03  0.7818608E-02  0.1151038E+00
         21   -1    0    0  501  502  0.00000000000E+00  0.00000000000E+00  0.35697268528E+03  0.35697268528E+03  0.00000000000E+00 0.  1.
         21   -1    0    0  502  503 -0.00000000000E+00 -0.00000000000E+00 -0.11074011113E+03  0.11074011113E+03  0.00000000000E+00 0.  1.
         -6    2    1    2    0  503 -0.53367193136E+02 -0.85324866565E+02  0.10891612618E+03  0.22636307124E+03  0.17102376244E+03 0.  0.
        -24    2    3    3    0    0 -0.82664921154E+02 -0.69053329491E+02  0.12948731729E+03  0.18676024698E+03  0.80688121858E+02 0.  0.
          6    2    1    2  501    0  0.53367193136E+02  0.85324866565E+02  0.13731644797E+03  0.24134972518E+03  0.17107160140E+03 0.  0.
         24    2    5    5    0    0  0.21989340412E+02 -0.40293018284E+01  0.90396627885E+01  0.81832451299E+02  0.78198901637E+02 0.  0.
          5    1    5    5  501    0  0.31377852724E+02  0.89354168393E+02  0.12827678518E+03  0.15951727388E+03  0.47000000000E+01 0. -1.
        -11    1    6    6    0    0 -0.23872327475E+02  0.58339095786E+01  0.22193295692E+02  0.33112911284E+02  0.00000000000E+00 0.  1.
         12    1    6    6    0    0  0.45861667887E+02 -0.98632114070E+01 -0.13153632903E+02  0.48719540014E+02  0.00000000000E+00 0. -1.
         -5    1    3    3    0  503  0.29297728018E+02 -0.16271537074E+02 -0.20571191108E+02  0.39602824260E+02  0.47000000000E+01 0.  1.
         11    1    4    4    0    0 -0.27920852809E+01 -0.33727999599E+02  0.78850498281E+02  0.85806612661E+02  0.00000000000E+00 0. -1.
        -12    1    4    4    0    0 -0.79872835873E+02 -0.35325329892E+02  0.50636819009E+02  0.10095363432E+03  0.00000000000E+00 0.  1.
</event>
<event>
12    1  0.8449700E-002  0.3664206E+03  0.7818608E-02  0.1056430E+00
         21   -1    0    0  503  502  0.00000000000E+00  0.00000000000E+00  0.86944098253E+03  0.86944098253E+03  0.00000000000E+00 0. -1.
         21   -1    0    0  501  503 -0.00000000000E+00 -0.00000000000E+00 -0.16158344558E+03  0.16158344558E+03  0.00000000000E+00 0.  1.
          6    2    1    2  501    0 -0.15871818640E+03  0.27763045494E+03  0.47531994467E+03  0.60016092381E+03  0.17886853403E+03 0.  0.
         24    2    3    3    0    0 -0.65867750866E+02  0.48493309440E+02  0.19926481859E+03  0.22954851514E+03  0.79346652174E+02 0.  0.
         -6    2    1    2    0  502  0.15871818640E+03 -0.27763045494E+03  0.23253759228E+03  0.43086350430E+03  0.17117095347E+03 0.  0.
        -24    2    5    5    0    0  0.12630850780E+03 -0.12110858743E+03  0.17716677120E+03  0.26163732399E+03  0.80280105860E+02 0.  0.
          5    1    3    3  501    0 -0.92850435538E+02  0.22913714550E+03  0.27605512609E+03  0.37061240867E+03  0.47000000000E+01 0. -1.
        -11    1    4    4    0    0  0.17625952086E+02  0.17633178250E+02  0.44872939833E+02  0.51334042228E+02  0.00000000000E+00 0.  1.
         12    1    4    4    0    0 -0.83493702953E+02  0.30860131190E+02  0.15439187875E+03  0.17821447291E+03  0.00000000000E+00 0. -1.
         -5    1    5    5    0  502  0.32409678602E+02 -0.15652186751E+03  0.55370821079E+02  0.16922618031E+03  0.47000000000E+01 0.  1.
         13    1    6    6    0    0  0.21556200172E+02  0.80806577087E+01  0.39558496432E+02  0.45769437781E+02  0.00000000000E+00 0. -1.
        -14    1    6    6    0    0  0.10475230763E+03 -0.12918924514E+03  0.13760827477E+03  0.21586788621E+03  0.00000000000E+00 0.  1.
</event>
<event>
12    1  0.8449700E-002  0.1968930E+03  0.7818608E-02  0.1152559E+00
         21   -1    0    0  501  502  0.00000000000E+00  0.00000000000E+00  0.22155078739E+03  0.22155078739E+03  0.00000000000E+00 0. -1.
         21   -1    0    0  502  503 -0.00000000000E+00 -0.00000000000E+00 -0.17471361501E+03  0.17471361501E+03  0.00000000000E+00 0. -1.
         -6    2    1    2    0  503 -0.94720697739E+02 -0.80387634414E+00  0.33333346804E+02  0.19890884403E+03  0.17170020217E+03 0.  0.
        -24    2    3    3    0    0 -0.22696268119E+02  0.59427439257E+02  0.41332557648E+01  0.10047071545E+03  0.77656549861E+02 0.  0.
          6    2    1    2  501    0  0.94720697739E+02  0.80387634414E+00  0.13503825572E+02  0.19735555838E+03  0.17260998326E+03 0.  0.
         24    2    5    5    0    0  0.13419656780E+03 -0.53151601476E-01  0.20630279663E+02  0.15695809358E+03  0.78749686130E+02 0.  0.
          5    1    5    5  501    0 -0.39475870065E+02  0.85702794562E+00 -0.71264540907E+01  0.40397464800E+02  0.47000000000E+01 0. -1.
        -13    1    6    6    0    0  0.64257637374E+02  0.35403672689E+02  0.27257754600E+02  0.78265248908E+02  0.00000000000E+00 0.  1.
         14    1    6    6    0    0  0.69938930430E+02 -0.35456824290E+02 -0.66274749376E+01  0.78692844672E+02  0.00000000000E+00 0. -1.
         -5    1    3    3    0  503 -0.72024429620E+02 -0.60231315601E+02  0.29200091039E+02  0.98438128577E+02  0.47000000000E+01 0.  1.
         11    1    4    4    0    0  0.10698787080E+02  0.56245669362E+02  0.23324440377E+02  0.61822883190E+02  0.00000000000E+00 0. -1.
        -12    1    4    4    0    0 -0.33395055199E+02  0.31817698942E+01 -0.19191184613E+02  0.38647832258E+02  0.00000000000E+00 0.  1.
</event>
<event>
12    1  0.8449700E-002  0.1925019E+03  0.7818608E-02  0.1156493E+00
         21   -1    0    0  503  502  0.00000000000E+00  0.00000000000E+00  0.31259846958E+03  0.31259846958E+03  0.00000000000E+00 0. -1.
         21   -1    0    0  501  503 -0.00000000000E+00 -0.00000000000E+00 -0.13327139400E+03  0.13327139400E+03  0.00000000000E+00 0.  1.
          6    2    1    2  501    0 -0.37645151817E+02 -0.73522459618E+02  0.13957497489E+02  0.19300726523E+03  0.17388008273E+03 0.  0.
         24    2    3    3    0    0 -0.49750867705E+01  0.31864114508E+02  0.58981321727E+01  0.82279190532E+02  0.75465249948E+02 0.  0.
         -6    2    1    2    0  502  0.37645151817E+02  0.73522459618E+02  0.16536957809E+03  0.25286259836E+03  0.17253894276E+03 0.  0.
        -24    2    5    5    0    0  0.48400727309E+02 -0.28513042793E+01  0.14856054314E+03  0.17378499172E+03  0.76027810896E+02 0.  0.
          5    1    3    3  501    0 -0.32670065047E+02 -0.10538657413E+03  0.80593653166E+01  0.11072807469E+03  0.47000000000E+01 0. -1.
        -11    1    4    4    0    0 -0.29873733779E+02  0.27221194925E+02 -0.20820649401E+02  0.45463533348E+02  0.00000000000E+00 0.  1.
         12    1    4    4    0    0  0.24898647008E+02  0.46429195834E+01  0.26718781574E+02  0.36815657184E+02  0.00000000000E+00 0. -1.
         -5    1    5    5    0  502 -0.10755575492E+02  0.76373763897E+02  0.16809034953E+02  0.79077606641E+02  0.47000000000E+01 0.  1.
         11    1    6    6    0    0 -0.16298603383E+02 -0.54526778491E+01  0.69494175222E+02  0.71587824089E+02  0.00000000000E+00 0. -1.
        -12    1    6    6    0    0  0.64699330692E+02  0.26013735698E+01  0.79066367915E+02  0.10219716763E+03  0.00000000000E+00 0.  1.
</event>
<event>
12    1  0.8449700E-002  0.2285554E+03  0.7818608E-02  0.1127769E+00
         21   -1    0    0  501  502  0.00000000000E+00  0.00000000000E+00  0.65836809366E+03  0.65836809366E+03  0.00000000000E+00 0.  1.
         21   -1    0    0  502  503 -0.00000000000E+00 -0.00000000000E+00 -0.79637209434E+02  0.79637209434E+02  0.00000000000E+00 0. -1.
         -6    2    1    2    0  503 -0.49404568008E+02  0.14218466590E+03  0.31913591297E+03  0.39253702108E+03  0.17198921888E+03 0.  0.
        -24    2    3    3    0    0 -0.23392951053E+02  0.15028049792E+03  0.17055639739E+03  0.24140757603E+03  0.77824641706E+02 0.  0.
          6    2    1    2  501    0  0.49404568008E+02 -0.14218466590E+03  0.25959497126E+03  0.34546828202E+03  0.17117679229E+03 0.  0.
         24    2    5    5    0    0  0.95660822450E+02 -0.73651873020E+02  0.17284781955E+03  0.22553687202E+03  0.80093199239E+02 0.  0.
          5    1    5    5  501    0 -0.46256254442E+02 -0.68532792883E+02  0.86747151707E+02  0.11993141000E+03  0.47000000000E+01 0. -1.
        -11    1    6    6    0    0  0.11275955107E+02 -0.43908157697E+02  0.22571653475E+02  0.50641416020E+02  0.00000000000E+00 0.  1.
         12    1    6    6    0    0  0.84384867343E+02 -0.29743715323E+02  0.15027616607E+03  0.17489545600E+03  0.00000000000E+00 0. -1.
         -5    1    3    3    0  503 -0.26011616955E+02 -0.80958320188E+01  0.14857951558E+03  0.15112944505E+03  0.47000000000E+01 0.  1.
         11    1    4    4    0    0 -0.74052731845E+01  0.86572557334E+02  0.14862427093E+03  0.17215928573E+03  0.00000000000E+00 0. -1.
        -12    1    4    4    0    0 -0.15987677868E+02  0.63707940588E+02  0.21932126464E+02  0.69248290295E+02  0.00000000000E+00 0.  1.
</event>
<event>
12    1  0.8449700E-002  0.2021385E+03  0.7818608E-02  0.1149682E+00
         21   -1    0    0  501  502  0.00000000000E+00  0.00000000000E+00  0.15501221920E+03  0.15501221920E+03  0.00000000000E+00 0.  1.
         21   -1    0    0  502  503 -0.00000000000E+00 -0.00000000000E+00 -0.30196285899E+03  0.30196285899E+03  0.00000000000E+00 0.  1.
         -6    2    1    2    0  503  0.85753981024E+02  0.26459424133E+02 -0.16413676886E+03  0.25410733842E+03  0.17197620231E+03 0.  0.
        -24    2    3    3    0    0  0.37236008076E+02 -0.81191152760E+01 -0.17258542463E+03  0.19374891837E+03  0.79375526745E+02 0.  0.
          6    2    1    2  501    0 -0.85753981024E+02 -0.26459424133E+02  0.17186129076E+02  0.20286773977E+03  0.18112457155E+03 0.  0.
         24    2    5    5    0    0 -0.11770056568E+03  0.96848267651E+01 -0.21253770224E+02  0.14100735663E+03  0.74054931255E+02 0.  0.
          5    1    5    5  501    0  0.31946584658E+02 -0.36144250898E+02  0.38439899300E+02  0.61860383142E+02  0.47000000000E+01 0. -1.
        -11    1    6    6    0    0 -0.62800084192E+02  0.35911970049E+01  0.26242774281E+02  0.68157394847E+02  0.00000000000E+00 0.  1.
         12    1    6    6    0    0 -0.54900481490E+02  0.60936297602E+01 -0.47496544505E+02  0.72849961780E+02  0.00000000000E+00 0. -1.
         -5    1    3    3    0  503  0.48517972947E+02  0.34578539409E+02  0.84486557669E+01  0.60358420049E+02  0.47000000000E+01 0.  1.
         13    1    4    4    0    0  0.15894769719E+02 -0.43187309581E+02 -0.10549527528E+03  0.11509578846E+03  0.00000000000E+00 0. -1.
        -14    1    4    4    0    0  0.21341238357E+02  0.35068194305E+02 -0.67090149345E+02  0.78653129916E+02  0.00000000000E+00 0.  1.
</event>
<event>
12    1  0.8449700E-002  0.1988233E+03  0.7818608E-02  0.1152522E+00
         21   -1    0    0  503  502  0.00000000000E+00  0.00000000000E+00  0.14314231750E+02  0.14314231750E+02  0.00000000000E+00 0.  1.
         21   -1    0    0  501  503 -0.00000000000E+00 -0.00000000000E+00 -0.38962978148E+04  0.38962978148E+04  0.00000000000E+00 0.  1.
          6    2    1    2  501    0  0.37493393202E+02 -0.72871190480E+02 -0.30194284592E+04  0.30254385975E+04  0.17208870483E+03 0.  0.
         24    2    3    3    0    0  0.63330688532E+02 -0.94508692415E+01 -0.10873139890E+04  0.10921051760E+04  0.79636107920E+02 0.  0.
         -6    2    1    2    0  502 -0.37493393202E+02  0.72871190480E+02 -0.86255512391E+03  0.88517344906E+03  0.18114835968E+03 0.  0.
        -24    2    5    5    0    0 -0.16213793903E+02 -0.31538219326E+02 -0.49788573004E+03  0.50522608031E+03  0.78138631002E+02 0.  0.
          5    1    3    3  501    0 -0.25837295331E+02 -0.63420321239E+02 -0.19321144702E+04  0.19333334215E+04  0.47000000000E+01 0. -1.
        -11    1    4    4    0    0  0.22878548957E+02 -0.36801014573E+02 -0.28177307784E+03  0.28508561885E+03  0.00000000000E+00 0.  1.
         12    1    4    4    0    0  0.40452139575E+02  0.27350145332E+02 -0.80554091118E+03  0.80701955716E+03  0.00000000000E+00 0. -1.
         -5    1    5    5    0  502 -0.21279599299E+02  0.10440940981E+03 -0.36466939387E+03  0.37994736876E+03  0.47000000000E+01 0.  1.
         13    1    6    6    0    0  0.21727896289E+02 -0.28474994821E+02 -0.11490101288E+03  0.12035435002E+03  0.00000000000E+00 0. -1.
        -14    1    6    6    0    0 -0.37941690191E+02 -0.30632245049E+01 -0.38298471715E+03  0.38487173029E+03  0.00000000000E+00 0.  1.
</event>
<event>
12    1  0.8449700E-002  0.1880764E+03  0.7818608E-02  0.1160464E+00
         21   -1    0    0  501  502  0.00000000000E+00  0.00000000000E+00  0.14514987250E+03  0.14514987250E+03  0.00000000000E+00 0.  1.
         21   -1    0    0  502  503 -0.00000000000E+00 -0.00000000000E+00 -0.27963966592E+03  0.27963966592E+03  0.00000000000E+00 0.  1.
         -6    2    1    2    0  503 -0.99912621352E+01  0.74522290823E+02 -0.14507683382E+03  0.23752895246E+03  0.17239291864E+03 0.  0.
        -24    2    3    3    0    0  0.52320543769E+02  0.45570206021E+02 -0.13104975876E+03  0.16724500547E+03  0.77348365249E+02 0.  0.
          6    2    1    2  501    0  0.99912621352E+01 -0.74522290823E+02  0.10587040401E+02  0.18726058596E+03  0.17117547862E+03 0.  0.
         24    2    5    5    0    0  0.72039951558E+01 -0.10200060392E+02  0.64492748289E+02  0.10315925703E+03  0.79539794758E+02 0.  0.
          5    1    5    5  501    0  0.27872669794E+01 -0.64322230431E+02 -0.53905707888E+02  0.84101328930E+02  0.47000000000E+01 0. -1.
        -11    1    6    6    0    0  0.94065580846E+01  0.17532558146E+02 -0.10978048421E+02  0.22724248662E+02  0.00000000000E+00 0.  1.
         12    1    6    6    0    0 -0.22025629288E+01 -0.27732618538E+02  0.75470796710E+02  0.80435008364E+02  0.00000000000E+00 0. -1.
         -5    1    3    3    0  503 -0.62311805904E+02  0.28952084802E+02 -0.14027075061E+02  0.70283946987E+02  0.47000000000E+01 0.  1.
         13    1    4    4    0    0  0.32509137775E+02  0.65181214897E+02 -0.11155294179E+03  0.13322722558E+03  0.00000000000E+00 0. -1.
        -14    1    4    4    0    0  0.19811405994E+02 -0.19611008876E+02 -0.19496816973E+02  0.34017779891E+02  0.00000000000E+00 0.  1.
</event>
<event>
12    1  0.8449700E-002  0.1852195E+03  0.7818608E-02  0.1163474E+00
         21   -1    0    0  501  502  0.00000000000E+00  0.00000000000E+00  0.58808600697E+02  0.58808600697E+02  0.00000000000E+00 0.  1.
         21   -1    0    0  502  503 -0.00000000000E+00 -0.00000000000E+00 -0.76171506527E+03  0.76171506527E+03  0.00000000000E+00 0.  1.
         -6    2    1    2    0  503 -0.20462245841E+02  0.64471915613E+02 -0.55652634799E+03  0.58653885567E+03  0.17242656929E+03 0.  0.
        -24    2    3    3    0    0 -0.65004913835E+01 -0.29678231034E+02 -0.19964766038E+03  0.21715603478E+03  0.79840474446E+02 0.  0.
          6    2    1    2  501    0  0.20462245841E+02 -0.64471915613E+02 -0.14638011659E+03  0.23398481030E+03  0.16954769686E+03 0.  0.
         24    2    5    5    0    0  0.24057712808E+02 -0.11488028824E+03 -0.90810001906E+02  0.15872486704E+03  0.56310503442E+02 0.  0.
          5    1    5    5  501    0 -0.35954669668E+01  0.50408372630E+02 -0.55570114682E+02  0.75259943261E+02  0.47000000000E+01 0. -1.
        -11    1    6    6    0    0 -0.10698554076E+02 -0.59203061373E+02 -0.23155769192E+02  0.64464340392E+02  0.00000000000E+00 0.  1.
         12    1    6    6    0    0  0.34756266884E+02 -0.55677226870E+02 -0.67654232714E+02  0.94260526647E+02  0.00000000000E+00 0. -1.
         -5    1    3    3    0  503 -0.13961754458E+02  0.94150146646E+02 -0.35687868761E+03  0.36938282089E+03  0.47000000000E+01 0.  1.
         13    1    4    4    0    0 -0.16086957480E+02  0.13866132511E+02 -0.12230288615E+02  0.24507953635E+02  0.00000000000E+00 0. -1.
        -14    1    4    4    0    0  0.95864660963E+01 -0.43544363545E+02 -0.18741737177E+03  0.19264808114E+03  0.00000000000E+00 0.  1.
</event>
<event>
12    1  0.8449700E-002  0.2157470E+03  0.7818608E-02  0.1137217E+00
         21   -1    0    0  503  502  0.00000000000E+00  0.00000000000E+00  0.16302124778E+03  0.16302124778E+03  0.00000000000E+00 0. -1.
         21   -1    0    0  501  503 -0.00000000000E+00 -0.00000000000E+00 -0.30879631150E+03  0.30879631150E+03  0.00000000000E+00 0.  1.
          6    2    1    2  501    0  0.10823956252E+03  0.71487623367E+02 -0.13872261791E+03  0.25595528759E+03  0.17158922266E+03 0.  0.
         24    2    3    3    0    0  0.64689960640E+02 -0.25736321312E+02 -0.84179655731E+02  0.13618013171E+03  0.81312142945E+02 0.  0.
         -6    2    1    2    0  502 -0.10823956252E+03 -0.71487623367E+02 -0.70524458127E+01  0.21586227170E+03  0.17239634614E+03 0.  0.
        -24    2    5    5    0    0 -0.11945083022E+03 -0.10723341715E+03  0.12682687620E+00  0.17742939186E+03  0.75588798218E+02 0.  0.
          5    1    3    3  501    0  0.43549601882E+02  0.97223944679E+02 -0.54542962175E+02  0.11977515588E+03  0.47000000000E+01 0. -1.
        -11    1    4    4    0    0  0.67698867397E+02 -0.64079897732E+01 -0.22741908382E+02  0.71703510211E+02  0.00000000000E+00 0.  1.
         12    1    4    4    0    0 -0.30089067578E+01 -0.19328331538E+02 -0.61437747350E+02  0.64476621495E+02  0.00000000000E+00 0. -1.
         -5    1    5    5    0  502  0.11211267698E+02  0.35745793786E+02 -0.71792726889E+01  0.38432879844E+02  0.47000000000E+01 0.  1.
         13    1    6    6    0    0 -0.66785566774E+01 -0.46811992955E+02 -0.12382827612E+02  0.48880468731E+02  0.00000000000E+00 0. -1.
        -14    1    6    6    0    0 -0.11277227354E+03 -0.60421424199E+02  0.12509654489E+02  0.12854892313E+03  0.00000000000E+00 0.  1.
</event>
<event>
12    1  0.8449700E-002  0.1769529E+03  0.7818608E-02  0.1170910E+00
         21   -1    0    0  501  502  0.00000000000E+00  0.00000000000E+00  0.52163743287E+03  0.52163743287E+03  0.00000000000E+00 0. -1.
         21   -1    0    0  502  503 -0.00000000000E+00 -0.00000000000E+00 -0.68740720133E+02  0.68740720133E+02  0.00000000000E+00 0. -1.
         -6    2    1    2    0  503  0.32096013070E+02 -0.26611811637E+02  0.12060437472E+03  0.21414418899E+03  0.17197085772E+03 0.  0.
        -24    2    3    3    0    0  0.17101911581E+02  0.23156121450E+02  0.13884867314E+03  0.15885752995E+03  0.71610609889E+02 0.  0.
          6    2    1    2  501    0 -0.32096013070E+02  0.26611811637E+02  0.33229233802E+03  0.37623396401E+03  0.17145102856E+03 0.  0.
         24    2    5    5    0    0  0.19507860842E+02  0.16793213589E+02  0.30661052712E+03  0.31757384058E+03  0.78616539108E+02 0.  0.
          5    1    5    5  501    0 -0.51603873912E+02  0.98185980487E+01  0.25681810903E+02  0.58660123437E+02  0.47000000000E+01 0. -1.
        -11    1    6    6    0    0  0.16159172504E+02  0.44021351356E+02  0.25345622479E+03  0.25775774696E+03  0.00000000000E+00 0.  1.
         12    1    6    6    0    0  0.33486883378E+01 -0.27228137768E+02  0.53154302326E+02  0.59816093618E+02  0.00000000000E+00 0. -1.
         -5    1    3    3    0  503  0.14994101489E+02 -0.49767933087E+02 -0.18244298422E+02  0.55286659043E+02  0.47000000000E+01 0.  1.
         13    1    4    4    0    0  0.27446558907E+02  0.14128123199E+02  0.15127300823E+02  0.34376630014E+02  0.00000000000E+00 0. -1.
        -14    1    4    4    0    0 -0.10344647326E+02  0.90279982508E+01  0.12372137232E+03  0.12448089993E+03  0.00000000000E+00 0.  1.
</event>
<event>
12    1  0.8449700E-002  0.2506306E+03  0.7818608E-02  0.1112956E+00
         21   -1    0    0  503  502  0.00000000000E+00  0.00000000000E+00  0.13549523042E+03  0.13549523042E+03  0.00000000000E+00 0. -1.
         21   -1    0    0  501  503 -0.00000000000E+00 -0.00000000000E+00 -0.48238156621E+03  0.48238156621E+03  0.00000000000E+00 0. -1.
          6    2    1    2  501    0 -0.41792183260E+02 -0.17732553904E+03 -0.23521841256E+03  0.34349490999E+03  0.17166862907E+03 0.  0.
         24    2    3    3    0    0  0.37015630674E+02 -0.95160846388E+02 -0.10030483921E+03  0.16690082592E+03  0.85843353406E+02 0.  0.
         -6    2    1    2    0  502  0.41792183260E+02  0.17732553904E+03 -0.11166792323E+03  0.27438188664E+03  0.17211845125E+03 0.  0.
        -24    2    5    5    0    0  0.29126631524E+02  0.17322975800E+03 -0.14257622368E+03  0.24040241255E+03  0.81292254752E+02 0.  0.
          5    1    3    3  501    0 -0.78807813934E+02 -0.82164692653E+02 -0.13491357335E+03  0.17659408407E+03  0.47000000000E+01 0. -1.
        -11    1    4    4    0    0  0.33846313443E+02  0.32613239035E+01 -0.34651385393E+02  0.48548199523E+02  0.00000000000E+00 0.  1.
         12    1    4    4    0    0  0.31693172311E+01 -0.98422170292E+02 -0.65653453816E+02  0.11835262640E+03  0.00000000000E+00 0. -1.
         -5    1    5    5    0  502  0.12665551736E+02  0.40957810418E+01  0.30908300443E+02  0.33979474089E+02  0.47000000000E+01 0.  1.
         11    1    6    6    0    0  0.56434985916E+02  0.94741552470E+02 -0.76153820543E+02  0.13401594600E+03  0.00000000000E+00 0. -1.
        -12    1    6    6    0    0 -0.27308354392E+02  0.78488205530E+02 -0.66422403134E+02  0.10638646655E+03  0.00000000000E+00 0.  1.
</event>
<event>
12    1  0.8449700E-002  0.1928708E+03  0.7818608E-02  0.1156574E+00
         21   -1    0    0  503  502  0.00000000000E+00  0.00000000000E+00  0.29272879319E+02  0.29272879319E+02  0.00000000000E+00 0.  1.
         21   -1    0    0  501  503 -0.00000000000E+00 -0.00000000000E+00 -0.12508597428E+04  0.12508597428E+04  0.00000000000E+00 0.  1.
          6    2    1    2  501    0  0.66517510072E+02  0.49500607463E+02 -0.60463830142E+03  0.63373902953E+03  0.17077117061E+03 0.  0.
         24    2    3    3    0    0  0.55875357131E+02  0.66998647455E+02 -0.60068161409E+03  0.61235721021E+03  0.80944901566E+02 0.  0.
         -6    2    1    2    0  502 -0.66517510072E+02 -0.49500607463E+02 -0.61694856203E+03  0.64639359257E+03  0.17413862016E+03 0.  0.
        -24    2    5    5    0    0 -0.53161652687E+02 -0.84445258026E+02 -0.57862132315E+03  0.59262952678E+03  0.80311627355E+02 0.  0.
          5    1    3    3  501    0  0.10642152941E+02 -0.17498039992E+02 -0.39566873315E+01  0.21381819320E+02  0.47000000000E+01 0. -1.
        -13    1    4    4    0    0  0.58240039760E+02  0.67021733293E+01 -0.30403753397E+03  0.30963792310E+03  0.00000000000E+00 0.  1.
         14    1    4    4    0    0 -0.23646826285E+01  0.60296474126E+02 -0.29664408012E+03  0.30271928710E+03  0.00000000000E+00 0. -1.
         -5    1    5    5    0  502 -0.13355857386E+02  0.34944650563E+02 -0.38327238878E+02  0.53764065783E+02  0.47000000000E+01 0.  1.
         13    1    6    6    0    0 -0.76546837269E+01 -0.70319672299E+02 -0.22620697269E+03  0.23700853358E+03  0.00000000000E+00 0. -1.
        -14    1    6    6    0    0 -0.45506968960E+02 -0.14125585727E+02 -0.35241435046E+03  0.35562099320E+03  0.00000000000E+00 0.  1.
</event>
<event>
12    1  0.8449700E-002  0.2362493E+03  0.7818608E-02  0.1122397E+00
         21   -1    0    0  503  502  0.00000000000E+00  0.00000000000E+00  0.34925210897E+03  0.34925210897E+03  0.00000000000E+00 0. -1.
         21   -1    0    0  501  503 -0.00000000000E+00 -0.00000000000E+00 -0.21495411651E+03  0.21495411651E+03  0.00000000000E+00 0.  1.
          6    2    1    2  501    0  0.14533737029E+03  0.71998264551E+02 -0.76095951300E+02  0.24820215784E+03  0.17177606368E+03 0.  0.
         24    2    3    3    0    0  0.10710880197E+03  0.11224796907E+03 -0.33778135751E+02  0.17824252904E+03  0.80978606323E+02 0.  0.
         -6    2    1    2    0  502 -0.14533737029E+03 -0.71998264551E+02  0.21039394376E+03  0.31600406763E+03  0.17113228185E+03 0.  0.
        -24    2    5    5    0    0 -0.13048771463E+03 -0.24630411299E+01  0.95140166531E+02  0.18050062585E+03  0.80595994971E+02 0.  0.
          5    1    3    3  501    0  0.38228568319E+02 -0.40249704523E+02 -0.42317815549E+02  0.69959628806E+02  0.47000000000E+01 0. -1.
        -13    1    4    4    0    0  0.57184813017E+01 -0.42558317057E+01 -0.22254905026E+02  0.23368652713E+02  0.00000000000E+00 0.  1.
         14    1    4    4    0    0  0.10139032067E+03  0.11650380078E+03 -0.11523230725E+02  0.15487387632E+03  0.00000000000E+00 0. -1.
         -5    1    5    5    0  502 -0.14849655662E+02 -0.69535223421E+02  0.11525377723E+03  0.13550344178E+03  0.47000000000E+01 0.  1.
         13    1    6    6    0    0 -0.23763178237E+02 -0.13661488635E+02  0.62643124889E+02  0.68377525603E+02  0.00000000000E+00 0. -1.
        -14    1    6    6    0    0 -0.10672453639E+03  0.11198447505E+02  0.32497041642E+02  0.11212310025E+03  0.00000000000E+00 0.  1.
</event>
<event>
12    1  0.8449700E-002  0.2695760E+03  0.7818608E-02  0.1102582E+00
         21   -1    0    0  503  502  0.00000000000E+00  0.00000000000E+00  0.66594979044E+02  0.66594979044E+02  0.00000000000E+00 0. -1.
         21   -1    0    0  501  503 -0.00000000000E+00 -0.00000000000E+00 -0.14548933093E+04  0.14548933093E+04  0.00000000000E+00 0.  1.
          6    2    1    2  501    0  0.15137474795E+03 -0.14274608591E+03 -0.29189121485E+03  0.39242683586E+03  0.15971092900E+03 0.  0.
         24    2    3    3    0    0  0.22854783371E+02 -0.72862148987E+02 -0.11223401677E+03  0.16069435054E+03  0.85993987561E+02 0.  0.
         -6    2    1    2    0  502 -0.15137474795E+03  0.14274608591E+03 -0.10964071154E+04  0.11290614525E+04  0.17140723846E+03 0.  0.
        -24    2    5    5    0    0 -0.78720762200E+02  0.64908474200E+01 -0.37010148775E+03  0.38650771946E+03  0.78574909872E+02 0.  0.
          5    1    3    3  501    0  0.12851996458E+03 -0.69883936923E+02 -0.17965719808E+03  0.23173248533E+03  0.47000000000E+01 0. -1.
        -13    1    4    4    0    0  0.24322488514E+02 -0.33275872537E+02 -0.11381593168E+03  0.12104930171E+03  0.00000000000E+00 0.  1.
         14    1    4    4    0    0 -0.14677051426E+01 -0.39586276450E+02  0.15819149125E+01  0.39645048825E+02  0.00000000000E+00 0. -1.
         -5    1    5    5    0  502 -0.72653985748E+02  0.13625523849E+03 -0.72630562766E+03  0.74255373303E+03  0.47000000000E+01 0.  1.
         13    1    6    6    0    0  0.10404226968E+02  0.63931230159E+01 -0.12696538480E+03  0.12755127948E+03  0.00000000000E+00 0. -1.
        -14    1    6    6    0    0 -0.89124989168E+02  0.97724404102E-01 -0.24313610296E+03  0.25895643998E+03  0.00000000000E+00 0.  1.
</event>
<event>
12    1  0.8449700E-002  0.3231368E+03  0.7818608E-02  0.1074272E+00
         21   -1    0    0  501  502  0.00000000000E+00  0.00000000000E+00  0.13043003826E+04  0.13043003826E+04  0.00000000000E+00 0. -1.
         21   -1    0    0  502  503 -0.00000000000E+00 -0.00000000000E+00 -0.14779816672E+03  0.14779816672E+03  0.00000000000E+00 0.  1.
         -6    2    1    2    0  503 -0.64037390675E+02 -0.26627143630E+03  0.86500007623E+02  0.33451403709E+03  0.17151129553E+03 0.  0.
        -24    2    3    3    0    0 -0.46708040605E+02 -0.11350184511E+03 -0.18825593809E+02  0.14808864536E+03  0.80694076609E+02 0.  0.
          6    2    1    2  501    0  0.64037390675E+02  0.26627143630E+03  0.10700022082E+04  0.11175845122E+04  0.17055541954E+03 0.  0.
         24    2    5    5    0    0  0.10088979606E+03  0.15857628157E+03  0.76845017589E+03  0.79523056957E+03  0.80936999689E+02 0.  0.
          5    1    5    5  501    0 -0.36852405383E+02  0.10769515473E+03  0.30155203235E+03  0.32235394266E+03  0.47000000000E+01 0. -1.
        -13    1    6    6    0    0 -0.98859442896E+01  0.25674936219E+01  0.81284663124E+02  0.81923869398E+02  0.00000000000E+00 0.  1.
         14    1    6    6    0    0  0.11077574035E+03  0.15600878795E+03  0.68716551277E+03  0.71330670017E+03  0.00000000000E+00 0. -1.
         -5    1    3    3    0  503 -0.17329350069E+02 -0.15276959119E+03  0.10532560143E+03  0.18642539173E+03  0.47000000000E+01 0.  1.
         13    1    4    4    0    0 -0.22286741034E+02 -0.86609043773E+01  0.22450924456E+02  0.32798690515E+02  0.00000000000E+00 0. -1.
        -14    1    4    4    0    0 -0.24421299571E+02 -0.10484094074E+03 -0.41276518264E+02  0.11528995484E+03  0.00000000000E+00 0.  1.
</event>
<event>
12    1  0.8449700E-002  0.2900036E+03  0.7818608E-02  0.1090350E+00
         21   -1    0    0  503  502  0.00000000000E+00  0.00000000000E+00  0.25241278001E+03  0.25241278001E+03  0.00000000000E+00 0. -1.
         21   -1    0    0  501  503 -0.00000000000E+00 -0.00000000000E+00 -0.55340758693E+03  0.55340758693E+03  0.00000000000E+00 0. -1.
          6    2    1    2  501    0  0.17999929282E+03 -0.14862333293E+03 -0.40467754876E+03  0.49786143488E+03  0.17208558730E+03 0.  0.
         24    2    3    3    0    0  0.21906234451E+02 -0.43016137394E+02 -0.88159225125E+02  0.12860240106E+03  0.80226288713E+02 0.  0.
         -6    2    1    2    0  502 -0.17999929282E+03  0.14862333293E+03  0.10368274184E+03  0.30795893206E+03  0.17204636692E+03 0.  0.
        -24    2    5    5    0    0 -0.12163703461E+03  0.17340305148E+03  0.78058663451E+02  0.23941062042E+03  0.79750258784E+02 0.  0.
          5    1    3    3  501    0  0.15809305837E+03 -0.10560719553E+03 -0.31651832364E+03  0.36925903381E+03  0.47000000000E+01 0. -1.
        -13    1    4    4    0    0  0.38405340221E+02 -0.11468909794E+02 -0.79706132150E+01  0.40866082811E+02  0.00000000000E+00 0.  1.
         14    1    4    4    0    0 -0.16499105770E+02 -0.31547227599E+02 -0.80188611910E+02  0.87736318253E+02  0.00000000000E+00 0. -1.
         -5    1    5    5    0  502 -0.58362258209E+02 -0.24779718555E+02  0.25624078394E+02  0.68548311639E+02  0.47000000000E+01 0.  1.
         13    1    6    6    0    0 -0.45730100725E+02  0.23796820123E+02  0.44987056751E+02  0.68420508880E+02  0.00000000000E+00 0. -1.
        -14    1    6    6    0    0 -0.75906933889E+02  0.14960623136E+03  0.33071606700E+02  0.17099011154E+03  0.00000000000E+00 0.  1.
</event>
<event>
12    1  0.8449700E-002  0.1946209E+03  0.7818608E-02  0.1154788E+00
         21   -1    0    0  503  502  0.00000000000E+00  0.00000000000E+00  0.17889744320E+04  0.17889744320E+04  0.00000000000E+00 0. -1.
         21   -1    0    0  501  503 -0.00000000000E+00 -0.00000000000E+00 -0.25983722063E+02  0.25983722063E+02  0.00000000000E+00 0. -1.
          6    2    1    2  501    0  0.61906354663E+02 -0.62900359532E+02  0.47890830523E+03  0.51621071695E+03  0.17126437896E+03 0.  0.
         24    2    3    3    0    0  0.93745564032E+02 -0.38927375242E+02  0.44600617690E+03  0.46431583013E+03  0.79775365633E+02 0.  0.
         -6    2    1    2    0  502 -0.61906354663E+02  0.62900359532E+02  0.12840824047E+04  0.12987474371E+04  0.17346017223E+03 0.  0.
        -24    2    5    5    0    0 -0.10645320648E+03  0.68710556704E+02  0.98718594803E+03  0.99843463954E+03  0.79260378964E+02 0.  0.
          5    1    3    3  501    0 -0.31839209369E+02 -0.23972984291E+02  0.32902128331E+02  0.51894886817E+02  0.47000000000E+01 0. -1.
        -13    1    4    4    0    0  0.18997405601E+02  0.22476216978E+02  0.67359754988E+02  0.73507947470E+02  0.00000000000E+00 0.  1.
         14    1    4    4    0    0  0.74748158431E+02 -0.61403592219E+02  0.37864642191E+03  0.39080788266E+03  0.00000000000E+00 0. -1.
         -5    1    5    5    0  502  0.44546851815E+02 -0.58101971715E+01  0.29689645664E+03  0.30031279754E+03  0.47000000000E+01 0.  1.
         13    1    6    6    0    0 -0.71558545488E+02  0.84775451470E+02  0.74867495357E+03  0.75684984555E+03  0.00000000000E+00 0. -1.
        -14    1    6    6    0    0 -0.34894660989E+02 -0.16064894767E+02  0.23851099447E+03  0.24158479400E+03  0.00000000000E+00 0.  1.
</event>
<event>
12    1  0.8449700E-002  0.1896690E+03  0.7818608E-02  0.1159023E+00
         21   -1    0    0  501  502  0.00000000000E+00  0.00000000000E+00  0.71817280390E+02  0.71817280390E+02  0.00000000000E+00 0.  1.
         21   -1    0    0  502  503 -0.00000000000E+00 -0.00000000000E+00 -0.85793063079E+03  0.85793063079E+03  0.00000000000E+00 0.  1.
         -6    2    1    2    0  503  0.58261280600E+01 -0.77351635643E+02 -0.69352032344E+03  0.71868438695E+03  0.17181265877E+03 0.  0.
        -24    2    3    3    0    0  0.68710864717E+02 -0.34517222803E+02 -0.35991007632E+03  0.37647514685E+03  0.79282101104E+02 0.  0.
          6    2    1    2  501    0 -0.58261280600E+01  0.77351635643E+02 -0.92593026954E+02  0.21106352423E+03  0.17308126217E+03 0.  0.
         24    2    5    5    0    0 -0.21009972227E+02  0.69686862448E+01 -0.10974999595E+03  0.13689641376E+03  0.78775535351E+02 0.  0.
          5    1    5    5  501    0  0.15183844167E+02  0.70382949399E+02  0.17156968991E+02  0.74167110465E+02  0.47000000000E+01 0. -1.
        -13    1    6    6    0    0 -0.12619838672E+02 -0.32959985556E+02 -0.26328981737E+02  0.44032218378E+02  0.00000000000E+00 0.  1.
         14    1    6    6    0    0 -0.83901335557E+01  0.39928671800E+02 -0.83421014208E+02  0.92864195384E+02  0.00000000000E+00 0. -1.
         -5    1    3    3    0  503 -0.62884736657E+02 -0.42834412841E+02 -0.33361024712E+03  0.34220924010E+03  0.47000000000E+01 0.  1.
         13    1    4    4    0    0  0.40468152451E+02 -0.42645960734E+02 -0.10894967466E+03  0.12379976146E+03  0.00000000000E+00 0. -1.
        -14    1    4    4    0    0  0.28242712266E+02  0.81287379317E+01 -0.25096040167E+03  0.25267538539E+03  0.00000000000E+00 0.  1.
</event>
<event>
12    1  0.8449700E-002  0.1746141E+03  0.7818608E-02  0.1173200E+00
         21   -1    0    0  501  502  0.00000000000E+00  0.00000000000E+00  0.53122363572E+03  0.53122363572E+03  0.00000000000E+00 0.  1.
         21   -1    0    0  502  503 -0.00000000000E+00 -0.00000000000E+00 -0.66472024080E+02  0.66472024080E+02  0.00000000000E+00 0.  1.
         -6    2    1    2    0  503 -0.79256525725E+01  0.18752020388E+02  0.34325438937E+03  0.38497124778E+03  0.17310352845E+03 0.  0.
        -24    2    3    3    0    0  0.33981468856E+01  0.71357659526E+02  0.15126442015E+03  0.18552747128E+03  0.80225026167E+02 0.  0.
          6    2    1    2  501    0  0.79256525725E+01 -0.18752020388E+02  0.12149722227E+03  0.21272441202E+03  0.17342331507E+03 0.  0.
         24    2    5    5    0    0  0.22089119204E+02  0.13660941002E+02 -0.30714155111E+01  0.83145712485E+02  0.78925442128E+02 0.  0.
          5    1    5    5  501    0 -0.14163466631E+02 -0.32412961391E+02  0.12456863779E+03  0.12957869953E+03  0.47000000000E+01 0. -1.
        -13    1    6    6    0    0 -0.58919873211E+01  0.22205894445E+01 -0.37099135750E+02  0.37629674533E+02  0.00000000000E+00 0.  1.
         14    1    6    6    0    0  0.27981106525E+02  0.11440351558E+02  0.34027720239E+02  0.45516037951E+02  0.00000000000E+00 0. -1.
         -5    1    3    3    0  503 -0.11323799458E+02 -0.52605639137E+02  0.19198996922E+03  0.19944377650E+03  0.47000000000E+01 0.  1.
         13    1    4    4    0    0 -0.37475343721E+02  0.23100760403E+02  0.57168621305E+02  0.72154679544E+02  0.00000000000E+00 0. -1.
        -14    1    4    4    0    0  0.40873490606E+02  0.48256899123E+02  0.94095798840E+02  0.11337279174E+03  0.00000000000E+00 0.  1.
</event>
<event>
12    1  0.8449700E-002  0.2469262E+03  0.7818608E-02  0.1115328E+00
         21   -1    0    0  503  502  0.00000000000E+00  0.00000000000E+00  0.18262090662E+04  0.18262090662E+04  0.00000000000E+00 0. -1.
         21   -1    0    0  501  503 -0.00000000000E+00 -0.00000000000E+00 -0.43448201617E+02  0.43448201617E+02  0.00000000000E+00 0. -1.
          6    2    1    2  501    0 -0.16278696995E+03  0.69730262795E+02  0.43976481089E+03  0.50414969081E+03  0.17149902247E+03 0.  0.
         24    2    3    3    0    0 -0.44321496523E+02  0.12229148737E+02  0.80624604981E+02  0.12160005479E+03  0.78563981982E+02 0.  0.
         -6    2    1    2    0  502  0.16278696995E+03 -0.69730262795E+02  0.13429960536E+04  0.13655075770E+04  0.17207741135E+03 0.  0.
        -24    2    5    5    0    0  0.14133510693E+03 -0.85989275581E+02  0.13094061377E+04  0.13222073416E+04  0.79486180829E+02 0.  0.
          5    1    3    3  501    0 -0.11846547343E+03  0.57501114058E+02  0.35914020591E+03  0.38254963601E+03  0.47000000000E+01 0. -1.
        -11    1    4    4    0    0 -0.40207689170E+02 -0.69208043604E+01  0.90787540323E+02  0.99533578652E+02  0.00000000000E+00 0.  1.
         12    1    4    4    0    0 -0.41138073531E+01  0.19149953098E+02 -0.10162935342E+02  0.22066476142E+02  0.00000000000E+00 0. -1.
         -5    1    5    5    0  502  0.21451863022E+02  0.16259012786E+02  0.33589915969E+02  0.43300235319E+02  0.47000000000E+01 0.  1.
         13    1    6    6    0    0  0.63179660459E+02 -0.60513383075E+02  0.92399740800E+03  0.92812970485E+03  0.00000000000E+00 0. -1.
        -14    1    6    6    0    0  0.78155446474E+02 -0.25475892506E+02  0.38540872968E+03  0.39407763680E+03  0.00000000000E+00 0.  1.
</event>
<event>
12    1  0.8449700E-002  0.3668190E+03  0.7818608E-02  0.1055970E+00
         21   -1    0    0  503  502  0.00000000000E+00  0.00000000000E+00  0.27148791938E+03  0.27148791938E+03  0.00000000000E+00 0. -1.
         21   -1    0    0  501  503 -0.00000000000E+00 -0.00000000000E+00 -0.71610419474E+03  0.71610419474E+03  0.00000000000E+00 0.  1.
          6    2    1    2  501    0  0.27757160788E+03  0.16698579140E+03 -0.49665440290E+03  0.61710038747E+03  0.17092992795E+03 0.  0.
         24    2    3    3    0    0  0.19730525130E+03  0.41120087966E+02 -0.28344376108E+03  0.35678186895E+03  0.79578341850E+02 0.  0.
         -6    2    1    2    0  502 -0.27757160788E+03 -0.16698579140E+03  0.52038127534E+02  0.37049172664E+03  0.17212176144E+03 0.  0.
        -24    2    5    5    0    0 -0.14250982550E+03 -0.58672682327E+02  0.86716486264E+02  0.19386190690E+03  0.79442784076E+02 0.  0.
          5    1    3    3  501    0  0.80266356579E+02  0.12586570344E+03 -0.21321064182E+03  0.26031851852E+03  0.47000000000E+01 0. -1.
        -13    1    4    4    0    0  0.67834508071E+02  0.45813087502E+02 -0.14944525375E+03  0.17039437591E+03  0.00000000000E+00 0.  1.
         14    1    4    4    0    0  0.12947074323E+03 -0.46929995357E+01 -0.13399850733E+03  0.18638749305E+03  0.00000000000E+00 0. -1.
         -5    1    5    5    0  502 -0.13506178238E+03 -0.10831310907E+03 -0.34678358730E+02  0.17662981974E+03  0.47000000000E+01 0.  1.
         13    1    6    6    0    0  0.84809603598E+01  0.43316496376E+01  0.24768478728E+01  0.98399518593E+01  0.00000000000E+00 0. -1.
        -14    1    6    6    0    0 -0.15099078586E+03 -0.63004331965E+02  0.84239638391E+02  0.18402195504E+03  0.00000000000E+00 0.  1.
</event>
<event>
12    1  0.8449700E-002  0.2116116E+03  0.7818608E-02  0.1140578E+00
         21   -1    0    0  501  502  0.00000000000E+00  0.00000000000E+00  0.89838447058E+02  0.89838447058E+02  0.00000000000E+00 0.  1.
         21   -1    0    0  502  503 -0.00000000000E+00 -0.00000000000E+00 -0.66088166783E+03  0.66088166783E+03  0.00000000000E+00 0.  1.
         -6    2    1    2    0  503 -0.11435796389E+02  0.12178747351E+03 -0.98234747549E+02  0.23330134130E+03  0.17267450329E+03 0.  0.
        -24    2    3    3    0    0 -0.40160049988E+02  0.37451373904E+02  0.50688836436E+01  0.96804489109E+02  0.79561174627E+02 0.  0.
          6    2    1    2  501    0  0.11435796389E+02 -0.12178747351E+03 -0.47280847322E+03  0.51741877358E+03  0.17091333699E+03 0.  0.
         24    2    5    5    0    0 -0.21373802947E+02 -0.13664864367E+03 -0.44153039584E+03  0.46948410646E+03  0.79602415181E+02 0.  0.
          5    1    5    5  501    0  0.32809599336E+02  0.14861170157E+02 -0.31278077379E+02  0.47934667117E+02  0.47000000000E+01 0. -1.
        -11    1    6    6    0    0  0.80007727411E+01 -0.94906218241E+02 -0.36695617765E+03  0.37911480971E+03  0.00000000000E+00 0.  1.
         12    1    6    6    0    0 -0.29374575688E+02 -0.41742425426E+02 -0.74574218192E+02  0.90369296756E+02  0.00000000000E+00 0. -1.
         -5    1    3    3    0  503  0.28724253598E+02  0.84336099606E+02 -0.10330363119E+03  0.13649685219E+03  0.47000000000E+01 0.  1.
         13    1    4    4    0    0 -0.38201448027E+02 -0.11841464448E+02  0.20728287750E+02  0.45047006834E+02  0.00000000000E+00 0. -1.
        -14    1    4    4    0    0 -0.19586019606E+01  0.49292838352E+02 -0.15659404107E+02  0.51757482275E+02  0.00000000000E+00 0.  1.
</event>
<event>
12    1  0.8449700E-002  0.2120335E+03  0.7818608E-02  0.1141446E+00
         21   -1    0    0  503  502  0.00000000000E+00  0.00000000000E+00  0.14286622188E+03  0.14286622188E+03  0.00000000000E+00 0. -1.
         21   -1    0    0  501  503 -0.00000000000E+00 -0.00000000000E+00 -0.61434778336E+03  0.61434778336E+03  0.00000000000E+00 0.  1.
          6    2    1    2  501    0 -0.44863310369E+02  0.11573458842E+03 -0.50284147751E+03  0.54287401378E+03  0.16265125809E+03 0.  0.
         24    2    3    3    0    0  0.13306921892E+02  0.10342310811E+03 -0.24808786416E+03  0.28123142935E+03  0.81670772321E+02 0.  0.
         -6    2    1    2    0  502  0.44863310369E+02 -0.11573458842E+03  0.31359916037E+02  0.21433999146E+03  0.17190397329E+03 0.  0.
        -24    2    5    5    0    0 -0.17467811328E+02 -0.82424952048E+02  0.67843523344E+02  0.13466663199E+03  0.80208234983E+02 0.  0.
          5    1    3    3  501    0 -0.58170232261E+02  0.12311480308E+02 -0.25475361336E+03  0.26164258443E+03  0.47000000000E+01 0. -1.
        -13    1    4    4    0    0 -0.20028870312E+02  0.28698324743E+02 -0.14735620904E+03  0.15145494984E+03  0.00000000000E+00 0.  1.
         14    1    4    4    0    0  0.33335792203E+02  0.74724783366E+02 -0.10073165511E+03  0.12977647950E+03  0.00000000000E+00 0. -1.
         -5    1    5    5    0  502  0.62331121697E+02 -0.33309636368E+02 -0.36483607307E+02  0.79673359469E+02  0.47000000000E+01 0.  1.
         11    1    6    6    0    0  0.51852669678E+01 -0.13074825940E+02  0.59610437428E+02  0.61247386208E+02  0.00000000000E+00 0. -1.
        -12    1    6    6    0    0 -0.22653078296E+02 -0.69350126109E+02  0.82330859152E+01  0.73419245782E+02  0.00000000000E+00 0.  1.
</event>
<event>
12    1  0.8449700E-002  0.1922124E+03  0.7818608E-02  0.1158044E+00
         21   -1    0    0  501  502  0.00000000000E+00  0.00000000000E+00  0.62333152472E+02  0.62333152472E+02  0.00000000000E+00 0.  1.
         21   -1    0    0  502  503 -0.00000000000E+00 -0.00000000000E+00 -0.10326712849E+04  0.10326712849E+04  0.00000000000E+00 0.  1.
         -6    2    1    2    0  503 -0.77116402794E+01  0.76664104773E+02 -0.85587009180E+03  0.87718825041E+03  0.17609303865E+03 0.  0.
        -24    2    3    3    0    0 -0.38442084570E+02  0.32534813928E+02 -0.77130816987E+03  0.77686595400E+03  0.77898071788E+02 0.  0.
          6    2    1    2  501    0  0.77116402794E+01 -0.76664104773E+02 -0.11446804061E+03  0.21781618695E+03  0.16853517324E+03 0.  0.
         24    2    5    5    0    0 -0.45630954115E+02 -0.90485428153E+02 -0.69057379733E+02  0.14625726383E+03  0.79702376657E+02 0.  0.
          5    1    5    5  501    0  0.53342594395E+02  0.13821323380E+02 -0.45410660878E+02  0.71558923120E+02  0.47000000000E+01 0. -1.
        -11    1    6    6    0    0 -0.48164482290E+02 -0.75879954855E+02 -0.16153055966E+02  0.91315421042E+02  0.00000000000E+00 0.  1.
         12    1    6    6    0    0  0.25335281745E+01 -0.14605473298E+02 -0.52904323767E+02  0.54941842784E+02  0.00000000000E+00 0. -1.
         -5    1    3    3    0  503  0.30730444290E+02  0.44129290845E+02 -0.84561921929E+02  0.10032229641E+03  0.47000000000E+01 0.  1.
         11    1    4    4    0    0 -0.18466926688E+02  0.10878081189E+02 -0.43812224078E+02  0.48773671282E+02  0.00000000000E+00 0. -1.
        -12    1    4    4    0    0 -0.19975157881E+02  0.21656732738E+02 -0.72749594579E+03  0.72809228271E+03  0.00000000000E+00 0.  1.
</event>
<event>
12    1  0.8449700E-002  0.1786189E+03  0.7818608E-02  0.1169804E+00
         21   -1    0    0  501  502  0.00000000000E+00  0.00000000000E+00  0.11330982572E+03  0.11330982572E+03  0.00000000000E+00 0.  1.
         21   -1    0    0  502  503 -0.00000000000E+00 -0.00000000000E+00 -0.29110922898E+03  0.29110922898E+03  0.00000000000E+00 0.  1.
         -6    2    1    2    0  503  0.36258951750E+02 -0.37374140128E+02 -0.45619228303E+02  0.18435248556E+03  0.17086013874E+03 0.  0.
        -24    2    3    3    0    0  0.21422007448E+02 -0.12962747638E+02 -0.94522420920E+02  0.12752235933E+03  0.81856758079E+02 0.  0.
          6    2    1    2  501    0 -0.36258951750E+02  0.37374140128E+02 -0.13218017496E+03  0.22006656914E+03  0.16806593429E+03 0.  0.
         24    2    5    5    0    0 -0.21861594044E+02  0.82788628797E+02 -0.39128726899E+02  0.11542230663E+03  0.66778478914E+02 0.  0.
          5    1    5    5  501    0 -0.14397357706E+02 -0.45414488669E+02 -0.93051448061E+02  0.10464426251E+03  0.47000000000E+01 0. -1.
        -11    1    6    6    0    0 -0.28693558526E+02  0.79386587163E+02 -0.52941578858E+02  0.99641162650E+02  0.00000000000E+00 0.  1.
         12    1    6    6    0    0  0.68319644826E+01  0.34020416347E+01  0.13812851959E+02  0.15781143977E+02  0.00000000000E+00 0. -1.
         -5    1    3    3    0  503  0.14836944302E+02 -0.24411392490E+02  0.48903192617E+02  0.56830126233E+02  0.47000000000E+01 0.  1.
         13    1    4    4    0    0  0.36681777836E+02 -0.40114349005E+02 -0.57135313926E+02  0.78861637814E+02  0.00000000000E+00 0. -1.
        -14    1    4    4    0    0 -0.15259770388E+02  0.27151601367E+02 -0.37387106993E+02  0.48660721516E+02  0.00000000000E+00 0.  1.
</event>
<event>
12    1  0.8449700E-002  0.1863935E+03  0.7818608E-02  0.1161909E+00
         21   -1    0    0  501  502  0.00000000000E+00  0.00000000000E+00  0.26892820829E+03  0.26892820829E+03  0.00000000000E+00 0. -1.
         21   -1    0    0  502  503 -0.00000000000E+00 -0.00000000000E+00 -0.13255502886E+03  0.13255502886E+03  0.00000000000E+00 0.  1.
         -6    2    1    2    0  503 -0.58482118138E+02  0.39979865638E+02  0.33962560250E+02  0.18880868168E+03  0.17168784169E+03 0.  0.
        -24    2    3    3    0    0  0.29786051027E+01 -0.41093546055E+02  0.47232171036E+02  0.86102833968E+02  0.59036161976E+02 0.  0.
          6    2    1    2  501    0  0.58482118138E+02 -0.39979865638E+02  0.10241061917E+03  0.21267455546E+03  0.17240644948E+03 0.  0.
         24    2    5    5    0    0  0.94471261347E+02 -0.65690265354E+02  0.63760427044E+02  0.15374942980E+03  0.79583069334E+02 0.  0.
          5    1    5    5  501    0 -0.35989143210E+02  0.25710399716E+02  0.38650192129E+02  0.58925125661E+02  0.47000000000E+01 0. -1.
        -11    1    6    6    0    0  0.25743413235E+02 -0.76909103895E+01 -0.17892893316E+02  0.32280474885E+02  0.00000000000E+00 0.  1.
         12    1    6    6    0    0  0.68727848112E+02 -0.57999354965E+02  0.81653320360E+02  0.12146895492E+03  0.00000000000E+00 0. -1.
         -5    1    3    3    0  503 -0.61460723240E+02  0.81073411693E+02 -0.13269610786E+02  0.10270584772E+03  0.47000000000E+01 0.  1.
         13    1    4    4    0    0  0.54360232606E+01 -0.45971157878E+02  0.85963129370E+01  0.47082845089E+02  0.00000000000E+00 0. -1.
        -14    1    4    4    0    0 -0.24574181579E+01  0.48776118236E+01  0.38635858099E+02  0.39019988879E+02  0.00000000000E+00 0.  1.
</event>
<event>
12    1  0.8449700E-002  0.1756150E+03  0.7818608E-02  0.1173096E+00
         21   -1    0    0  503  502  0.00000000000E+00  0.00000000000E+00  0.17581041875E+03  0.17581041875E+03  0.00000000000E+00 0. -1.
         21   -1    0    0  501  503 -0.00000000000E+00 -0.00000000000E+00 -0.17256773996E+03  0.17256773996E+03  0.00000000000E+00 0. -1.
          6    2    1    2  501    0 -0.14251575932E+02 -0.21944054246E+01 -0.11657919665E+02  0.17213214452E+03  0.17113049189E+03 0.  0.
         24    2    3    3    0    0  0.24668713373E+02  0.58284091558E+02 -0.67059212979E+01  0.99889153134E+02  0.76988913391E+02 0.  0.
         -6    2    1    2    0  502  0.14251575932E+02  0.21944054246E+01  0.14900598460E+02  0.17624601418E+03  0.17502201819E+03 0.  0.
        -24    2    5    5    0    0  0.29094937661E+02  0.48754691780E+02 -0.37527367668E+02  0.10442006285E+03  0.79194133832E+02 0.  0.
          5    1    3    3  501    0 -0.38920289305E+02 -0.60478496983E+02 -0.49519983673E+01  0.72242991388E+02  0.47000000000E+01 0. -1.
        -13    1    4    4    0    0  0.46190756551E+02  0.10737302772E+02 -0.16040874976E+01  0.47449433698E+02  0.00000000000E+00 0.  1.
         14    1    4    4    0    0 -0.21522043178E+02  0.47546788786E+02 -0.51018338002E+01  0.52439719436E+02  0.00000000000E+00 0. -1.
         -5    1    5    5    0  502 -0.14843361730E+02 -0.46560286356E+02  0.52427966127E+02  0.71825951335E+02  0.47000000000E+01 0.  1.
         13    1    6    6    0    0  0.14632644176E+02  0.20853871343E+02  0.24210064162E+02  0.35144351357E+02  0.00000000000E+00 0. -1.
        -14    1    6    6    0    0  0.14462293485E+02  0.27900820437E+02 -0.61737431830E+02  0.69275711493E+02  0.00000000000E+00 0.  1.
</event>
<event>
12    1  0.8449700E-002  0.1869949E+03  0.7818608E-02  0.1161406E+00
         21   -1    0    0  501  502  0.00000000000E+00  0.00000000000E+00  0.61626578257E+03  0.61626578257E+03  0.00000000000E+00 0.  1.
         21   -1    0    0  502  503 -0.00000000000E+00 -0.00000000000E+00 -0.62763807640E+02  0.62763807640E+02  0.00000000000E+00 0.  1.
         -6    2    1    2    0  503  0.63996604765E+02  0.34178167774E+02  0.16863457352E+03  0.25113941823E+03  0.17137583093E+03 0.  0.
        -24    2    3    3    0    0  0.99430381058E+02  0.50953828673E+02  0.15939093040E+03  0.21058685679E+03  0.80365802587E+02 0.  0.
          6    2    1    2  501    0 -0.63996604765E+02 -0.34178167774E+02  0.38486740141E+03  0.42789017198E+03  0.17234665659E+03 0.  0.
         24    2    5    5    0    0  0.11484505956E+02  0.25979572063E+02  0.13332523883E+03  0.15842421626E+03  0.80720387429E+02 0.  0.
          5    1    5    5  501    0 -0.75481110721E+02 -0.60157739837E+02  0.25154216258E+03  0.26946595572E+03  0.47000000000E+01 0. -1.
        -13    1    6    6    0    0 -0.32981145429E+02  0.20844175876E+02  0.78384503132E+02  0.87557786364E+02  0.00000000000E+00 0.  1.
         14    1    6    6    0    0  0.44465651385E+02  0.51353961870E+01  0.54940735700E+02  0.70866429897E+02  0.00000000000E+00 0. -1.
         -5    1    3    3    0  503 -0.35433776293E+02 -0.16775660899E+02  0.92436431177E+01  0.40552561436E+02  0.47000000000E+01 0.  1.
         11    1    4    4    0    0 -0.10477411801E+02  0.94981415995E+01  0.42826578216E+02  0.45101071534E+02  0.00000000000E+00 0. -1.
        -12    1    4    4    0    0  0.10990779286E+03  0.41455687074E+02  0.11656435219E+03  0.16548578526E+03  0.00000000000E+00 0.  1.
</event>
<event>
12    1  0.8449700E-002  0.1820336E+03  0.7818608E-02  0.1166499E+00
         21   -1    0    0  503  502  0.00000000000E+00  0.00000000000E+00  0.65170977368E+03  0.65170977368E+03  0.00000000000E+00 0. -1.
         21   -1    0    0  501  503 -0.00000000000E+00 -0.00000000000E+00 -0.60373339436E+02  0.60373339436E+02  0.00000000000E+00 0. -1.
          6    2    1    2  501    0  0.32159245666E+02 -0.49824188178E+02  0.14692068640E+03  0.23183151848E+03  0.16924390111E+03 0.  0.
         24    2    3    3    0    0  0.46586358930E+02 -0.22278132573E+02  0.16131160616E+03  0.19724661791E+03  0.10108506302E+03 0.  0.
         -6    2    1    2    0  502 -0.32159245666E+02  0.49824188178E+02  0.44441574785E+03  0.48025159463E+03  0.17210337126E+03 0.  0.
        -24    2    5    5    0    0 -0.39657326827E+02  0.38294662210E+02  0.45328924734E+03  0.46322279011E+03  0.77878281958E+02 0.  0.
          5    1    3    3  501    0 -0.14427113264E+02 -0.27546055605E+02 -0.14390919761E+02  0.34584900579E+02  0.47000000000E+01 0. -1.
        -13    1    4    4    0    0  0.24259475761E+02  0.38140511973E+02  0.42223450256E+02  0.61854996316E+02  0.00000000000E+00 0.  1.
         14    1    4    4    0    0  0.22326883169E+02 -0.60418644547E+02  0.11908815590E+03  0.13539162159E+03  0.00000000000E+00 0. -1.
         -5    1    5    5    0  502  0.74980811610E+01  0.11529525968E+02 -0.88734994899E+01  0.17028804519E+02  0.47000000000E+01 0.  1.
         13    1    6    6    0    0 -0.36138531861E+02  0.61794814905E+02  0.34770498609E+03  0.35499767603E+03  0.00000000000E+00 0. -1.
        -14    1    6    6    0    0 -0.35187949665E+01 -0.23500152695E+02  0.10558426125E+03  0.10822511408E+03  0.00000000000E+00 0.  1.
</event>
<event>
12    1  0.8449700E-002  0.2120008E+03  0.7818608E-02  0.1140095E+00
         21   -1    0    0  501  502  0.00000000000E+00  0.00000000000E+00  0.46868169841E+03  0.46868169841E+03  0.00000000000E+00 0.  1.
         21   -1    0    0  502  503 -0.00000000000E+00 -0.00000000000E+00 -0.21796205569E+03  0.21796205569E+03  0.00000000000E+00 0. -1.
         -6    2    1    2    0  503 -0.43260303854E+02 -0.11545915365E+03  0.38260687627E+03  0.43741553760E+03  0.17245886673E+03 0.  0.
        -24    2    3    3    0    0 -0.85607526456E+02 -0.80903786701E+02  0.19178671127E+03  0.23886633459E+03  0.80005699110E+02 0.  0.
          6    2    1    2  501    0  0.43260303854E+02  0.11545915365E+03 -0.13188723354E+03  0.24922821650E+03  0.17180858964E+03 0.  0.
         24    2    5    5    0    0  0.13945300406E+02  0.13505440902E+03 -0.59168304713E+02  0.16827467383E+03  0.79883119426E+02 0.  0.
          5    1    5    5  501    0  0.29315003449E+02 -0.19595255375E+02 -0.72718928831E+02  0.80953542669E+02  0.47000000000E+01 0. -1.
        -11    1    6    6    0    0  0.22278191198E+02  0.40416606822E+02  0.14148498410E+02  0.48270072688E+02  0.00000000000E+00 0.  1.
         12    1    6    6    0    0 -0.83328907925E+01  0.94637802201E+02 -0.73316803124E+02  0.12000460114E+03  0.00000000000E+00 0. -1.
         -5    1    3    3    0  503  0.42347222601E+02 -0.34555366947E+02  0.19082016500E+03  0.19854920301E+03  0.47000000000E+01 0.  1.
         11    1    4    4    0    0 -0.14631251433E+02 -0.63664618015E+02  0.62685356616E+02  0.90535689314E+02  0.00000000000E+00 0. -1.
        -12    1    4    4    0    0 -0.70976275023E+02 -0.17239168686E+02  0.12910135466E+03  0.14833064527E+03  0.00000000000E+00 0.  1.
</event>
<event>
12    1  0.8449700E-002  0.1936073E+03  0.7818608E-02  0.1156315E+00
         21   -1    0    0  503  502  0.00000000000E+00  0.00000000000E+00  0.40899383933E+02  0.40899383933E+02  0.00000000000E+00 0.  1.
         21   -1    0    0  501  503 -0.00000000000E+00 -0.00000000000E+00 -0.99172379033E+03  0.99172379033E+03  0.00000000000E+00 0.  1.
          6    2    1    2  501    0  0.74290337757E+02 -0.47544874670E+02 -0.63214298582E+03  0.65974031121E+03  0.16695195213E+03 0.  0.
         24    2    3    3    0    0  0.10750054317E+03 -0.44606967368E+02 -0.49122298594E+03  0.51485385425E+03  0.10113516205E+03 0.  0.
         -6    2    1    2    0  502 -0.74290337757E+02  0.47544874670E+02 -0.31868142058E+03  0.37288286306E+03  0.17234910022E+03 0.  0.
        -24    2    5    5    0    0 -0.62048875875E+02 -0.67187614994E+00 -0.84208620635E+02  0.13314489701E+03  0.82376922720E+02 0.  0.
          5    1    3    3  501    0 -0.33210205413E+02 -0.29379073015E+01 -0.14091999988E+03  0.14488645696E+03  0.47000000000E+01 0. -1.
        -11    1    4    4    0    0  0.91149714896E+02 -0.30004430435E+00 -0.41725115371E+03  0.42709119146E+03  0.00000000000E+00 0.  1.
         12    1    4    4    0    0  0.16350828274E+02 -0.44306923064E+02 -0.73971832229E+02  0.87762662790E+02  0.00000000000E+00 0. -1.
         -5    1    5    5    0  502 -0.12241461881E+02  0.48216750820E+02 -0.23447279995E+03  0.23973796604E+03  0.47000000000E+01 0.  1.
         13    1    6    6    0    0  0.21247142995E+00  0.46596522726E+01  0.15104198540E+02  0.15808045956E+02  0.00000000000E+00 0. -1.
        -14    1    6    6    0    0 -0.62261347305E+02 -0.53315284225E+01 -0.99312819176E+02  0.11733685106E+03  0.00000000000E+00 0.  1.
</event>
<event>
12    1  0.8449700E-002  0.2980792E+03  0.7818608E-02  0.1086752E+00
         21   -1    0    0  501  502  0.00000000000E+00  0.00000000000E+00  0.10972376958E+04  0.10972376958E+04  0.00000000000E+00 0. -1.
         21   -1    0    0  502  503 -0.00000000000E+00 -0.00000000000E+00 -0.93187888857E+02  0.93187888857E+02  0.00000000000E+00 0.  1.
         -6    2    1    2    0  503 -0.22637830573E+03 -0.71860627705E+02  0.27338629815E+03  0.40129925196E+03  0.17288705703E+03 0.  0.
        -24    2    3    3    0    0 -0.15195546852E+03 -0.77692097776E+01  0.92142473695E+02  0.19510060392E+03  0.80144776232E+02 0.  0.
          6    2    1    2  501    0  0.22637830573E+03  0.71860627705E+02  0.73066350876E+03  0.78912633266E+03  0.18011140650E+03 0.  0.
         24    2    5    5    0    0  0.20330239937E+02  0.19274187589E+02  0.14474945891E+03  0.16579776528E+03  0.75839832246E+02 0.  0.
          5    1    5    5  501    0  0.20604806579E+03  0.52586440116E+02  0.58591404985E+03  0.62332856738E+03  0.47000000000E+01 0. -1.
        -13    1    6    6    0    0  0.20017969037E+02  0.43126592308E+02  0.12828648456E+03  0.13681390342E+03  0.00000000000E+00 0.  1.
         14    1    6    6    0    0  0.31227089912E+00 -0.23852404719E+02  0.16462974351E+02  0.28983861863E+02  0.00000000000E+00 0. -1.
         -5    1    3    3    0  503 -0.74422837209E+02 -0.64091417928E+02  0.18124382446E+03  0.20619864804E+03  0.47000000000E+01 0.  1.
         11    1    4    4    0    0 -0.33136261429E+02  0.25948042717E+02  0.48241345708E+02  0.64019842066E+02  0.00000000000E+00 0. -1.
        -12    1    4    4    0    0 -0.11881920709E+03 -0.33717252495E+02  0.43901127986E+02  0.13108076185E+03  0.00000000000E+00 0.  1.
</event>
<event>
12    1  0.8449700E-002  0.2124132E+03  0.7818608E-02  0.1139711E+00
         21   -1    0    0  501  502  0.00000000000E+00  0.00000000000E+00  0.54905765290E+03  0.54905765290E+03  0.00000000000E+00 0. -1.
         21   -1    0    0  502  503 -0.00000000000E+00 -0.00000000000E+00 -0.10163600772E+03  0.10163600772E+03  0.00000000000E+00 0. -1.
         -6    2    1    2    0  503 -0.68370808269E+02  0.10305563537E+03  0.81136478232E+02  0.22738186605E+03  0.17269728864E+03 0.  0.
        -24    2    3    3    0    0 -0.32364046331E+02  0.12895189791E+03  0.92843437461E+02  0.18127062867E+03  0.81013045052E+02 0.  0.
          6    2    1    2  501    0  0.68370808269E+02 -0.10305563537E+03  0.36628516695E+03  0.42331179457E+03  0.17243265493E+03 0.  0.
         24    2    5    5    0    0  0.12730675582E+02 -0.12309297807E+03  0.21512880400E+03  0.26093059021E+03  0.80563138269E+02 0.  0.
          5    1    5    5  501    0  0.55640132687E+02  0.20037342696E+02  0.15115636295E+03  0.16238120435E+03  0.47000000000E+01 0. -1.
        -11    1    6    6    0    0 -0.59692070863E+01 -0.10378254450E+02 -0.49543289039E+01  0.12957043396E+02  0.00000000000E+00 0.  1.
         12    1    6    6    0    0  0.18699882668E+02 -0.11271472362E+03  0.22008313291E+03  0.24797354682E+03  0.00000000000E+00 0. -1.
         -5    1    3    3    0  503 -0.36006761938E+02 -0.25896262536E+02 -0.11706959229E+02  0.46111237383E+02  0.47000000000E+01 0.  1.
         11    1    4    4    0    0 -0.24843391256E+02 -0.38215455444E+00  0.68422496522E+01  0.25771234186E+02  0.00000000000E+00 0. -1.
        -12    1    4    4    0    0 -0.75206550754E+01  0.12933405246E+03  0.86001187809E+02  0.15549939448E+03  0.00000000000E+00 0.  1.
</event>
<event>
12    1  0.8449700E-002  0.1808834E+03  0.7818608E-02  0.1167609E+00
         21   -1    0    0  503  502  0.00000000000E+00  0.00000000000E+00  0.13356439801E+03  0.13356439801E+03  0.00000000000E+00 0.  1.
         21   -1    0    0  501  503 -0.00000000000E+00 -0.00000000000E+00 -0.33325423944E+03  0.33325423944E+03  0.00000000000E+00 0.  1.
          6    2    1    2  501    0 -0.50910741511E+01 -0.51871382850E+02 -0.22299639073E+03  0.28713445292E+03  0.17321155959E+03 0.  0.
         24    2    3    3    0    0  0.19933802026E+02 -0.84080936506E+02 -0.87008907205E+02  0.14508380895E+03  0.77535806826E+02 0.  0.
         -6    2    1    2    0  502  0.50910741511E+01  0.51871382850E+02  0.23306549305E+02  0.17968418453E+03  0.17037209729E+03 0.  0.
        -24    2    5    5    0    0 -0.41661366701E+02  0.43729284986E+02 -0.33614214720E+02  0.10542687607E+03  0.79605219210E+02 0.  0.
          5    1    3    3  501    0 -0.25024876177E+02  0.32209553656E+02 -0.13598748353E+03  0.14205064396E+03  0.47000000000E+01 0. -1.
        -11    1    4    4    0    0  0.13974262358E+02 -0.58110011665E+02 -0.99175062533E+02  0.11579182395E+03  0.00000000000E+00 0.  1.
         12    1    4    4    0    0  0.59595396683E+01 -0.25970924842E+02  0.12166155328E+02  0.29291985007E+02  0.00000000000E+00 0. -1.
         -5    1    5    5    0  502  0.46752440852E+02  0.81420978643E+01  0.56920764025E+02  0.74257308465E+02  0.47000000000E+01 0.  1.
         11    1    6    6    0    0  0.18034746189E+02  0.33178372112E+01 -0.27535690088E+02  0.33082840604E+02  0.00000000000E+00 0. -1.
        -12    1    6    6    0    0 -0.59696112890E+02  0.40411447775E+02 -0.60785246327E+01  0.72344035463E+02  0.00000000000E+00 0.  1.
</event>
<event>
12    1  0.8449700E-002  0.1796093E+03  0.7818608E-02  0.1168986E+00
         21   -1    0    0  501  502  0.00000000000E+00  0.00000000000E+00  0.80389186493E+03  0.80389186493E+03  0.00000000000E+00 0. -1.
         21   -1    0    0  502  503 -0.00000000000E+00 -0.00000000000E+00 -0.87998070919E+02  0.87998070919E+02  0.00000000000E+00 0. -1.
         -6    2    1    2    0  503 -0.35023409140E+02 -0.22521409379E+02  0.25069429522E+02  0.17809878685E+03  0.17133840350E+03 0.  0.
        -24    2    3    3    0    0  0.39114618033E+02 -0.11214181719E+02 -0.17953757213E+02  0.91511345113E+02  0.79976732059E+02 0.  0.
          6    2    1    2  501    0  0.35023409140E+02  0.22521409379E+02  0.69082436449E+03  0.71379114900E+03  0.17471590868E+03 0.  0.
         24    2    5    5    0    0  0.78040444463E+02 -0.21514424000E+02  0.36154748599E+03  0.37877626475E+03  0.78750826684E+02 0.  0.
          5    1    5    5  501    0 -0.43017035323E+02  0.44035833379E+02  0.32927687850E+03  0.33501488424E+03  0.47000000000E+01 0. -1.
        -11    1    6    6    0    0  0.30893918891E+02  0.67960002074E+01  0.33206163836E+02  0.45861412538E+02  0.00000000000E+00 0.  1.
         12    1    6    6    0    0  0.47146525572E+02 -0.28310424208E+02  0.32834132215E+03  0.33291485222E+03  0.00000000000E+00 0. -1.
         -5    1    3    3    0  503 -0.74138027173E+02 -0.11307227660E+02  0.43023186735E+02  0.86587441741E+02  0.47000000000E+01 0.  1.
         11    1    4    4    0    0  0.64320102556E+01  0.27156359484E+02 -0.28639433501E+02  0.39988195354E+02  0.00000000000E+00 0. -1.
        -12    1    4    4    0    0  0.32682607777E+02 -0.38370541203E+02  0.10685676289E+02  0.51523149759E+02  0.00000000000E+00 0.  1.
</event>
<event>
12    1  0.8449700E-002  0.2434490E+03  0.7818608E-02  0.1117638E+00
         21   -1    0    0  501  502  0.00000000000E+00  0.00000000000E+00  0.77791697785E+02  0.77791697785E+02  0.00000000000E+00 0.  1.
         21   -1    0    0  502  503 -0.00000000000E+00 -0.00000000000E+00 -0.94121266272E+03  0.94121266272E+03  0.00000000000E+00 0. -1.
         -6    2    1    2    0  503 -0.84675428341E+01 -0.17172272871E+03 -0.65501535087E+03  0.69853548168E+03  0.17130766022E+03 0.  0.
        -24    2    3    3    0    0  0.36140262829E+01 -0.17308125483E+02 -0.15598434029E+03  0.17599947955E+03  0.79574304844E+02 0.  0.
          6    2    1    2  501    0  0.84675428341E+01  0.17172272871E+03 -0.20840561406E+03  0.32046887883E+03  0.17235720897E+03 0.  0.
         24    2    5    5    0    0  0.67398097030E+02  0.14295399622E+03 -0.15990314134E+03  0.23876802174E+03  0.80391573432E+02 0.  0.
          5    1    5    5  501    0 -0.58930554196E+02  0.28768732492E+02 -0.48502472727E+02  0.81700857080E+02  0.47000000000E+01 0. -1.
        -13    1    6    6    0    0 -0.87117169682E+00  0.91009900929E+02 -0.73183453006E+02  0.11678775108E+03  0.00000000000E+00 0.  1.
         14    1    6    6    0    0  0.68269268727E+02  0.51944095294E+02 -0.86719688331E+02  0.12198027067E+03  0.00000000000E+00 0. -1.
         -5    1    3    3    0  503 -0.12081569117E+02 -0.15441460323E+03 -0.49903101057E+03  0.52253600213E+03  0.47000000000E+01 0.  1.
         11    1    4    4    0    0 -0.97924521843E+01 -0.12224842673E+02 -0.16027099151E+03  0.16103456032E+03  0.00000000000E+00 0. -1.
        -12    1    4    4    0    0  0.13406478467E+02 -0.50832828108E+01  0.42866512128E+01  0.14964919233E+02  0.00000000000E+00 0.  1.
</event>
<event>
12    1  0.8449700E-002  0.2176713E+03  0.7818608E-02  0.1136341E+00
         21   -1    0    0  501  502  0.00000000000E+00  0.00000000000E+00  0.20923959950E+03  0.20923959950E+03  0.00000000000E+00 0.  1.
         21   -1    0    0  502  503 -0.00000000000E+00 -0.00000000000E+00 -0.22419978861E+03  0.22419978861E+03  0.00000000000E+00 0.  1.
         -6    2    1    2    0  503 -0.12397384368E+03 -0.50725341413E+02 -0.25788588005E+02  0.21549887568E+03  0.16682967352E+03 0.  0.
        -24    2    3    3    0    0 -0.16395276651E+02 -0.63707050076E+02 -0.29710526866E+02  0.10696710867E+03  0.78942090197E+02 0.  0.
          6    2    1    2  501    0  0.12397384368E+03  0.50725341413E+02  0.10828398886E+02  0.21794051243E+03  0.17157575166E+03 0.  0.
         24    2    5    5    0    0  0.85939543823E+02  0.96157885365E+02  0.29235546530E+02  0.15571803177E+03  0.82228000865E+02 0.  0.
          5    1    5    5  501    0  0.38034299862E+02 -0.45432543952E+02 -0.18407147644E+02  0.62222480667E+02  0.47000000000E+01 0. -1.
        -11    1    6    6    0    0  0.40582255233E+02  0.60490910796E+02 -0.24517955358E+02  0.76858310310E+02  0.00000000000E+00 0.  1.
         12    1    6    6    0    0  0.45357288590E+02  0.35666974569E+02  0.53753501888E+02  0.78859721457E+02  0.00000000000E+00 0. -1.
         -5    1    3    3    0  503 -0.10757856703E+03  0.12981708663E+02  0.39219388607E+01  0.10853176701E+03  0.47000000000E+01 0.  1.
         13    1    4    4    0    0  0.97972384009E+01  0.11041004850E+02  0.10524834289E+02  0.18129032108E+02  0.00000000000E+00 0. -1.
        -14    1    4    4    0    0 -0.26192515052E+02 -0.74748054926E+02 -0.40235361155E+02  0.88838076562E+02  0.00000000000E+00 0.  1.
</event>
<event>
12    1  0.8449700E-002  0.1792054E+03  0.7818608E-02  0.1168628E+00
         21   -1    0    0  501  502  0.00000000000E+00  0.00000000000E+00  0.19557588294E+03  0.19557588294E+03  0.00000000000E+00 0.  1.
         21   -1    0    0  502  503 -0.00000000000E+00 -0.00000000000E+00 -0.18299056119E+03  0.18299056119E+03  0.00000000000E+00 0.  1.
         -6    2    1    2    0  503  0.26153592088E+02 -0.41793684569E+02 -0.54681124364E+02  0.18715237485E+03  0.17206180169E+03 0.  0.
        -24    2    3    3    0    0  0.60431886877E+02  0.25068570673E+02 -0.22614836247E+02  0.10532389873E+03  0.79380392028E+02 0.  0.
          6    2    1    2  501    0 -0.26153592088E+02  0.41793684569E+02  0.67266446114E+02  0.19141406929E+03  0.17229001335E+03 0.  0.
         24    2    5    5    0    0 -0.37986034848E+02  0.96780855384E+02  0.56798152355E+02  0.13400961972E+03  0.62634457408E+02 0.  0.
          5    1    5    5  501    0  0.11832442760E+02 -0.54987170814E+02  0.10468293758E+02  0.57404449567E+02  0.47000000000E+01 0. -1.
        -11    1    6    6    0    0  0.20416676729E+01  0.67177281587E+02  0.14667628323E+02  0.68790223789E+02  0.00000000000E+00 0.  1.
         12    1    6    6    0    0 -0.40027702521E+02  0.29603573797E+02  0.42130524033E+02  0.65219395933E+02  0.00000000000E+00 0. -1.
         -5    1    3    3    0  503 -0.34278294789E+02 -0.66862255242E+02 -0.32066288117E+02  0.81828476115E+02  0.47000000000E+01 0.  1.
         13    1    4    4    0    0  0.28202238000E+01  0.54218774141E+01  0.26446775384E+02  0.27143734916E+02  0.00000000000E+00 0. -1.
        -14    1    4    4    0    0  0.57611663077E+02  0.19646693258E+02 -0.49061611631E+02  0.78180163816E+02  0.00000000000E+00 0.  1.
</event>
<event>
12    1  0.8449700E-002  0.2084759E+03  0.7818608E-02  0.1142965E+00
         21   -1    0    0  501  502  0.00000000000E+00  0.00000000000E+00  0.37834671027E+03  0.37834671027E+03  0.00000000000E+00 0.  1.
         21   -1    0    0  502  503 -0.00000000000E+00 -0.00000000000E+00 -0.45735914192E+03  0.45735914192E+03  0.00000000000E+00 0. -1.
         -6    2    1    2    0  503  0.10622715886E+03 -0.44351029588E+02 -0.40138744488E+03  0.45229867721E+03  0.17381308753E+03 0.  0.
        -24    2    3    3    0    0  0.77045994881E+02  0.36343363232E+02 -0.17834274039E+03  0.21327115670E+03  0.80134436108E+02 0.  0.
          6    2    1    2  501    0 -0.10622715886E+03  0.44351029588E+02  0.32237501322E+03  0.38340717498E+03  0.17269681400E+03 0.  0.
         24    2    5    5    0    0 -0.11420143315E+03  0.28666496536E+02  0.33294835529E+03  0.36234822937E+03  0.81104233439E+02 0.  0.
          5    1    5    5  501    0  0.79742742940E+01  0.15684533051E+02 -0.10573342065E+02  0.21058945604E+02  0.47000000000E+01 0. -1.
        -13    1    6    6    0    0 -0.58918115438E+02  0.28348605343E+02  0.79464630858E+02  0.10290585653E+03  0.00000000000E+00 0.  1.
         14    1    6    6    0    0 -0.55283317713E+02  0.31789119378E+00  0.25348372443E+03  0.25944237284E+03  0.00000000000E+00 0. -1.
         -5    1    3    3    0  503  0.29181163975E+02 -0.80694392819E+02 -0.22304470448E+03  0.23902752051E+03  0.47000000000E+01 0.  1.
         13    1    4    4    0    0  0.22662475842E+02 -0.22241237067E+02 -0.82917214615E+02  0.88789216220E+02  0.00000000000E+00 0. -1.
        -14    1    4    4    0    0  0.54383519039E+02  0.58584600298E+02 -0.95425525779E+02  0.12448194048E+03  0.00000000000E+00 0.  1.
</event>
<event>
12    1  0.8449700E-002  0.2141007E+03  0.7818608E-02  0.1138532E+00
         21   -1    0    0  501  502  0.00000000000E+00  0.00000000000E+00  0.62505067302E+03  0.62505067302E+03  0.00000000000E+00 0. -1.
         21   -1    0    0  502  503 -0.00000000000E+00 -0.00000000000E+00 -0.81489104828E+02  0.81489104828E+02  0.00000000000E+00 0. -1.
         -6    2    1    2    0  503 -0.73711954031E+02  0.10427164091E+03  0.15745482427E+03  0.26504512964E+03  0.17073626386E+03 0.  0.
        -24    2    3    3    0    0  0.48176338120E+01  0.10845235635E+03  0.95318692302E+02  0.16470887775E+03  0.79109026750E+02 0.  0.
          6    2    1    2  501    0  0.73711954031E+02 -0.10427164091E+03  0.38610674393E+03  0.44149464821E+03  0.17185191132E+03 0.  0.
         24    2    5    5    0    0  0.10410177822E+03 -0.69848035247E+02  0.35808900469E+03  0.38749826172E+03  0.78811416071E+02 0.  0.
          5    1    5    5  501    0 -0.30389824191E+02 -0.34423605667E+02  0.28017739242E+02  0.53996386487E+02  0.47000000000E+01 0. -1.
        -11    1    6    6    0    0  0.98064098680E+02 -0.28340306950E+02  0.20860158492E+03  0.23223772665E+03  0.00000000000E+00 0.  1.
         12    1    6    6    0    0  0.60376795414E+01 -0.41507728298E+02  0.14948741976E+03  0.15526053507E+03  0.00000000000E+00 0. -1.
         -5    1    3    3    0  503 -0.78529587843E+02 -0.41807154391E+01  0.62136131966E+02  0.10033625189E+03  0.47000000000E+01 0.  1.
         11    1    4    4    0    0 -0.31141168049E+02  0.83008261939E+02  0.75315169506E+02  0.11632935423E+03  0.00000000000E+00 0. -1.
        -12    1    4    4    0    0  0.35958801861E+02  0.25444094414E+02  0.20003522797E+02  0.48379523521E+02  0.00000000000E+00 0.  1.
</event>
<event>
12    1  0.8449700E-002  0.1719130E+03  0.7818608E-02  0.1178764E+00
         21   -1    0    0  503  502  0.00000000000E+00  0.00000000000E+00  0.60450321196E+02  0.60450321196E+02  0.00000000000E+00 0. -1.
         21   -1    0    0  501  503 -0.00000000000E+00 -0.00000000000E+00 -0.79191954602E+03  0.79191954602E+03  0.00000000000E+00 0. -1.
          6    2    1    2  501    0 -0.22568051205E+02 -0.13243309674E+02 -0.63529245154E+03  0.65538240349E+03  0.15888641740E+03 0.  0.
         24    2    3    3    0    0 -0.64645046426E+01 -0.54014934826E+02 -0.56168075980E+03  0.56957785355E+03  0.77293287675E+02 0.  0.
         -6    2    1    2    0  502  0.22568051205E+02  0.13243309674E+02 -0.96176773289E+02  0.19698746373E+03  0.16990993779E+03 0.  0.
        -24    2    5    5    0    0  0.77121720164E+02  0.16192179293E+02 -0.41165711584E+02  0.11931439543E+03  0.79569860852E+02 0.  0.
          5    1    3    3  501    0 -0.16103546562E+02  0.40771625152E+02 -0.73611691732E+02  0.85804549932E+02  0.47000000000E+01 0. -1.
        -11    1    4    4    0    0  0.12512291343E+02 -0.59680912459E+02 -0.25231943133E+03  0.25958325095E+03  0.00000000000E+00 0.  1.
         12    1    4    4    0    0 -0.18976795986E+02  0.56659776329E+01 -0.30936132848E+03  0.30999460261E+03  0.00000000000E+00 0. -1.
         -5    1    5    5    0  502 -0.54553668960E+02 -0.29488696194E+01 -0.55011061705E+02  0.77673068299E+02  0.47000000000E+01 0.  1.
         11    1    6    6    0    0  0.10868284399E+02 -0.19406141815E+02 -0.38006702264E+02  0.44036659306E+02  0.00000000000E+00 0. -1.
        -12    1    6    6    0    0  0.66253435766E+02  0.35598321108E+02 -0.31590093202E+01  0.75277736127E+02  0.00000000000E+00 0.  1.
</event>
<event>
12    1  0.8449700E-002  0.1905392E+03  0.7818608E-02  0.1157992E+00
         21   -1    0    0  501  502  0.00000000000E+00  0.00000000000E+00  0.54750704568E+02  0.54750704568E+02  0.00000000000E+00 0. -1.
         21   -1    0    0  502  503 -0.00000000000E+00 -0.00000000000E+00 -0.99081135891E+03  0.99081135891E+03  0.00000000000E+00 0. -1.
         -6    2    1    2    0  503  0.79207088793E+02  0.21134002534E+02 -0.76885790106E+03  0.79211594470E+03  0.17200229318E+03 0.  0.
        -24    2    3    3    0    0  0.98853569094E+02  0.38179376485E+02 -0.37530706032E+03  0.39767851848E+03  0.77866049232E+02 0.  0.
          6    2    1    2  501    0 -0.79207088793E+02 -0.21134002534E+02 -0.16720275329E+03  0.25344611878E+03  0.17192371982E+03 0.  0.
         24    2    5    5    0    0 -0.10039929911E+02  0.22746206493E+02 -0.21614165763E+02  0.86330304355E+02  0.79796987324E+02 0.  0.
          5    1    5    5  501    0 -0.69167158882E+02 -0.43880209028E+02 -0.14558858752E+03  0.16711581442E+03  0.47000000000E+01 0. -1.
        -13    1    6    6    0    0  0.18932919507E+02 -0.19604997099E+02  0.62181370300E+01  0.27954902619E+02  0.00000000000E+00 0.  1.
         14    1    6    6    0    0 -0.28972849418E+02  0.42351203593E+02 -0.27832302793E+02  0.58375401736E+02  0.00000000000E+00 0. -1.
         -5    1    3    3    0  503 -0.19646480301E+02 -0.17045373951E+02 -0.39355084074E+03  0.39443742623E+03  0.47000000000E+01 0.  1.
         11    1    4    4    0    0  0.75757825512E+02 -0.61010202373E+01 -0.27933099624E+03  0.28948622771E+03  0.00000000000E+00 0. -1.
        -12    1    4    4    0    0  0.23095743583E+02  0.44280396722E+02 -0.95976064082E+02  0.10819229077E+03  0.00000000000E+00 0.  1.
</event>
<event>
12    1  0.8449700E-002  0.2329193E+03  0.7818608E-02  0.1124605E+00
         21   -1    0    0  503  502  0.00000000000E+00  0.00000000000E+00  0.15693665151E+03  0.15693665151E+03  0.00000000000E+00 0. -1.
         21   -1    0    0  501  503 -0.00000000000E+00 -0.00000000000E+00 -0.43735870349E+03  0.43735870349E+03  0.00000000000E+00 0.  1.
          6    2    1    2  501    0 -0.12485468092E+03 -0.95998485349E+02 -0.27626498601E+03  0.36133893785E+03  0.17157821824E+03 0.  0.
         24    2    3    3    0    0 -0.12000365526E+03 -0.87255743086E+01 -0.14756895040E+03  0.20569558581E+03  0.77827154499E+02 0.  0.
         -6    2    1    2    0  502  0.12485468092E+03  0.95998485349E+02 -0.41570659666E+01  0.23295641716E+03  0.17160131282E+03 0.  0.
        -24    2    5    5    0    0  0.12526833095E+03  0.76064626641E+02  0.52095118375E+02  0.17309049970E+03  0.75950230836E+02 0.  0.
          5    1    3    3  501    0 -0.48510256588E+01 -0.87272911041E+02 -0.12869603561E+03  0.15564335204E+03  0.47000000000E+01 0. -1.
        -11    1    4    4    0    0 -0.22555351976E+02  0.30749041859E+02 -0.37674473774E+02  0.53606095289E+02  0.00000000000E+00 0.  1.
         12    1    4    4    0    0 -0.97448303283E+02 -0.39474616168E+02 -0.10989447663E+03  0.15208949052E+03  0.00000000000E+00 0. -1.
         -5    1    5    5    0  502 -0.41365003210E+00  0.19933858708E+02 -0.56252184342E+02  0.59865917454E+02  0.47000000000E+01 0.  1.
         11    1    6    6    0    0  0.58363949118E+02 -0.55737435611E+01  0.27260617209E+02  0.64657237990E+02  0.00000000000E+00 0. -1.
        -12    1    6    6    0    0  0.66904381833E+02  0.81638370202E+02  0.24834501166E+02  0.10843326171E+03  0.00000000000E+00 0.  1.
</event>
<event>
12    1  0.8449700E-002  0.1795447E+03  0.7818608E-02  0.1168867E+00
         21   -1    0    0  503  502  0.00000000000E+00  0.00000000000E+00  0.48043883629E+03  0.48043883629E+03  0.00000000000E+00 0.  1.
         21   -1    0    0  501  503 -0.00000000000E+00 -0.00000000000E+00 -0.66472109091E+02  0.66472109091E+02  0.00000000000E+00 0.  1.
          6    2    1    2  501    0 -0.30719077255E+02 -0.28438689078E+02  0.18648852575E+03  0.25711335606E+03  0.17197932109E+03 0.  0.
         24    2    3    3    0    0 -0.10327223049E+02  0.50811452483E+02  0.10461272328E+03  0.14125935446E+03  0.79510553461E+02 0.  0.
         -6    2    1    2    0  502  0.30719077255E+02  0.28438689078E+02  0.22747820145E+03  0.28979758933E+03  0.17459636279E+03 0.  0.
        -24    2    5    5    0    0  0.69195608493E+02  0.17486533052E+02  0.22505185847E+03  0.24944451859E+03  0.80501042126E+02 0.  0.
          5    1    3    3  501    0 -0.20391854205E+02 -0.79250141560E+02  0.81875802469E+02  0.11585400159E+03  0.47000000000E+01 0. -1.
        -11    1    4    4    0    0 -0.22008676220E+02  0.56186819184E+02  0.33550933573E+02  0.69043505289E+02  0.00000000000E+00 0.  1.
         12    1    4    4    0    0  0.11681453171E+02 -0.53753667016E+01  0.71061789707E+02  0.72215849173E+02  0.00000000000E+00 0. -1.
         -5    1    5    5    0  502 -0.38476531238E+02  0.10952156025E+02  0.24263429876E+01  0.40353070738E+02  0.47000000000E+01 0.  1.
         11    1    6    6    0    0 -0.16868674967E+02  0.58898120331E+01  0.20333130022E+02  0.27068030172E+02  0.00000000000E+00 0. -1.
        -12    1    6    6    0    0  0.86064283459E+02  0.11596721019E+02  0.20471872844E+03  0.22237648842E+03  0.00000000000E+00 0.  1.
</event>
<event>
12    1  0.8449700E-002  0.1783129E+03  0.7818608E-02  0.1170696E+00
         21   -1    0    0  501  502  0.00000000000E+00  0.00000000000E+00  0.35910246811E+03  0.35910246811E+03  0.00000000000E+00 0. -1.
         21   -1    0    0  502  503 -0.00000000000E+00 -0.00000000000E+00 -0.87071844037E+02  0.87071844037E+02  0.00000000000E+00 0. -1.
         -6    2    1    2    0  503  0.44398312823E+02 -0.90724598500E+01  0.11393558125E+03  0.21160533092E+03  0.17245863182E+03 0.  0.
        -24    2    3    3    0    0  0.33781942217E+02  0.60058152636E+02  0.53771009993E+02  0.11922776577E+03  0.81090919946E+02 0.  0.
          6    2    1    2  501    0 -0.44398312823E+02  0.90724598500E+01  0.15809504282E+03  0.23456898123E+03  0.16725742041E+03 0.  0.
         24    2    5    5    0    0 -0.80538417752E+02 -0.33214017345E+02  0.84066452173E+02  0.14185126139E+03  0.73925667370E+02 0.  0.
          5    1    5    5  501    0  0.36140104929E+02  0.42286477195E+02  0.74028590651E+02  0.92717719836E+02  0.47000000000E+01 0. -1.
        -13    1    6    6    0    0 -0.77770256552E+02 -0.36213209095E+02  0.96290972280E+02  0.12896340822E+03  0.00000000000E+00 0.  1.
         14    1    6    6    0    0 -0.27681612001E+01  0.29991917501E+01 -0.12224520107E+02  0.12887853174E+02  0.00000000000E+00 0. -1.
         -5    1    3    3    0  503  0.10616370606E+02 -0.69130612486E+02  0.60164571260E+02  0.92377565147E+02  0.47000000000E+01 0.  1.
         13    1    4    4    0    0 -0.19607554618E+02  0.44475951255E+02  0.13142590385E+02  0.50351704243E+02  0.00000000000E+00 0. -1.
        -14    1    4    4    0    0  0.53389496835E+02  0.15582201382E+02  0.40628419607E+02  0.68876061531E+02  0.00000000000E+00 0.  1.
</event>
<event>
12    1  0.8449700E-002  0.2554762E+03  0.7818608E-02  0.1109999E+00
         21   -1    0    0  501  502  0.00000000000E+00  0.00000000000E+00  0.13115401890E+03  0.13115401890E+03  0.00000000000E+00 0.  1.
         21   -1    0    0  502  503 -0.00000000000E+00 -0.00000000000E+00 -0.68652179760E+03  0.68652179760E+03  0.00000000000E+00 0. -1.
         -6    2    1    2    0  503  0.17321557883E+03 -0.75400934725E+02 -0.49262272134E+03  0.55460729524E+03  0.17094785356E+03 0.  0.
        -24    2    3    3    0    0  0.12042354172E+03 -0.91330110294E+02 -0.45925317018E+03  0.48998257271E+03  0.79538850857E+02 0.  0.
          6    2    1    2  501    0 -0.17321557883E+03  0.75400934725E+02 -0.62745057355E+02  0.26306852127E+03  0.17198594988E+03 0.  0.
         24    2    5    5    0    0 -0.16157948389E+03  0.61347081276E+01 -0.21164418402E+02  0.18131126846E+03  0.79248212623E+02 0.  0.
          5    1    5    5  501    0 -0.11636094937E+02  0.69266226598E+02 -0.41580638952E+02  0.81757252817E+02  0.47000000000E+01 0. -1.
        -11    1    6    6    0    0 -0.12063019909E+03 -0.30760632953E+02 -0.20639338764E+02  0.12618971343E+03  0.00000000000E+00 0.  1.
         12    1    6    6    0    0 -0.40949284804E+02  0.36895341081E+02 -0.52507963886E+00  0.55121555022E+02  0.00000000000E+00 0. -1.
         -5    1    3    3    0  503  0.52792037106E+02  0.15929175569E+02 -0.33369551163E+02  0.64624722521E+02  0.47000000000E+01 0.  1.
         13    1    4    4    0    0  0.12571562044E+03 -0.60956242339E+02 -0.38591355736E+03  0.41042582090E+03  0.00000000000E+00 0. -1.
        -14    1    4    4    0    0 -0.52920787131E+01 -0.30373867955E+02 -0.73339612818E+02  0.79556751819E+02  0.00000000000E+00 0.  1.
</event>
<event>
12    1  0.8449700E-002  0.1737202E+03  0.7818608E-02  0.1174140E+00
         21   -1    0    0  503  502  0.00000000000E+00  0.00000000000E+00  0.14010919078E+03  0.14010919078E+03  0.00000000000E+00 0. -1.
         21   -1    0    0  501  503 -0.00000000000E+00 -0.00000000000E+00 -0.37802770268E+03  0.37802770268E+03  0.00000000000E+00 0. -1.
          6    2    1    2  501    0  0.13465213853E+02  0.28364587775E+02 -0.28927311848E+03  0.33742800598E+03  0.17085918273E+03 0.  0.
         24    2    3    3    0    0 -0.14500612025E+01 -0.35885392651E+02 -0.23857308331E+03  0.25410268581E+03  0.79757098586E+02 0.  0.
         -6    2    1    2    0  502 -0.13465213853E+02 -0.28364587775E+02  0.51354606580E+02  0.18070888748E+03  0.17038939102E+03 0.  0.
        -24    2    5    5    0    0  0.31159255015E+02 -0.65542874863E+02  0.56558528195E+02  0.12220470769E+03  0.80426089370E+02 0.  0.
          5    1    3    3  501    0  0.14915275056E+02  0.64249980425E+02 -0.50700035171E+02  0.83325320167E+02  0.47000000000E+01 0. -1.
        -13    1    4    4    0    0 -0.15548414033E+02  0.93036159521E+01 -0.10032973590E+02  0.20711615287E+02  0.00000000000E+00 0.  1.
         14    1    4    4    0    0  0.14098352831E+02 -0.45189008603E+02 -0.22854010972E+03  0.23339107053E+03  0.00000000000E+00 0. -1.
         -5    1    5    5    0  502 -0.44624468868E+02  0.37178287089E+02 -0.52039216157E+01  0.58504179789E+02  0.47000000000E+01 0.  1.
         11    1    6    6    0    0  0.49385489296E+02 -0.48262177802E+02  0.10641000289E+02  0.69866982519E+02  0.00000000000E+00 0. -1.
        -12    1    6    6    0    0 -0.18226234281E+02 -0.17280697062E+02  0.45917527906E+02  0.52337725171E+02  0.00000000000E+00 0.  1.
</event>
<event>
12    1  0.8449700E-002  0.1802225E+03  0.7818608E-02  0.1167772E+00
         21   -1    0    0  501  502  0.00000000000E+00  0.00000000000E+00  0.17669954855E+03  0.17669954855E+03  0.00000000000E+00 0.  1.
         21   -1    0    0  502  503 -0.00000000000E+00 -0.00000000000E+00 -0.22493372734E+03  0.22493372734E+03  0.00000000000E+00 0. -1.
         -6    2    1    2    0  503 -0.49126807143E+02  0.12486805772E+02 -0.11074181054E+03  0.21087858917E+03  0.17215303445E+03 0.  0.
        -24    2    3    3    0    0 -0.98380636342E+02  0.22492921826E+02 -0.89220810435E+02  0.15600322590E+03  0.78689086510E+02 0.  0.
          6    2    1    2  501    0  0.49126807143E+02 -0.12486805772E+02  0.62507631750E+02  0.19075468672E+03  0.17294734164E+03 0.  0.
         24    2    5    5    0    0  0.25325755363E+02 -0.16036588212E+02  0.10906749894E+03  0.13813337683E+03  0.79287731853E+02 0.  0.
          5    1    5    5  501    0  0.23801051780E+02  0.35497824405E+01 -0.46559867194E+02  0.52621309888E+02  0.47000000000E+01 0. -1.
        -11    1    6    6    0    0  0.36232020426E+02 -0.23126065589E+02  0.18768657846E+02  0.46902417114E+02  0.00000000000E+00 0.  1.
         12    1    6    6    0    0 -0.10906265063E+02  0.70894773772E+01  0.90298841098E+02  0.91230959716E+02  0.00000000000E+00 0. -1.
         -5    1    3    3    0  503  0.49253829199E+02 -0.10006116055E+02 -0.21521000103E+02  0.54875363276E+02  0.47000000000E+01 0.  1.
         11    1    4    4    0    0 -0.10076464342E+03 -0.40054389520E+01 -0.64653296739E+02  0.11978983966E+03  0.00000000000E+00 0. -1.
        -12    1    4    4    0    0  0.23840070824E+01  0.26498360779E+02 -0.24567513696E+02  0.36213386240E+02  0.00000000000E+00 0.  1.
</event>
<event>
12    1  0.8449700E-002  0.2710106E+03  0.7818608E-02  0.1100925E+00
         21   -1    0    0  501  502  0.00000000000E+00  0.00000000000E+00  0.66570378323E+03  0.66570378323E+03  0.00000000000E+00 0. -1.
         21   -1    0    0  502  503 -0.00000000000E+00 -0.00000000000E+00 -0.15391299626E+03  0.15391299626E+03  0.00000000000E+00 0.  1.
         -6    2    1    2    0  503 -0.17019600930E+03  0.11884081336E+03  0.35715063490E+02  0.27180766276E+03  0.17179644722E+03 0.  0.
        -24    2    3    3    0    0 -0.66243574486E+02  0.51791666426E+02  0.79159404392E+02  0.14061620891E+03  0.80225426348E+02 0.  0.
          6    2    1    2  501    0  0.17019600930E+03 -0.11884081336E+03  0.47607572348E+03  0.54780911672E+03  0.17423235456E+03 0.  0.
         24    2    5    5    0    0  0.12470889552E+03 -0.37756196424E+02  0.17539611979E+03  0.23304872102E+03  0.81055959332E+02 0.  0.
          5    1    5    5  501    0  0.45487113775E+02 -0.81084616940E+02  0.30067960369E+03  0.31476039570E+03  0.47000000000E+01 0. -1.
        -11    1    6    6    0    0  0.46446978539E+02 -0.25190951374E+02  0.16291529334E+02  0.55293035497E+02  0.00000000000E+00 0.  1.
         12    1    6    6    0    0  0.78261916982E+02 -0.12565245050E+02  0.15910459046E+03  0.17775568553E+03  0.00000000000E+00 0. -1.
         -5    1    3    3    0  503 -0.10395243481E+03  0.67049146938E+02 -0.43444340902E+02  0.13119145385E+03  0.47000000000E+01 0.  1.
         11    1    4    4    0    0 -0.74107040021E+02  0.64881997114E+02  0.57299283507E+02  0.11395058061E+03  0.00000000000E+00 0. -1.
        -12    1    4    4    0    0  0.78634655346E+01 -0.13090330688E+02  0.21860120885E+02  0.26665628304E+02  0.00000000000E+00 0.  1.
</event>
<event>
12    1  0.8449700E-002  0.2511612E+03  0.7818608E-02  0.1113254E+00
         21   -1    0    0  503  502  0.00000000000E+00  0.00000000000E+00  0.68267052730E+02  0.68267052730E+02  0.00000000000E+00 0. -1.
         21   -1    0    0  501  503 -0.00000000000E+00 -0.00000000000E+00 -0.10576988501E+04  0.10576988501E+04  0.00000000000E+00 0. -1.
          6    2    1    2  501    0 -0.16775992708E+03 -0.60211566678E+02 -0.70262037250E+03  0.74472745495E+03  0.17080623062E+03 0.  0.
         24    2    3    3    0    0 -0.75624181580E+02 -0.16091533095E+01 -0.17607965401E+03  0.20696314164E+03  0.78154278361E+02 0.  0.
         -6    2    1    2    0  502  0.16775992708E+03  0.60211566678E+02 -0.28681142490E+03  0.38123844790E+03  0.17695517741E+03 0.  0.
        -24    2    5    5    0    0  0.15051291363E+03  0.45199413956E+02 -0.10818208470E+03  0.20109029948E+03  0.63535981156E+02 0.  0.
          5    1    3    3  501    0 -0.92135745499E+02 -0.58602413368E+02 -0.52654071849E+03  0.53776431332E+03  0.47000000000E+01 0. -1.
        -11    1    4    4    0    0 -0.91157737561E+02  0.52770962116E+01 -0.15490234923E+03  0.17981189799E+03  0.00000000000E+00 0.  1.
         12    1    4    4    0    0  0.15533555981E+02 -0.68862495211E+01 -0.21177304776E+02  0.27151243644E+02  0.00000000000E+00 0. -1.
         -5    1    5    5    0  502  0.17247013449E+02  0.15012152722E+02 -0.17862934020E+03  0.18014814843E+03  0.47000000000E+01 0.  1.
         13    1    6    6    0    0  0.53338810915E+02  0.13162694542E+02 -0.40284739511E+01  0.55086421919E+02  0.00000000000E+00 0. -1.
        -14    1    6    6    0    0  0.97174102715E+02  0.32036719414E+02 -0.10415361075E+03  0.14600387756E+03  0.00000000000E+00 0.  1.
</event>
<event>
12    1  0.8449700E-002  0.1840381E+03  0.7818608E-02  0.1163984E+00
         21   -1    0    0  503  502  0.00000000000E+00  0.00000000000E+00  0.92609811414E+03  0.92609811414E+03  0.00000000000E+00 0.  1.
         21   -1    0    0  501  503 -0.00000000000E+00 -0.00000000000E+00 -0.36799082657E+02  0.36799082657E+02  0.00000000000E+00 0.  1.
          6    2    1    2  501    0  0.64722364207E+02 -0.11497765246E+02  0.48445392168E+03  0.51818426006E+03  0.17175023174E+03 0.  0.
         24    2    3    3    0    0 -0.90610946131E+01  0.32928466234E+02  0.14249788911E+03  0.16551769366E+03  0.76967988089E+02 0.  0.
         -6    2    1    2    0  502 -0.64722364207E+02  0.11497765246E+02  0.40484510980E+03  0.44471293674E+03  0.17189778981E+03 0.  0.
        -24    2    5    5    0    0 -0.36307321711E+02  0.59586961913E+02  0.35334609574E+03  0.36859313691E+03  0.78349279305E+02 0.  0.
          5    1    3    3  501    0  0.73783458820E+02 -0.44426231480E+02  0.34195603258E+03  0.35266656640E+03  0.47000000000E+01 0. -1.
        -13    1    4    4    0    0  0.70354389133E+01  0.43014858477E+02  0.33756501037E+02  0.55129636428E+02  0.00000000000E+00 0.  1.
         14    1    4    4    0    0 -0.16096533526E+02 -0.10086392242E+02  0.10874138807E+03  0.11038805723E+03  0.00000000000E+00 0. -1.
         -5    1    5    5    0  502 -0.28415042496E+02 -0.48089196667E+02  0.51499014063E+02  0.76119799827E+02  0.47000000000E+01 0.  1.
         13    1    6    6    0    0  0.16999039961E+02  0.43878164352E+02  0.12449459197E+03  0.13309081146E+03  0.00000000000E+00 0. -1.
        -14    1    6    6    0    0 -0.53306361672E+02  0.15708797561E+02  0.22885150377E+03  0.23550232545E+03  0.00000000000E+00 0.  1.
</event>
<event>
12    1  0.8449700E-002  0.1969736E+03  0.7818608E-02  0.1152897E+00
         21   -1    0    0  501  502  0.00000000000E+00  0.00000000000E+00  0.11183921953E+03  0.11183921953E+03  0.00000000000E+00 0.  1.
         21   -1    0    0  502  503 -0.00000000000E+00 -0.00000000000E+00 -0.37516511097E+03  0.37516511097E+03  0.00000000000E+00 0.  1.
         -6    2    1    2    0  503 -0.82500707292E+02 -0.49824841583E+02 -0.20464045882E+03  0.28403575495E+03  0.17178390833E+03 0.  0.
        -24    2    3    3    0    0  0.13042614724E+02 -0.68015856972E+02 -0.94044636067E+02  0.13668255535E+03  0.71003244750E+02 0.  0.
          6    2    1    2  501    0  0.82500707292E+02  0.49824841583E+02 -0.58685432615E+02  0.20296857555E+03  0.16871093953E+03 0.  0.
         24    2    5    5    0    0  0.46159267649E+02  0.94079792401E+02 -0.18839510191E+02  0.13304727378E+03  0.79780728174E+02 0.  0.
          5    1    5    5  501    0  0.36341439644E+02 -0.44254950818E+02 -0.39845922424E+02  0.69921301770E+02  0.47000000000E+01 0. -1.
        -13    1    6    6    0    0  0.33501412452E+02  0.19548860265E+02  0.24528696443E+02  0.45892913649E+02  0.00000000000E+00 0.  1.
         14    1    6    6    0    0  0.12657855196E+02  0.74530932136E+02 -0.43368206634E+02  0.87154360131E+02  0.00000000000E+00 0. -1.
         -5    1    3    3    0  503 -0.95543322017E+02  0.18191015389E+02 -0.11059582275E+03  0.14735319960E+03  0.47000000000E+01 0.  1.
         13    1    4    4    0    0  0.96351229314E+01  0.31189101187E+01 -0.54077780212E+02  0.55017901695E+02  0.00000000000E+00 0. -1.
        -14    1    4    4    0    0  0.34074917927E+01 -0.71134767091E+02 -0.39966855855E+02  0.81664653653E+02  0.00000000000E+00 0.  1.
</event>
<event>
12    1  0.8449700E-002  0.1853620E+03  0.7818608E-02  0.1162880E+00
         21   -1    0    0  501  502  0.00000000000E+00  0.00000000000E+00  0.10382808054E+04  0.10382808054E+04  0.00000000000E+00 0. -1.
         21   -1    0    0  502  503 -0.00000000000E+00 -0.00000000000E+00 -0.43864426502E+02  0.43864426502E+02  0.00000000000E+00 0. -1.
         -6    2    1    2    0  503 -0.22153129005E+02  0.65050455510E+02  0.22676330944E+03  0.29242990586E+03  0.17138065365E+03 0.  0.
        -24    2    3    3    0    0 -0.74893475996E+02  0.67264064299E+02  0.13816238989E+03  0.18918913285E+03  0.81056738881E+02 0.  0.
          6    2    1    2  501    0  0.22153129005E+02 -0.65050455510E+02  0.76765306948E+03  0.78971532607E+03  0.17215324062E+03 0.  0.
         24    2    5    5    0    0  0.24140492187E+02  0.15762962492E+02  0.56829498439E+03  0.57453982971E+03  0.79407759632E+02 0.  0.
          5    1    5    5  501    0 -0.19873631819E+01 -0.80813418002E+02  0.19935808509E+03  0.21517549635E+03  0.47000000000E+01 0. -1.
        -13    1    6    6    0    0 -0.81649507103E+01  0.41651703741E+02  0.32282951123E+03  0.32560777657E+03  0.00000000000E+00 0.  1.
         14    1    6    6    0    0  0.32305442897E+02 -0.25888741250E+02  0.24546547317E+03  0.24893205314E+03  0.00000000000E+00 0. -1.
         -5    1    3    3    0  503  0.52740346991E+02 -0.22136087888E+01  0.88600919552E+02  0.10324077300E+03  0.47000000000E+01 0.  1.
         11    1    4    4    0    0  0.15964920137E+02  0.23420699938E+02  0.29130784180E+02  0.40644931388E+02  0.00000000000E+00 0. -1.
        -12    1    4    4    0    0 -0.90858396133E+02  0.43843364361E+02  0.10903160571E+03  0.14854420147E+03  0.00000000000E+00 0.  1.
</event>
<event>
12    1  0.8449700E-002  0.1870388E+03  0.7818608E-02  0.1162155E+00
         21   -1    0    0  503  502  0.00000000000E+00  0.00000000000E+00  0.67659393646E+03  0.67659393646E+03  0.00000000000E+00 0.  1.
         21   -1    0    0  501  503 -0.00000000000E+00 -0.00000000000E+00 -0.92216103859E+02  0.92216103859E+02  0.00000000000E+00 0.  1.
          6    2    1    2  501    0  0.10423264595E+02 -0.75552949650E+02  0.31901798074E+02  0.18553199324E+03  0.16609486190E+03 0.  0.
         24    2    3    3    0    0 -0.29683829042E+02 -0.39380770310E+02 -0.34706651515E+02  0.99649625580E+02  0.79331717755E+02 0.  0.
         -6    2    1    2    0  502 -0.10423264595E+02  0.75552949650E+02  0.55247603453E+03  0.58327804708E+03  0.17078237273E+03 0.  0.
        -24    2    5    5    0    0  0.32574332006E+02  0.70785061216E+02  0.20991645983E+03  0.23796561132E+03  0.80567363533E+02 0.  0.
          5    1    3    3  501    0  0.40107093637E+02 -0.36172179340E+02  0.66608449589E+02  0.85882367660E+02  0.47000000000E+01 0. -1.
        -11    1    4    4    0    0 -0.46597261253E+02 -0.53605077892E+02 -0.23108685581E+02  0.74691502069E+02  0.00000000000E+00 0.  1.
         12    1    4    4    0    0  0.16913432210E+02  0.14224307583E+02 -0.11597965934E+02  0.24958123510E+02  0.00000000000E+00 0. -1.
         -5    1    5    5    0  502 -0.42997596601E+02  0.47678884335E+01  0.34255957470E+03  0.34531243576E+03  0.47000000000E+01 0.  1.
         13    1    6    6    0    0  0.37717665629E+02  0.53437577538E+02  0.20991754146E+03  0.21987171534E+03  0.00000000000E+00 0. -1.
        -14    1    6    6    0    0 -0.51433336229E+01  0.17347483678E+02 -0.10816272123E-02  0.18093895984E+02  0.00000000000E+00 0.  1.
</event>
<event>
12    1  0.8449700E-002  0.1733848E+03  0.7818608E-02  0.1174705E+00
         21   -1    0    0  503  502  0.00000000000E+00  0.00000000000E+00  0.26700429688E+02  0.26700429688E+02  0.00000000000E+00 0.  1.
         21   -1    0    0  501  503 -0.00000000000E+00 -0.00000000000E+00 -0.11197108168E+04  0.11197108168E+04  0.00000000000E+00 0.  1.
          6    2    1    2  501    0  0.78379534967E+01  0.18091933847E+02 -0.51739538601E+03  0.54524992939E+03  0.17091152229E+03 0.  0.
         24    2    3    3    0    0 -0.51825724128E+02  0.30253881339E+02 -0.22581509569E+03  0.24734252247E+03  0.81145936212E+02 0.  0.
         -6    2    1    2    0  502 -0.78379534967E+01 -0.18091933847E+02 -0.57561500114E+03  0.60116131714E+03  0.17226011755E+03 0.  0.
        -24    2    5    5    0    0 -0.23897696318E+02 -0.74614515446E+02 -0.32027808633E+03  0.33910836899E+03  0.79233878658E+02 0.  0.
          5    1    3    3  501    0  0.59663677625E+02 -0.12161947492E+02 -0.29158029032E+03  0.29790740692E+03  0.47000000000E+01 0. -1.
        -13    1    4    4    0    0 -0.15772410024E+02  0.41359206153E+02 -0.46886332569E+02  0.64480082454E+02  0.00000000000E+00 0.  1.
         14    1    4    4    0    0 -0.36053314105E+02 -0.11105324814E+02 -0.17892876312E+03  0.18286244002E+03  0.00000000000E+00 0. -1.
         -5    1    5    5    0  502  0.16059742821E+02  0.56522581599E+02 -0.25533691481E+03  0.26205294815E+03  0.47000000000E+01 0.  1.
         11    1    6    6    0    0 -0.34089047245E+02  0.42779038686E+00 -0.12776628239E+03  0.13223641353E+03  0.00000000000E+00 0. -1.
        -12    1    6    6    0    0  0.10191350928E+02 -0.75042305833E+02 -0.19251180394E+03  0.20687195546E+03  0.00000000000E+00 0.  1.
</event>
<event>
12    1  0.8449700E-002  0.2028205E+03  0.7818608E-02  0.1147591E+00
         21   -1    0    0  501  502  0.00000000000E+00  0.00000000000E+00  0.16170284801E+03  0.16170284801E+03  0.00000000000E+00 0.  1.
         21   -1    0    0  502  503 -0.00000000000E+00 -0.00000000000E+00 -0.25347653432E+03  0.25347653432E+03  0.00000000000E+00 0.  1.
         -6    2    1    2    0  503  0.69336880450E+02 -0.78083031454E+02 -0.38029491129E+02  0.20535895822E+03  0.17268901741E+03 0.  0.
        -24    2    3    3    0    0 -0.17602030950E+02 -0.38311227922E+02 -0.58803889627E+02  0.10741082754E+03  0.79382660314E+02 0.  0.
          6    2    1    2  501    0 -0.69336880450E+02  0.78083031454E+02 -0.53744195182E+02  0.20982042410E+03  0.17387239304E+03 0.  0.
         24    2    5    5    0    0 -0.42809401743E+02  0.47828976274E+02  0.38429061761E+02  0.10913768339E+03  0.79460589596E+02 0.  0.
          5    1    5    5  501    0 -0.26527478707E+02  0.30254055180E+02 -0.92173256943E+02  0.10068274071E+03  0.47000000000E+01 0. -1.
        -11    1    6    6    0    0 -0.45417690542E+02  0.58148295177E+01 -0.79832304045E+01  0.46479143970E+02  0.00000000000E+00 0.  1.
         12    1    6    6    0    0  0.26082887998E+01  0.42014146756E+02  0.46412292166E+02  0.62658539420E+02  0.00000000000E+00 0. -1.
         -5    1    3    3    0  503  0.86938911400E+02 -0.39771803532E+02  0.20774398498E+02  0.97948130684E+02  0.47000000000E+01 0.  1.
         13    1    4    4    0    0 -0.87483957352E+01  0.14372797458E+02  0.10555245660E+02  0.19862652030E+02  0.00000000000E+00 0. -1.
        -14    1    4    4    0    0 -0.88536352149E+01 -0.52684025381E+02 -0.69359135287E+02  0.87548175507E+02  0.00000000000E+00 0.  1.
</event>
<event>
12    1  0.8449700E-002  0.1981301E+03  0.7818608E-02  0.1151573E+00
         21   -1    0    0  501  502  0.00000000000E+00  0.00000000000E+00  0.52825493814E+03  0.52825493814E+03  0.00000000000E+00 0.  1.
         21   -1    0    0  502  503 -0.00000000000E+00 -0.00000000000E+00 -0.73887553743E+02  0.73887553743E+02  0.00000000000E+00 0.  1.
         -6    2    1    2    0  503  0.70969107153E+02 -0.64479901481E+02  0.22343906704E+03  0.29786723580E+03  0.17206278394E+03 0.  0.
        -24    2    3    3    0    0 -0.14881288112E+02 -0.61731676499E+02  0.67864751922E+02  0.12009406394E+03  0.76057261465E+02 0.  0.
          6    2    1    2  501    0 -0.70969107153E+02  0.64479901481E+02  0.23092831736E+03  0.30427525609E+03  0.17338186711E+03 0.  0.
         24    2    5    5    0    0 -0.10333184557E+03  0.37213370017E+02  0.88397567703E+02  0.15552070935E+03  0.65652538755E+02 0.  0.
          5    1    5    5  501    0  0.32362738418E+02  0.27266531463E+02  0.14253074966E+03  0.14875454673E+03  0.47000000000E+01 0. -1.
        -13    1    6    6    0    0 -0.10469692357E+03  0.48706671493E+02  0.74431538312E+02  0.13738209326E+03  0.00000000000E+00 0.  1.
         14    1    6    6    0    0  0.13650780026E+01 -0.11493301475E+02  0.13966029391E+02  0.18138616091E+02  0.00000000000E+00 0. -1.
         -5    1    3    3    0  503  0.85850395264E+02 -0.27482249820E+01  0.15557431512E+03  0.17777317186E+03  0.47000000000E+01 0.  1.
         11    1    4    4    0    0 -0.45363370912E+02 -0.28941714985E+02  0.43019854145E+02  0.68892424384E+02  0.00000000000E+00 0. -1.
        -12    1    4    4    0    0  0.30482082800E+02 -0.32789961514E+02  0.24844897776E+02  0.51201639558E+02  0.00000000000E+00 0.  1.
</event>
<event>
12    1  0.8449700E-002  0.4282372E+03  0.7818608E-02  0.1034489E+00
         21   -1    0    0  503  502  0.00000000000E+00  0.00000000000E+00  0.37946085560E+03  0.37946085560E+03  0.00000000000E+00 0.  1.
         21   -1    0    0  501  503 -0.00000000000E+00 -0.00000000000E+00 -0.70836022596E+03  0.70836022596E+03  0.00000000000E+00 0. -1.
          6    2    1    2  501    0 -0.64232043713E+02  0.38642110227E+03 -0.47161383073E+03  0.63642930407E+03  0.17080875281E+03 0.  0.
         24    2    3    3    0    0 -0.45406123193E+02  0.25561405935E+03 -0.40952231821E+03  0.49033911382E+03  0.72963374891E+02 0.  0.
         -6    2    1    2    0  502  0.64232043713E+02 -0.38642110227E+03  0.14271446036E+03  0.45139177748E+03  0.17303206600E+03 0.  0.
        -24    2    5    5    0    0 -0.15304694755E+02 -0.17126390108E+03  0.18531627774E+02  0.19050448400E+03  0.79893552320E+02 0.  0.
          5    1    3    3  501    0 -0.18825920521E+02  0.13080704292E+03 -0.62091512520E+02  0.14609019025E+03  0.47000000000E+01 0. -1.
        -11    1    4    4    0    0  0.19433800867E+02  0.81848908310E+02 -0.13339819826E+03  0.15770857842E+03  0.00000000000E+00 0.  1.
         12    1    4    4    0    0 -0.64839924059E+02  0.17376515104E+03 -0.27612411995E+03  0.33263053540E+03  0.00000000000E+00 0. -1.
         -5    1    5    5    0  502  0.79536738468E+02 -0.21515720118E+03  0.12418283259E+03  0.26088729348E+03  0.47000000000E+01 0.  1.
         11    1    6    6    0    0 -0.36059479074E+02 -0.65508205495E+02  0.33055081278E+02  0.81757259106E+02  0.00000000000E+00 0. -1.
        -12    1    6    6    0    0  0.20754784319E+02 -0.10575569559E+03 -0.14523453504E+02  0.10874722490E+03  0.00000000000E+00 0.  1.
</event>
<event>
12    1  0.8449700E-002  0.1810177E+03  0.7818608E-02  0.1167367E+00
         21   -1    0    0  503  502  0.00000000000E+00  0.00000000000E+00  0.14357517003E+02  0.14357517003E+02  0.00000000000E+00 0.  1.
         21   -1    0    0  501  503 -0.00000000000E+00 -0.00000000000E+00 -0.22616013983E+04  0.22616013983E+04  0.00000000000E+00 0.  1.
          6    2    1    2  501    0  0.46191210304E+02 -0.17995844215E+02 -0.11829056944E+04  0.11963371289E+04  0.17175321198E+03 0.  0.
         24    2    3    3    0    0  0.65291130078E+02  0.23095394140E+02 -0.10593474585E+04  0.10646480084E+04  0.80386659405E+02 0.  0.
         -6    2    1    2    0  502 -0.46191210304E+02  0.17995844215E+02 -0.10643381869E+04  0.10796217864E+04  0.17409752229E+03 0.  0.
        -24    2    5    5    0    0 -0.35391077050E+02 -0.51360329580E+01 -0.10408246668E+04  0.10445974770E+04  0.81172623824E+02 0.  0.
          5    1    3    3  501    0 -0.19099919775E+02 -0.41091238355E+02 -0.12355823583E+03  0.13168912045E+03  0.47000000000E+01 0. -1.
        -13    1    4    4    0    0  0.38794099018E+01  0.40000656569E+02 -0.52043261948E+03  0.52198200522E+03  0.00000000000E+00 0.  1.
         14    1    4    4    0    0  0.61411720176E+02 -0.16905262428E+02 -0.53891483905E+03  0.54266600320E+03  0.00000000000E+00 0. -1.
         -5    1    5    5    0  502 -0.10800133253E+02  0.23131877173E+02 -0.23513520150E+02  0.35024309410E+02  0.47000000000E+01 0.  1.
         11    1    6    6    0    0  0.11117955942E+02 -0.73464676513E+01 -0.74597698183E+03  0.74609599714E+03  0.00000000000E+00 0. -1.
        -12    1    6    6    0    0 -0.46509032993E+02  0.22104346932E+01 -0.29484768494E+03  0.29850147987E+03  0.00000000000E+00 0.  1.
</event>
<event>
12    1  0.8449700E-002  0.2127503E+03  0.7818608E-02  0.1139544E+00
         21   -1    0    0  501  502  0.00000000000E+00  0.00000000000E+00  0.50150249738E+02  0.50150249738E+02  0.00000000000E+00 0.  1.
         21   -1    0    0  502  503 -0.00000000000E+00 -0.00000000000E+00 -0.96973837746E+03  0.96973837746E+03  0.00000000000E+00 0.  1.
         -6    2    1    2    0  503 -0.34735894279E+02  0.12094660609E+03 -0.59627205554E+03  0.63285379433E+03  0.17067189840E+03 0.  0.
        -24    2    3    3    0    0 -0.33586565548E+01  0.99277828634E+02 -0.57507188092E+03  0.58897208552E+03  0.79454902121E+02 0.  0.
          6    2    1    2  501    0  0.34735894279E+02 -0.12094660609E+03 -0.32331607218E+03  0.38703483287E+03  0.17154595724E+03 0.  0.
         24    2    5    5    0    0  0.18405355627E+02 -0.12228352422E+03 -0.33568437534E+03  0.36597447281E+03  0.77209439140E+02 0.  0.
          5    1    5    5  501    0  0.16330538653E+02  0.13369181269E+01  0.12368303155E+02  0.21060360056E+02  0.47000000000E+01 0. -1.
        -13    1    6    6    0    0  0.47110423788E+02 -0.56406101605E+02 -0.18381901486E+03  0.19796583178E+03  0.00000000000E+00 0.  1.
         14    1    6    6    0    0 -0.28705068162E+02 -0.65877422616E+02 -0.15186536047E+03  0.16800864103E+03  0.00000000000E+00 0. -1.
         -5    1    3    3    0  503 -0.31377237725E+02  0.21668777460E+02 -0.21200174622E+02  0.43881708808E+02  0.47000000000E+01 0.  1.
         13    1    4    4    0    0  0.27591400188E+02  0.48008757893E+02 -0.40279145927E+03  0.40657974108E+03  0.00000000000E+00 0. -1.
        -14    1    4    4    0    0 -0.30950056743E+02  0.51269070741E+02 -0.17228042165E+03  0.18239234444E+03  0.00000000000E+00 0.  1.
</event>
<event>
12    1  0.8449700E-002  0.1735434E+03  0.7818608E-02  0.1174757E+00
         21   -1    0    0  501  502  0.00000000000E+00  0.00000000000E+00  0.25298343058E+03  0.25298343058E+03  0.00000000000E+00 0. -1.
         21   -1    0    0  502  503 -0.00000000000E+00 -0.00000000000E+00 -0.25235837097E+03  0.25235837097E+03  0.00000000000E+00 0. -1.
         -6    2    1    2    0  503  0.84089594304E+01  0.16537341783E+02 -0.18435020781E+03  0.25170195208E+03  0.17036630915E+03 0.  0.
        -24    2    3    3    0    0  0.99144636709E+01 -0.20507519893E+01 -0.20707337033E+03  0.22193257372E+03  0.79197123730E+02 0.  0.
          6    2    1    2  501    0 -0.84089594304E+01 -0.16537341783E+02  0.18497526742E+03  0.25363984946E+03  0.17254891887E+03 0.  0.
         24    2    5    5    0    0  0.93006865714E+01  0.61448357906E+02  0.45317278084E+02  0.92637225557E+02  0.51629414155E+02 0.  0.
          5    1    5    5  501    0 -0.17709646002E+02 -0.77985699689E+02  0.13965798934E+03  0.16100262390E+03  0.47000000000E+01 0. -1.
        -13    1    6    6    0    0  0.73351590849E+01  0.67922289069E+01 -0.10495688969E+02  0.14494772136E+02  0.00000000000E+00 0.  1.
         14    1    6    6    0    0  0.19655274865E+01  0.54656128999E+02  0.55812967053E+02  0.78142453421E+02  0.00000000000E+00 0. -1.
         -5    1    3    3    0  503 -0.15055042405E+01  0.18588093773E+02  0.22723162519E+02  0.29769378361E+02  0.47000000000E+01 0.  1.
         11    1    4    4    0    0  0.65243736743E+01  0.16030064586E+02 -0.20214964751E+03  0.20288915794E+03  0.00000000000E+00 0. -1.
        -12    1    4    4    0    0  0.33900899966E+01 -0.18080816576E+02 -0.49237228186E+01  0.19043415781E+02  0.00000000000E+00 0.  1.
</event>
<event>
12    1  0.8449700E-002  0.1858918E+03  0.7818608E-02  0.1162301E+00
         21   -1    0    0  503  502  0.00000000000E+00  0.00000000000E+00  0.44101031552E+02  0.44101031552E+02  0.00000000000E+00 0. -1.
         21   -1    0    0  501  503 -0.00000000000E+00 -0.00000000000E+00 -0.17020386939E+04  0.17020386939E+04  0.00000000000E+00 0. -1.
          6    2    1    2  501    0 -0.55980797184E+02  0.42871945677E+02 -0.14712011817E+04  0.14828987388E+04  0.17199970622E+03 0.  0.
         24    2    3    3    0    0  0.35232535982E+02  0.43239071441E+02 -0.72155059758E+03  0.72770466090E+03  0.76209315308E+02 0.  0.
         -6    2    1    2    0  502  0.55980797184E+02 -0.42871945677E+02 -0.18673648063E+03  0.26324098670E+03  0.17162007604E+03 0.  0.
        -24    2    5    5    0    0 -0.57693796725E+01  0.31261734559E+02 -0.44442294817E+02  0.91256649609E+02  0.73089511832E+02 0.  0.
          5    1    3    3  501    0 -0.91213333165E+02 -0.36712576417E+00 -0.74965058415E+03  0.75519407787E+03  0.47000000000E+01 0. -1.
        -11    1    4    4    0    0  0.32971518163E+02  0.10991470090E+02 -0.11134157159E+03  0.11663995452E+03  0.00000000000E+00 0.  1.
         12    1    4    4    0    0  0.22610178185E+01  0.32247601351E+02 -0.61020902598E+03  0.61106470638E+03  0.00000000000E+00 0. -1.
         -5    1    5    5    0  502  0.61750176856E+02 -0.74133680236E+02 -0.14229418582E+03  0.17198433709E+03  0.47000000000E+01 0.  1.
         13    1    6    6    0    0  0.32384687196E+02  0.12405822407E+02 -0.31296782342E+02  0.46713605934E+02  0.00000000000E+00 0. -1.
        -14    1    6    6    0    0 -0.38154066868E+02  0.18855912152E+02 -0.13145512475E+02  0.44543043676E+02  0.00000000000E+00 0.  1.
</event>
<event>
12    1  0.8449700E-002  0.1735809E+03  0.7818608E-02  0.1174251E+00
         21   -1    0    0  501  502  0.00000000000E+00  0.00000000000E+00  0.26032956228E+03  0.26032956228E+03  0.00000000000E+00 0.  1.
         21   -1    0    0  502  503 -0.00000000000E+00 -0.00000000000E+00 -0.12846753774E+03  0.12846753774E+03  0.00000000000E+00 0.  1.
         -6    2    1    2    0  503 -0.20242335903E+02 -0.47911747445E-01  0.41358414736E+01  0.17328766099E+03  0.17205160216E+03 0.  0.
        -24    2    3    3    0    0 -0.45330396635E+02 -0.55461568909E+02  0.22188089049E+02  0.10966331161E+03  0.80018123773E+02 0.  0.
          6    2    1    2  501    0  0.20242335903E+02  0.47911747445E-01  0.12772618306E+03  0.21550943904E+03  0.17239659514E+03 0.  0.
         24    2    5    5    0    0  0.81963025615E+01  0.15809690473E+02  0.15882022420E+03  0.17832785782E+03  0.79119122662E+02 0.  0.
          5    1    5    5  501    0  0.12046033342E+02 -0.15761778726E+02 -0.31094041136E+02  0.37181581220E+02  0.47000000000E+01 0. -1.
        -11    1    6    6    0    0  0.37988891176E+01 -0.24474538030E+02  0.15108631479E+02  0.29012158064E+02  0.00000000000E+00 0.  1.
         12    1    6    6    0    0  0.43974134440E+01  0.40284228503E+02  0.14371159272E+03  0.14931569975E+03  0.00000000000E+00 0. -1.
         -5    1    3    3    0  503  0.25088060732E+02  0.55413657161E+02 -0.18052247575E+02  0.63624349378E+02  0.47000000000E+01 0.  1.
         11    1    4    4    0    0 -0.53689783523E+02 -0.11608892384E+02  0.32528126195E+02  0.63839159071E+02  0.00000000000E+00 0. -1.
        -12    1    4    4    0    0  0.83593868878E+01 -0.43852676525E+02 -0.10340037146E+02  0.45824152537E+02  0.00000000000E+00 0.  1.
</event>
<event>
12    1  0.8449700E-002  0.1870292E+03  0.7818608E-02  0.1161769E+00
         21   -1    0    0  503  502  0.00000000000E+00  0.00000000000E+00  0.14392779582E+03  0.14392779582E+03  0.00000000000E+00 0.  1.
         21   -1    0    0  501  503 -0.00000000000E+00 -0.00000000000E+00 -0.80586089681E+03  0.80586089681E+03  0.00000000000E+00 0. -1.
          6    2    1    2  501    0  0.75432339316E+02 -0.41384392147E+01 -0.72970576822E+03  0.75329304595E+03  0.17109278303E+03 0.  0.
         24    2    3    3    0    0  0.72187000570E+02  0.52448074780E+02 -0.58639841729E+03  0.59911246151E+03  0.84325999107E+02 0.  0.
         -6    2    1    2    0  502 -0.75432339316E+02  0.41384392147E+01  0.67772667230E+02  0.19649564668E+03  0.16825647164E+03 0.  0.
        -24    2    5    5    0    0  0.31907621372E+01  0.12398345440E+02  0.82952632966E+02  0.11585856159E+03  0.79863427450E+02 0.  0.
          5    1    3    3  501    0  0.32453387458E+01 -0.56586513995E+02 -0.14330735092E+03  0.15418058444E+03  0.47000000000E+01 0. -1.
        -13    1    4    4    0    0  0.55194402467E+01  0.52597286873E+02 -0.19345543101E+03  0.20055408895E+03  0.00000000000E+00 0.  1.
         14    1    4    4    0    0  0.66667560323E+02 -0.14921209348E+00 -0.39294298629E+03  0.39855837256E+03  0.00000000000E+00 0. -1.
         -5    1    5    5    0  502 -0.78623101453E+02 -0.82599062249E+01 -0.15179965736E+02  0.80637085095E+02  0.47000000000E+01 0.  1.
         13    1    6    6    0    0  0.21590945084E+02  0.18052220159E+01 -0.75152708976E+01  0.22932663012E+02  0.00000000000E+00 0. -1.
        -14    1    6    6    0    0 -0.18400182947E+02  0.10593123424E+02  0.90467903864E+02  0.92925898574E+02  0.00000000000E+00 0.  1.
</event>
<event>
12    1  0.8449700E-002  0.1912006E+03  0.7818608E-02  0.1157440E+00
         21   -1    0    0  503  502  0.00000000000E+00  0.00000000000E+00  0.33106784298E+03  0.33106784298E+03  0.00000000000E+00 0. -1.
         21   -1    0    0  501  503 -0.00000000000E+00 -0.00000000000E+00 -0.33605659001E+03  0.33605659001E+03  0.00000000000E+00 0. -1.
          6    2    1    2  501    0 -0.71258653907E+02 -0.36659421367E+02 -0.27590491453E+03  0.33568020739E+03  0.17359715102E+03 0.  0.
         24    2    3    3    0    0  0.21024454326E+02  0.12575383069E+02 -0.87836162957E+02  0.12043108811E+03  0.78665669272E+02 0.  0.
         -6    2    1    2    0  502  0.71258653907E+02  0.36659421367E+02  0.27091616750E+03  0.33144422559E+03  0.17331473086E+03 0.  0.
        -24    2    5    5    0    0  0.11313901765E+03  0.35373292103E+02  0.17567437825E+03  0.22728709710E+03  0.82135438308E+02 0.  0.
          5    1    3    3  501    0 -0.92283108233E+02 -0.49234804436E+02 -0.18806875157E+03  0.21524911928E+03  0.47000000000E+01 0. -1.
        -13    1    4    4    0    0  0.49460009860E+02 -0.29604544929E+01 -0.46924748050E+02  0.68242133948E+02  0.00000000000E+00 0.  1.
         14    1    4    4    0    0 -0.28435555533E+02  0.15535837562E+02 -0.40911414907E+02  0.52188954166E+02  0.00000000000E+00 0. -1.
         -5    1    5    5    0  502 -0.41880363744E+02  0.12861292638E+01  0.95241789252E+02  0.10415712849E+03  0.47000000000E+01 0.  1.
         11    1    6    6    0    0  0.55032022366E+02 -0.26369749466E+01  0.13732672274E+03  0.14796657022E+03  0.00000000000E+00 0. -1.
        -12    1    6    6    0    0  0.58106995284E+02  0.38010267050E+02  0.38347655505E+02  0.79320526882E+02  0.00000000000E+00 0.  1.
</event>
<event>
12    1  0.8449700E-002  0.2817522E+03  0.7818608E-02  0.1094810E+00
         21   -1    0    0  503  502  0.00000000000E+00  0.00000000000E+00  0.40405472048E+03  0.40405472048E+03  0.00000000000E+00 0. -1.
         21   -1    0    0  501  503 -0.00000000000E+00 -0.00000000000E+00 -0.45609263240E+03  0.45609263240E+03  0.00000000000E+00 0.  1.
          6    2    1    2  501    0  0.12692112011E+03  0.18323996452E+03 -0.35074889532E+03  0.44989899688E+03  0.17233242441E+03 0.  0.
         24    2    3    3    0    0  0.50381845175E+02  0.17968807035E+03 -0.27602727478E+03  0.34277156279E+03  0.80468347095E+02 0.  0.
         -6    2    1    2    0  502 -0.12692112011E+03 -0.18323996452E+03  0.29871098339E+03  0.41024835599E+03  0.17143397175E+03 0.  0.
        -24    2    5    5    0    0 -0.15402138065E+03 -0.14490386922E+03  0.27738793108E+03  0.35847149935E+03  0.82692409118E+02 0.  0.
          5    1    3    3  501    0  0.76539274933E+02  0.35518941636E+01 -0.74721620536E+02  0.10712743409E+03  0.47000000000E+01 0. -1.
        -11    1    4    4    0    0  0.40926334599E+02  0.63176249642E+02 -0.16586811891E+03  0.18214948875E+03  0.00000000000E+00 0.  1.
         12    1    4    4    0    0  0.94555105756E+01  0.11651182071E+03 -0.11015915587E+03  0.16062207404E+03  0.00000000000E+00 0. -1.
         -5    1    5    5    0  502  0.27100260541E+02 -0.38336095293E+02  0.21323052317E+02  0.51776856643E+02  0.47000000000E+01 0.  1.
         13    1    6    6    0    0 -0.14629015838E+03 -0.14765445025E+03  0.22847305928E+03  0.30887309034E+03  0.00000000000E+00 0. -1.
        -14    1    6    6    0    0 -0.77312222709E+01  0.27505810273E+01  0.48914871795E+02  0.49598409012E+02  0.00000000000E+00 0.  1.
</event>
<event>
12    1  0.8449700E-002  0.1990219E+03  0.7818608E-02  0.1150596E+00
         21   -1    0    0  501  502  0.00000000000E+00  0.00000000000E+00  0.40933887279E+03  0.40933887279E+03  0.00000000000E+00 0. -1.
         21   -1    0    0  502  503 -0.00000000000E+00 -0.00000000000E+00 -0.10134255480E+03  0.10134255480E+03  0.00000000000E+00 0. -1.
         -6    2    1    2    0  503 -0.77877377479E+02  0.62234994210E+02  0.99289126888E+02  0.22229211685E+03  0.17209699029E+03 0.  0.
        -24    2    3    3    0    0 -0.95365450436E+02  0.94267586242E+02  0.10203330816E+03  0.18539306294E+03  0.77322990507E+02 0.  0.
          6    2    1    2  501    0  0.77877377479E+02 -0.62234994210E+02  0.20870719111E+03  0.28838931074E+03  0.17225452825E+03 0.  0.
         24    2    5    5    0    0  0.11721330937E+03 -0.71295479909E+02  0.16186777467E+03  0.22637778866E+03  0.78890565815E+02 0.  0.
          5    1    5    5  501    0 -0.39335931888E+02  0.90604856987E+01  0.46839416443E+02  0.62011522085E+02  0.47000000000E+01 0. -1.
        -13    1    6    6    0    0 -0.49179485985E+01 -0.67275275344E+00 -0.55482608995E+01  0.74445962747E+01  0.00000000000E+00 0.  1.
         14    1    6    6    0    0  0.12213125796E+03 -0.70622727155E+02  0.16741603557E+03  0.21893319239E+03  0.00000000000E+00 0. -1.
         -5    1    3    3    0  503  0.17488072957E+02 -0.32032592032E+02 -0.27441812723E+01  0.36899053902E+02  0.47000000000E+01 0.  1.
         13    1    4    4    0    0 -0.94975383268E+02  0.56204364300E+02  0.97126362229E+02  0.14701287098E+03  0.00000000000E+00 0. -1.
        -14    1    4    4    0    0 -0.39006716797E+00  0.38063221942E+02  0.49069459309E+01  0.38380191966E+02  0.00000000000E+00 0.  1.
</event>
<event>
12    1  0.8449700E-002  0.1882994E+03  0.7818608E-02  0.1160093E+00
         21   -1    0    0  501  502  0.00000000000E+00  0.00000000000E+00  0.10167017944E+03  0.10167017944E+03  0.00000000000E+00 0.  1.
         21   -1    0    0  502  503 -0.00000000000E+00 -0.00000000000E+00 -0.91101678385E+03  0.91101678385E+03  0.00000000000E+00 0.  1.
         -6    2    1    2    0  503 -0.16870834382E+02  0.77033250802E+02 -0.80287984110E+03  0.82466521181E+03  0.17099101008E+03 0.  0.
        -24    2    3    3    0    0 -0.28099326970E+02 -0.19201442407E+02 -0.28327706020E+03  0.29608566704E+03  0.79136349569E+02 0.  0.
          6    2    1    2  501    0  0.16870834382E+02 -0.77033250802E+02 -0.64667633151E+01  0.18802175148E+03  0.17056263724E+03 0.  0.
         24    2    5    5    0    0  0.74067498242E+01  0.24170980547E+02 -0.20666931470E+02  0.85281301247E+02  0.78782498325E+02 0.  0.
          5    1    5    5  501    0  0.94640845582E+01 -0.10120423135E+03  0.14200168154E+02  0.10274045024E+03  0.47000000000E+01 0. -1.
        -11    1    6    6    0    0  0.14381233529E+01 -0.25490329830E+02 -0.24147663774E+02  0.35141638825E+02  0.00000000000E+00 0.  1.
         12    1    6    6    0    0  0.59686264712E+01  0.49661310377E+02  0.34807323042E+01  0.50139662421E+02  0.00000000000E+00 0. -1.
         -5    1    3    3    0  503  0.11228492588E+02  0.96234693209E+02 -0.51960278090E+03  0.52857954477E+03  0.47000000000E+01 0.  1.
         11    1    4    4    0    0  0.82464347853E+01 -0.40876482882E+02 -0.10796024204E+03  0.11573376517E+03  0.00000000000E+00 0. -1.
        -12    1    4    4    0    0 -0.36345761755E+02  0.21675040475E+02 -0.17531681816E+03  0.18035190186E+03  0.00000000000E+00 0.  1.
</event>
<event>
12    1  0.8449700E-002  0.1992195E+03  0.7818608E-02  0.1151549E+00
         21   -1    0    0  503  502  0.00000000000E+00  0.00000000000E+00  0.22844919092E+03  0.22844919092E+03  0.00000000000E+00 0. -1.
         21   -1    0    0  501  503 -0.00000000000E+00 -0.00000000000E+00 -0.38006451357E+03  0.38006451357E+03  0.00000000000E+00 0. -1.
          6    2    1    2  501    0 -0.89136161537E+02  0.27181393992E+02 -0.30293859547E+03  0.36257440283E+03  0.17608044040E+03 0.  0.
         24    2    3    3    0    0 -0.86677475750E+02  0.14937424071E+02 -0.89980183964E+02  0.14919836162E+03  0.80172352856E+02 0.  0.
         -6    2    1    2    0  502  0.89136161537E+02 -0.27181393992E+02  0.15132327282E+03  0.24593930166E+03  0.17000977541E+03 0.  0.
        -24    2    5    5    0    0  0.36168946132E+01  0.14908270174E+02  0.18768833098E+02  0.82605733975E+02  0.78968979627E+02 0.  0.
          5    1    3    3  501    0 -0.24586857873E+01  0.12243969921E+02 -0.21295841150E+03  0.21337604122E+03  0.47000000000E+01 0. -1.
        -13    1    4    4    0    0  0.61714470672E+01 -0.10024736351E+02 -0.38247626402E+02  0.40018283612E+02  0.00000000000E+00 0.  1.
         14    1    4    4    0    0 -0.92848922817E+02  0.24962160423E+02 -0.51732557562E+02  0.10918007800E+03  0.00000000000E+00 0. -1.
         -5    1    5    5    0  502  0.85519266924E+02 -0.42089664166E+02  0.13255443972E+03  0.16333356769E+03  0.47000000000E+01 0.  1.
         13    1    6    6    0    0 -0.52359290990E+01 -0.24068400146E+02  0.32109451655E+02  0.40468749977E+02  0.00000000000E+00 0. -1.
        -14    1    6    6    0    0  0.88528237122E+01  0.38976670320E+02 -0.13340618557E+02  0.42136983997E+02  0.00000000000E+00 0.  1.
</event>
<event>
12    1  0.8449700E-002  0.1890037E+03  0.7818608E-02  0.1159594E+00
         21   -1    0    0  503  502  0.00000000000E+00  0.00000000000E+00  0.34017169898E+03  0.34017169898E+03  0.00000000000E+00 0.  1.
         21   -1    0    0  501  503 -0.00000000000E+00 -0.00000000000E+00 -0.29580437262E+03  0.29580437262E+03  0.00000000000E+00 0.  1.
          6    2    1    2  501    0 -0.58238280240E+02  0.45862969487E+02 -0.23359363594E+03  0.29984411360E+03  0.17275820228E+03 0.  0.
         24    2    3    3    0    0  0.34136670812E+02  0.39001690414E+02 -0.10916853319E+03  0.14465421404E+03  0.79502382673E+02 0.  0.
         -6    2    1    2    0  502  0.58238280240E+02 -0.45862969487E+02  0.27796096231E+03  0.33613195799E+03  0.17385996480E+03 0.  0.
        -24    2    5    5    0    0  0.10499326667E+03 -0.35782568904E+02  0.16942092703E+03  0.21742781952E+03  0.79167088507E+02 0.  0.
          5    1    3    3  501    0 -0.92374951052E+02  0.68612790729E+01 -0.12442510275E+03  0.15518989957E+03  0.47000000000E+01 0. -1.
        -11    1    4    4    0    0  0.33254955968E+02 -0.15752409199E+01 -0.96584894853E+02  0.10216171198E+03  0.00000000000E+00 0.  1.
         12    1    4    4    0    0  0.88171484341E+00  0.40576931334E+02 -0.12583638338E+02  0.42492502061E+02  0.00000000000E+00 0. -1.
         -5    1    5    5    0  502 -0.46754986428E+02 -0.10080400583E+02  0.10854003529E+03  0.11870413848E+03  0.47000000000E+01 0.  1.
         11    1    6    6    0    0  0.27519427778E+01  0.19727755032E+02  0.23483935002E+02  0.30793712197E+02  0.00000000000E+00 0. -1.
        -12    1    6    6    0    0  0.10224132389E+03 -0.55510323936E+02  0.14593699202E+03  0.18663410732E+03  0.00000000000E+00 0.  1.
</event>
<event>
12    1  0.8449700E-002  0.1910446E+03  0.7818608E-02  0.1157948E+00
         21   -1    0    0  501  502  0.00000000000E+00  0.00000000000E+00  0.60185943871E+02  0.60185943871E+02  0.00000000000E+00 0. -1.
         21   -1    0    0  502  503 -0.00000000000E+00 -0.00000000000E+00 -0.72215088018E+03  0.72215088018E+03  0.00000000000E+00 0. -1.
         -6    2    1    2    0  503 -0.29818702998E+02  0.72534989890E+02 -0.49294304794E+03  0.52866899321E+03  0.17420555691E+03 0.  0.
        -24    2    3    3    0    0 -0.66352991539E+02  0.88244832026E+02 -0.27511447845E+03  0.30719003470E+03  0.80547323331E+02 0.  0.
          6    2    1    2  501    0  0.29818702998E+02 -0.72534989890E+02 -0.16902188837E+03  0.25366783085E+03  0.17212928238E+03 0.  0.
         24    2    5    5    0    0 -0.20883180203E+02 -0.43909864588E+02 -0.17727341549E+03  0.19467413239E+03  0.64093451758E+02 0.  0.
          5    1    5    5  501    0  0.50701883201E+02 -0.28625125302E+02  0.82515271135E+01  0.58993698463E+02  0.47000000000E+01 0. -1.
        -13    1    6    6    0    0  0.22483210816E+02 -0.92352686995E+01 -0.65614134594E+02  0.69971419988E+02  0.00000000000E+00 0.  1.
         14    1    6    6    0    0 -0.43366391018E+02 -0.34674595888E+02 -0.11165928089E+03  0.12470271240E+03  0.00000000000E+00 0. -1.
         -5    1    3    3    0  503  0.36534288540E+02 -0.15709842136E+02 -0.21782856948E+03  0.22147895851E+03  0.47000000000E+01 0.  1.
         11    1    4    4    0    0 -0.63561292498E+02  0.20260420199E+02 -0.11063272552E+03  0.12919025693E+03  0.00000000000E+00 0. -1.
        -12    1    4    4    0    0 -0.27916990404E+01  0.67984411826E+02 -0.16448175293E+03  0.17799977776E+03  0.00000000000E+00 0.  1.
</event>
<event>
12    1  0.8449700E-002  0.2020111E+03  0.7818608E-02  0.1148292E+00
         21   -1    0    0  503  502  0.00000000000E+00  0.00000000000E+00  0.33903924290E+03  0.33903924290E+03  0.00000000000E+00 0. -1.
         21   -1    0    0  501  503 -0.00000000000E+00 -0.00000000000E+00 -0.18098922878E+03  0.18098922878E+03  0.00000000000E+00 0.  1.
          6    2    1    2  501    0  0.96399877959E+02  0.41635116131E+02 -0.72447997173E+02  0.21353572350E+03  0.17123776905E+03 0.  0.
         24    2    3    3    0    0  0.74852446614E+02 -0.22267513705E+02 -0.79879143732E+02  0.14552726934E+03  0.93267237483E+02 0.  0.
         -6    2    1    2    0  502 -0.96399877959E+02 -0.41635116131E+02  0.23049801129E+03  0.30649274818E+03  0.17257477253E+03 0.  0.
        -24    2    5    5    0    0  0.80116781759E+01 -0.36199284206E+02  0.14547339677E+03  0.17164989002E+03  0.83226200275E+02 0.  0.
          5    1    3    3  501    0  0.21547431344E+02  0.63902629837E+02  0.74311465584E+01  0.68008454156E+02  0.47000000000E+01 0. -1.
        -11    1    4    4    0    0 -0.17275739364E+02 -0.59698899868E+01 -0.39700674534E+02  0.43706227422E+02  0.00000000000E+00 0.  1.
         12    1    4    4    0    0  0.92128185978E+02 -0.16297623718E+02 -0.40178469198E+02  0.10182104192E+03  0.00000000000E+00 0. -1.
         -5    1    5    5    0  502 -0.10441155613E+03 -0.54358319252E+01  0.85024614519E+02  0.13484285816E+03  0.47000000000E+01 0.  1.
         13    1    6    6    0    0  0.15820083626E+02 -0.18875822895E+02  0.15008829324E+03  0.15209558674E+03  0.00000000000E+00 0. -1.
        -14    1    6    6    0    0 -0.78084054502E+01 -0.17323461311E+02 -0.46148964741E+01  0.19554303284E+02  0.00000000000E+00 0.  1.
</event>
<event>
12    1  0.8449700E-002  0.1911156E+03  0.7818608E-02  0.1157898E+00
         21   -1    0    0  503  502  0.00000000000E+00  0.00000000000E+00  0.22135345547E+02  0.22135345547E+02  0.00000000000E+00 0. -1.
         21   -1    0    0  501  503 -0.00000000000E+00 -0.00000000000E+00 -0.20749081616E+04  0.20749081616E+04  0.00000000000E+00 0. -1.
          6    2    1    2  501    0 -0.21268380682E+02  0.77890102737E+02 -0.15059707127E+04  0.15178045962E+04  0.17106663217E+03 0.  0.
         24    2    3    3    0    0 -0.15744026679E+02 -0.23192743834E+02 -0.55281492192E+03  0.55927639534E+03  0.79999817175E+02 0.  0.
         -6    2    1    2    0  502  0.21268380682E+02 -0.77890102737E+02 -0.54680210331E+03  0.57923891090E+03  0.17322229530E+03 0.  0.
        -24    2    5    5    0    0  0.34209038012E+02 -0.10714450824E+03 -0.51662538520E+03  0.53501216368E+03  0.81768103317E+02 0.  0.
          5    1    3    3  501    0 -0.55243540028E+01  0.10108284657E+03 -0.95315579079E+03  0.95852820087E+03  0.47000000000E+01 0. -1.
        -13    1    4    4    0    0 -0.32513104383E+02 -0.17178639042E+01 -0.90836419912E+02  0.96495120060E+02  0.00000000000E+00 0.  1.
         14    1    4    4    0    0  0.16769077704E+02 -0.21474879930E+02 -0.46197850200E+03  0.46278127528E+03  0.00000000000E+00 0. -1.
         -5    1    5    5    0  502 -0.12940657330E+02  0.29254405505E+02 -0.30176718107E+02  0.44226747216E+02  0.47000000000E+01 0.  1.
         13    1    6    6    0    0 -0.25095079145E+02 -0.34268051201E+02 -0.21252110211E+03  0.21672397462E+03  0.00000000000E+00 0. -1.
        -14    1    6    6    0    0  0.59304117157E+02 -0.72876457041E+02 -0.30410428309E+03  0.31828818906E+03  0.00000000000E+00 0.  1.
</event>
<event>
12    1  0.8449700E-002  0.2572371E+03  0.7818608E-02  0.1109334E+00
         21   -1    0    0  501  502  0.00000000000E+00  0.00000000000E+00  0.29830144203E+03  0.29830144203E+03  0.00000000000E+00 0.  1.
         21   -1    0    0  502  503 -0.00000000000E+00 -0.00000000000E+00 -0.27181954113E+03  0.27181954113E+03  0.00000000000E+00 0. -1.
         -6    2    1    2    0  503  0.18117025697E+03  0.63116511734E+02 -0.11244737805E+03  0.28074069373E+03  0.17136092967E+03 0.  0.
        -24    2    3    3    0    0  0.19685908681E+03  0.41864746344E+02 -0.12645284913E+03  0.25047486921E+03  0.79001139262E+02 0.  0.
          6    2    1    2  501    0 -0.18117025697E+03 -0.63116511734E+02  0.13892927895E+03  0.28938028943E+03  0.16623252176E+03 0.  0.
         24    2    5    5    0    0 -0.12904612898E+03 -0.61362680001E+02  0.16352634566E+03  0.23152610777E+03  0.80281946605E+02 0.  0.
          5    1    5    5  501    0 -0.52124127990E+02 -0.17538317338E+01 -0.24597066709E+02  0.57854181656E+02  0.47000000000E+01 0. -1.
        -13    1    6    6    0    0 -0.83133898787E+01 -0.24789913534E+02  0.15115587642E+01  0.26190400421E+02  0.00000000000E+00 0.  1.
         14    1    6    6    0    0 -0.12073273911E+03 -0.36572766467E+02  0.16201478690E+03  0.20533570735E+03  0.00000000000E+00 0. -1.
         -5    1    3    3    0  503 -0.15688829838E+02  0.21251765390E+02  0.14005471074E+02  0.30265824521E+02  0.47000000000E+01 0.  1.
         13    1    4    4    0    0  0.15867993983E+03  0.63194262816E+02 -0.87498622245E+02  0.19190843403E+03  0.00000000000E+00 0. -1.
        -14    1    4    4    0    0  0.38179146981E+02 -0.21329516472E+02 -0.38954226882E+02  0.58566435175E+02  0.00000000000E+00 0.  1.
</event>
<event>
12    1  0.8449700E-002  0.1815524E+03  0.7818608E-02  0.1166606E+00
         21   -1    0    0  503  502  0.00000000000E+00  0.00000000000E+00  0.53760892107E+03  0.53760892107E+03  0.00000000000E+00 0.  1.
         21   -1    0    0  501  503 -0.00000000000E+00 -0.00000000000E+00 -0.65091290974E+02  0.65091290974E+02  0.00000000000E+00 0.  1.
          6    2    1    2  501    0  0.40009856097E+02 -0.37914587396E+02  0.31353534429E+03  0.36230608702E+03  0.17298261199E+03 0.  0.
         24    2    3    3    0    0 -0.25228024456E+02 -0.44269943892E+02  0.10880261811E+03  0.14728527225E+03  0.85197773237E+02 0.  0.
         -6    2    1    2    0  502 -0.40009856097E+02  0.37914587396E+02  0.15898228580E+03  0.24039412502E+03  0.17168477982E+03 0.  0.
        -24    2    5    5    0    0 -0.48097924047E+02 -0.76904645383E+00  0.16939378736E+02  0.92881014351E+02  0.77626918944E+02 0.  0.
          5    1    3    3  501    0  0.65237880553E+02  0.63553564965E+01  0.20473272619E+03  0.21502081478E+03  0.47000000000E+01 0. -1.
        -13    1    4    4    0    0  0.27609037322E+02 -0.21005303818E+02  0.68790875537E+02  0.77043275420E+02  0.00000000000E+00 0.  1.
         14    1    4    4    0    0 -0.52837061778E+02 -0.23264640074E+02  0.40011742570E+02  0.70241996829E+02  0.00000000000E+00 0. -1.
         -5    1    5    5    0  502  0.80880679503E+01  0.38683633850E+02  0.14204290707E+03  0.14751311067E+03  0.47000000000E+01 0.  1.
         13    1    6    6    0    0  0.11134925116E+02 -0.14586925478E+02 -0.15434278322E+02  0.23978780193E+02  0.00000000000E+00 0. -1.
        -14    1    6    6    0    0 -0.59232849163E+02  0.13817879024E+02  0.32373657057E+02  0.68902234158E+02  0.00000000000E+00 0.  1.
</event>
<event>
12    1  0.8449700E-002  0.2073869E+03  0.7818608E-02  0.1143709E+00
         21   -1    0    0  503  502  0.00000000000E+00  0.00000000000E+00  0.42670180389E+02  0.42670180389E+02  0.00000000000E+00 0. -1.
         21   -1    0    0  501  503 -0.00000000000E+00 -0.00000000000E+00 -0.10074233880E+04  0.10074233880E+04  0.00000000000E+00 0. -1.
          6    2    1    2  501    0  0.80991083768E+02  0.81968638881E+02 -0.49782764035E+03  0.53929740554E+03  0.17242656036E+03 0.  0.
         24    2    3    3    0    0  0.52564973114E+02  0.61695924475E+02 -0.15315814968E+03  0.19283214824E+03  0.84601152988E+02 0.  0.
         -6    2    1    2    0  502 -0.80991083768E+02 -0.81968638881E+02 -0.46692556727E+03  0.51079616286E+03  0.17208957321E+03 0.  0.
        -24    2    5    5    0    0 -0.82066784288E+02 -0.56619797458E+02 -0.17126535366E+03  0.21401211207E+03  0.80799778456E+02 0.  0.
          5    1    3    3  501    0  0.28426110654E+02  0.20272714406E+02 -0.34466949067E+03  0.34646525730E+03  0.47000000000E+01 0. -1.
        -13    1    4    4    0    0 -0.18668659806E+02  0.13052199264E+02 -0.83134509048E+01  0.24248551102E+02  0.00000000000E+00 0.  1.
         14    1    4    4    0    0  0.71233632920E+02  0.48643725212E+02 -0.14484469877E+03  0.16858359714E+03  0.00000000000E+00 0. -1.
         -5    1    5    5    0  502  0.10757005200E+01 -0.25348841424E+02 -0.29566021361E+03  0.29678405079E+03  0.47000000000E+01 0.  1.
         13    1    6    6    0    0  0.30038307715E+01 -0.40716713684E+02 -0.67571103648E+02  0.78947627074E+02  0.00000000000E+00 0. -1.
        -14    1    6    6    0    0 -0.85070615059E+02 -0.15903083774E+02 -0.10369425002E+03  0.13506448499E+03  0.00000000000E+00 0.  1.
</event>
<event>
12    1  0.8449700E-002  0.2085656E+03  0.7818608E-02  0.1142945E+00
         21   -1    0    0  503  502  0.00000000000E+00  0.00000000000E+00  0.10121087900E+03  0.10121087900E+03  0.00000000000E+00 0.  1.
         21   -1    0    0  501  503 -0.00000000000E+00 -0.00000000000E+00 -0.75021022049E+03  0.75021022049E+03  0.00000000000E+00 0.  1.
          6    2    1    2  501    0  0.59302572359E+02  0.98414446913E+02 -0.60430339055E+03  0.63928256499E+03  0.17406151676E+03 0.  0.
         24    2    3    3    0    0  0.50596045763E+02  0.10035013133E+03 -0.25728992190E+03  0.29212267690E+03  0.80668740779E+02 0.  0.
         -6    2    1    2    0  502 -0.59302572359E+02 -0.98414446913E+02 -0.44695950942E+02  0.21213853451E+03  0.17263496559E+03 0.  0.
        -24    2    5    5    0    0 -0.52396990216E+02  0.12574120592E+02 -0.26496412180E+02  0.99357940465E+02  0.79160516564E+02 0.  0.
          5    1    3    3  501    0  0.87065265956E+01 -0.19356844133E+01 -0.34701346864E+03  0.34715988809E+03  0.47000000000E+01 0. -1.
        -11    1    4    4    0    0  0.25631911711E+02  0.73679851208E+02 -0.23871892184E+03  0.25114226848E+03  0.00000000000E+00 0.  1.
         12    1    4    4    0    0  0.24964134052E+02  0.26670280118E+02 -0.18571000062E+02  0.40980408415E+02  0.00000000000E+00 0. -1.
         -5    1    5    5    0  502 -0.69055821433E+01 -0.11098856750E+03 -0.18199538762E+02  0.11278059404E+03  0.47000000000E+01 0.  1.
         11    1    6    6    0    0  0.98055161368E+01  0.25853018921E+02  0.54494523323E+01  0.28181967013E+02  0.00000000000E+00 0. -1.
        -12    1    6    6    0    0 -0.62202506352E+02 -0.13278898328E+02 -0.31945864513E+02  0.71175973452E+02  0.00000000000E+00 0.  1.
</event>
<event>
12    1  0.8449700E-002  0.1798736E+03  0.7818608E-02  0.1168199E+00
         21   -1    0    0  501  502  0.00000000000E+00  0.00000000000E+00  0.20779563998E+03  0.20779563998E+03  0.00000000000E+00 0.  1.
         21   -1    0    0  502  503 -0.00000000000E+00 -0.00000000000E+00 -0.23071648950E+03  0.23071648950E+03  0.00000000000E+00 0.  1.
         -6    2    1    2    0  503  0.51239387076E+02 -0.44549356075E+01 -0.13731205002E+03  0.22629428196E+03  0.17236351622E+03 0.  0.
        -24    2    3    3    0    0 -0.12176277279E+02 -0.56452748335E+02 -0.80700728671E+02  0.12653331404E+03  0.78504123658E+02 0.  0.
          6    2    1    2  501    0 -0.51239387076E+02  0.44549356075E+01  0.11439120050E+03  0.21221784753E+03  0.17118921350E+03 0.  0.
         24    2    5    5    0    0 -0.78210872553E+02  0.24215283433E+02  0.13136710898E+03  0.17442626323E+03  0.80398280112E+02 0.  0.
          5    1    5    5  501    0  0.26971485478E+02 -0.19760347825E+02 -0.16975908481E+02  0.37791584298E+02  0.47000000000E+01 0. -1.
        -11    1    6    6    0    0 -0.13971682300E+02 -0.28085509945E+02  0.43929493678E+02  0.53979664597E+02  0.00000000000E+00 0.  1.
         12    1    6    6    0    0 -0.64239190253E+02  0.52300793378E+02  0.87437615301E+02  0.12044659863E+03  0.00000000000E+00 0. -1.
         -5    1    3    3    0  503  0.63415664355E+02  0.51997812728E+02 -0.56611321353E+02  0.99760967915E+02  0.47000000000E+01 0.  1.
         11    1    4    4    0    0  0.17023164510E+02 -0.47412020261E+02 -0.81663541946E+02  0.95951143184E+02  0.00000000000E+00 0. -1.
        -12    1    4    4    0    0 -0.29199441790E+02 -0.90407280745E+01  0.96281327511E+00  0.30582170858E+02  0.00000000000E+00 0.  1.
</event>
<event>
12    1  0.8449700E-002  0.2250150E+03  0.7818608E-02  0.1130690E+00
         21   -1    0    0  501  502  0.00000000000E+00  0.00000000000E+00  0.14952409950E+04  0.14952409950E+04  0.00000000000E+00 0.  1.
         21   -1    0    0  502  503 -0.00000000000E+00 -0.00000000000E+00 -0.33953400682E+02  0.33953400682E+02  0.00000000000E+00 0.  1.
         -6    2    1    2    0  503  0.10556447202E+03  0.97893936200E+02  0.63382603097E+03  0.67168381572E+03  0.16940079771E+03 0.  0.
        -24    2    3    3    0    0  0.12189254446E+03  0.47266531075E+02  0.34914997319E+03  0.38204216130E+03  0.83418174753E+02 0.  0.
          6    2    1    2  501    0 -0.10556447202E+03 -0.97893936200E+02  0.82746156334E+03  0.85751057996E+03  0.17292968350E+03 0.  0.
         24    2    5    5    0    0 -0.10446884208E+03 -0.12917510396E+03  0.59617911801E+03  0.62407242674E+03  0.80230334747E+02 0.  0.
          5    1    5    5  501    0 -0.10956299372E+01  0.31281167758E+02  0.23128244533E+03  0.23343815322E+03  0.47000000000E+01 0. -1.
        -11    1    6    6    0    0 -0.59914775724E+02 -0.12636265106E+03  0.45261479830E+03  0.47372719531E+03  0.00000000000E+00 0.  1.
         12    1    6    6    0    0 -0.44554066358E+02 -0.28124529021E+01  0.14356431971E+03  0.15034523143E+03  0.00000000000E+00 0. -1.
         -5    1    3    3    0  503 -0.16328072439E+02  0.50627405125E+02  0.28467605779E+03  0.28964165442E+03  0.47000000000E+01 0.  1.
         13    1    4    4    0    0 -0.28065681658E+01 -0.88562479166E+01  0.28452662290E+01  0.97162488618E+01  0.00000000000E+00 0. -1.
        -14    1    4    4    0    0  0.12469911262E+03  0.56122778992E+02  0.34630470696E+03  0.37232591244E+03  0.00000000000E+00 0.  1.
</event>
<event>
12    1  0.8449700E-002  0.1898621E+03  0.7818608E-02  0.1160401E+00
         21   -1    0    0  503  502  0.00000000000E+00  0.00000000000E+00  0.32110497270E+03  0.32110497270E+03  0.00000000000E+00 0.  1.
         21   -1    0    0  501  503 -0.00000000000E+00 -0.00000000000E+00 -0.12474115909E+03  0.12474115909E+03  0.00000000000E+00 0.  1.
          6    2    1    2  501    0  0.38111845553E+01  0.36704168184E+02  0.13914414480E+02  0.18252997603E+03  0.17821857403E+03 0.  0.
         24    2    3    3    0    0  0.56644553545E+02 -0.24896933043E+02  0.11193332650E+02  0.10119391491E+03  0.79287167928E+02 0.  0.
         -6    2    1    2    0  502 -0.38111845553E+01 -0.36704168184E+02  0.18244939913E+03  0.26331615577E+03  0.18624149257E+03 0.  0.
        -24    2    5    5    0    0 -0.24220395690E+02 -0.70926013623E+01  0.20464085134E+03  0.22079637990E+03  0.78969809263E+02 0.  0.
          5    1    3    3  501    0 -0.52833368990E+02  0.61601101227E+02  0.27210818295E+01  0.81336061114E+02  0.47000000000E+01 0. -1.
        -13    1    4    4    0    0  0.40246082773E+02  0.22661621713E+01 -0.29239447714E+02  0.49797871161E+02  0.00000000000E+00 0.  1.
         14    1    4    4    0    0  0.16398470772E+02 -0.27163095214E+02  0.40432780364E+02  0.51396043751E+02  0.00000000000E+00 0. -1.
         -5    1    5    5    0  502  0.20409211135E+02 -0.29611566822E+02 -0.22191452215E+02  0.42519775872E+02  0.47000000000E+01 0.  1.
         11    1    6    6    0    0  0.26027735521E+02  0.12356301856E+02  0.78979812488E+02  0.84070993764E+02  0.00000000000E+00 0. -1.
        -12    1    6    6    0    0 -0.50248131211E+02 -0.19448903218E+02  0.12566103886E+03  0.13672538613E+03  0.00000000000E+00 0.  1.
</event>
<event>
12    1  0.8449700E-002  0.2106307E+03  0.7818608E-02  0.1141640E+00
         21   -1    0    0  501  502  0.00000000000E+00  0.00000000000E+00  0.88694230119E+03  0.88694230119E+03  0.00000000000E+00 0.  1.
         21   -1    0    0  502  503 -0.00000000000E+00 -0.00000000000E+00 -0.59576885083E+02  0.59576885083E+02  0.00000000000E+00 0.  1.
         -6    2    1    2    0  503 -0.61109796896E+02  0.10428067538E+03  0.61222379587E+03  0.64744363637E+03  0.17250049133E+03 0.  0.
        -24    2    3    3    0    0 -0.33861174903E+02  0.97080002980E+02  0.60364144403E+03  0.61760936335E+03  0.80543321260E+02 0.  0.
          6    2    1    2  501    0  0.61109796896E+02 -0.10428067538E+03  0.21514162023E+03  0.29907554990E+03  0.16897159897E+03 0.  0.
         24    2    5    5    0    0 -0.13652482186E+02 -0.27315938904E+02  0.15744859904E+03  0.17715941591E+03  0.75251887123E+02 0.  0.
          5    1    5    5  501    0  0.74762279082E+02 -0.76964736474E+02  0.57693021187E+02  0.12191613399E+03  0.47000000000E+01 0. -1.
        -13    1    6    6    0    0  0.21477138540E+02  0.14787616439E+02  0.58088725570E+02  0.63672922959E+02  0.00000000000E+00 0.  1.
         14    1    6    6    0    0 -0.35129620726E+02 -0.42103555342E+02  0.99359873472E+02  0.11348649295E+03  0.00000000000E+00 0. -1.
         -5    1    3    3    0  503 -0.27248621993E+02  0.72006723981E+01  0.85823518412E+01  0.29834273020E+02  0.47000000000E+01 0.  1.
         11    1    4    4    0    0  0.15389385698E+02  0.41599149725E+02  0.36545770554E+03  0.36813945318E+03  0.00000000000E+00 0. -1.
        -12    1    4    4    0    0 -0.49250560601E+02  0.55480853255E+02  0.23818373849E+03  0.24946991017E+03  0.00000000000E+00 0.  1.
</event>
<event>
12    1  0.8449700E-002  0.1810604E+03  0.7818608E-02  0.1167320E+00
         21   -1    0    0  503  502  0.00000000000E+00  0.00000000000E+00  0.64869121827E+03  0.64869121827E+03  0.00000000000E+00 0. -1.
         21   -1    0    0  501  503 -0.00000000000E+00 -0.00000000000E+00 -0.66480001325E+02  0.66480001325E+02  0.00000000000E+00 0. -1.
          6    2    1    2  501    0  0.44588561616E+02  0.19509758285E+02  0.11397341775E+03  0.21394580987E+03  0.17439638503E+03 0.  0.
         24    2    3    3    0    0  0.20260990755E+02 -0.59072721102E+02  0.58952959309E+02  0.11486817557E+03  0.76283367932E+02 0.  0.
         -6    2    1    2    0  502 -0.44588561616E+02 -0.19509758285E+02  0.46823779919E+03  0.50122540973E+03  0.17207993569E+03 0.  0.
        -24    2    5    5    0    0 -0.60891976123E+02 -0.61823262547E+02  0.22611834704E+03  0.25485139916E+03  0.79308134771E+02 0.  0.
          5    1    3    3  501    0  0.24327570861E+02  0.78582479387E+02  0.55020458440E+02  0.99077634295E+02  0.47000000000E+01 0. -1.
        -11    1    4    4    0    0 -0.12152692428E+02 -0.44974875359E+02  0.64002213579E+02  0.79162558636E+02  0.00000000000E+00 0.  1.
         12    1    4    4    0    0  0.32413683182E+02 -0.14097845743E+02 -0.50492542702E+01  0.35705616935E+02  0.00000000000E+00 0. -1.
         -5    1    5    5    0  502  0.16303414507E+02  0.42313504262E+02  0.24211945216E+03  0.24637401056E+03  0.47000000000E+01 0.  1.
         13    1    6    6    0    0 -0.12904003588E+02 -0.18881269324E+02  0.16328852618E+03  0.16488225624E+03  0.00000000000E+00 0. -1.
        -14    1    6    6    0    0 -0.47987972536E+02 -0.42941993223E+02  0.62829820858E+02  0.89969142927E+02  0.00000000000E+00 0.  1.
</event>
<event>
12    1  0.8449700E-002  0.1948797E+03  0.7818608E-02  0.1154162E+00
         21   -1    0    0  501  502  0.00000000000E+00  0.00000000000E+00  0.41356453467E+02  0.41356453467E+02  0.00000000000E+00 0.  1.
         21   -1    0    0  502  503 -0.00000000000E+00 -0.00000000000E+00 -0.10776445977E+04  0.10776445977E+04  0.00000000000E+00 0.  1.
         -6    2    1    2    0  503  0.72743062257E+02 -0.56928229899E+02 -0.73387219024E+03  0.75930659649E+03  0.17159760895E+03 0.  0.
        -24    2    3    3    0    0 -0.11285210260E+01 -0.84430727394E+02 -0.45577078753E+03  0.47021166680E+03  0.79007465069E+02 0.  0.
          6    2    1    2  501    0 -0.72743062257E+02  0.56928229899E+02 -0.30241595395E+03  0.35969445464E+03  0.17144187069E+03 0.  0.
         24    2    5    5    0    0 -0.50660006231E+02 -0.11510117727E+02 -0.73617750909E+02  0.11981495050E+03  0.78975502995E+02 0.  0.
          5    1    5    5  501    0 -0.22083056025E+02  0.68438347626E+02 -0.22879820304E+03  0.23987950413E+03  0.47000000000E+01 0. -1.
        -11    1    6    6    0    0 -0.42582753479E+02 -0.22480810209E+02 -0.87807443549E+02  0.10014402061E+03  0.00000000000E+00 0.  1.
         12    1    6    6    0    0 -0.80772527522E+01  0.10970692482E+02  0.14189692639E+02  0.19670929891E+02  0.00000000000E+00 0. -1.
         -5    1    3    3    0  503  0.73871583283E+02  0.27502497496E+02 -0.27810140271E+03  0.28909492969E+03  0.47000000000E+01 0.  1.
         11    1    4    4    0    0 -0.30480889944E+02 -0.77778977773E+01 -0.89840326263E+02  0.95188573730E+02  0.00000000000E+00 0. -1.
        -12    1    4    4    0    0  0.29352368918E+02 -0.76652829617E+02 -0.36593046127E+03  0.37502309307E+03  0.00000000000E+00 0.  1.
</event>
<event>
12    1  0.8449700E-002  0.2323128E+03  0.7818608E-02  0.1125115E+00
         21   -1    0    0  503  502  0.00000000000E+00  0.00000000000E+00  0.77204249798E+02  0.77204249798E+02  0.00000000000E+00 0. -1.
         21   -1    0    0  501  503 -0.00000000000E+00 -0.00000000000E+00 -0.69779175470E+03  0.69779175470E+03  0.00000000000E+00 0. -1.
          6    2    1    2  501    0 -0.11851464237E+03 -0.10104608377E+03 -0.31861384224E+03  0.39400084337E+03  0.17165620469E+03 0.  0.
         24    2    3    3    0    0  0.89811039826E+01 -0.39393939375E+02 -0.11556637765E+03  0.14639931850E+03  0.80278453670E+02 0.  0.
         -6    2    1    2    0  502  0.11851464237E+03  0.10104608377E+03 -0.30197366266E+03  0.38099516113E+03  0.17237513847E+03 0.  0.
        -24    2    5    5    0    0  0.11250333953E+03  0.13480680867E+03 -0.27797034280E+03  0.33887424385E+03  0.82087542288E+02 0.  0.
          5    1    3    3  501    0 -0.12749574635E+03 -0.61652144395E+02 -0.20304746459E+03  0.24760152488E+03  0.47000000000E+01 0. -1.
        -11    1    4    4    0    0 -0.10055524646E+01 -0.14320792100E+02  0.10302009116E+02  0.17669963610E+02  0.00000000000E+00 0.  1.
         12    1    4    4    0    0  0.99866564471E+01 -0.25073147274E+02 -0.12586838677E+03  0.12872935489E+03  0.00000000000E+00 0. -1.
         -5    1    5    5    0  502  0.60113028327E+01 -0.33760724904E+02 -0.24003319861E+02  0.42120917276E+02  0.47000000000E+01 0.  1.
         11    1    6    6    0    0  0.87132092291E+02  0.12608506950E+03 -0.27070431640E+03  0.31107920724E+03  0.00000000000E+00 0. -1.
        -12    1    6    6    0    0  0.25371247243E+02  0.87217391775E+01 -0.72660264029E+01  0.27795036619E+02  0.00000000000E+00 0.  1.
</event>
<event>
12    1  0.8449700E-002  0.1965948E+03  0.7818608E-02  0.1155874E+00
         21   -1    0    0  503  502  0.00000000000E+00  0.00000000000E+00  0.19614853968E+04  0.19614853968E+04  0.00000000000E+00 0.  1.
         21   -1    0    0  501  503 -0.00000000000E+00 -0.00000000000E+00 -0.20219670143E+02  0.20219670143E+02  0.00000000000E+00 0. -1.
          6    2    1    2  501    0 -0.21751012301E+02  0.57337934368E+02  0.69801504393E+03  0.72517204829E+03  0.18678531208E+03 0.  0.
         24    2    3    3    0    0 -0.40258439479E+02  0.75042573142E+02  0.24483529078E+03  0.27124478786E+03  0.79857908783E+02 0.  0.
         -6    2    1    2    0  502  0.21751012301E+02 -0.57337934368E+02  0.12432506827E+04  0.12565330187E+04  0.17158735857E+03 0.  0.
        -24    2    5    5    0    0 -0.50265515213E+02 -0.49259901910E+02  0.63275794515E+03  0.64173621688E+03  0.80558022242E+02 0.  0.
          5    1    3    3  501    0  0.18507427177E+02 -0.17704638774E+02  0.45317975315E+03  0.45392726043E+03  0.47000000000E+01 0. -1.
        -11    1    4    4    0    0 -0.17339188324E+02  0.72940518675E+02  0.23416838913E+03  0.24587761424E+03  0.00000000000E+00 0.  1.
         12    1    4    4    0    0 -0.22919251155E+02  0.21020544668E+01  0.10666901648E+02  0.25367173615E+02  0.00000000000E+00 0. -1.
         -5    1    5    5    0  502  0.72016527514E+02 -0.80780324571E+01  0.61049273760E+03  0.61479680180E+03  0.47000000000E+01 0.  1.
         11    1    6    6    0    0  0.18904146086E+02 -0.38171646349E+01  0.21473544726E+03  0.21559974442E+03  0.00000000000E+00 0. -1.
        -12    1    6    6    0    0 -0.69169661298E+02 -0.45442737276E+02  0.41802249789E+03  0.42613647245E+03  0.00000000000E+00 0.  1.
</event>
<event>
12    1  0.8449700E-002  0.2779593E+03  0.7818608E-02  0.1096829E+00
         21   -1    0    0  501  502  0.00000000000E+00  0.00000000000E+00  0.14641762317E+04  0.14641762317E+04  0.00000000000E+00 0.  1.
         21   -1    0    0  502  503 -0.00000000000E+00 -0.00000000000E+00 -0.58478550422E+02  0.58478550422E+02  0.00000000000E+00 0. -1.
         -6    2    1    2    0  503  0.18592158367E+03 -0.11661337726E+03  0.46452305286E+03  0.54133448657E+03  0.17057504119E+03 0.  0.
        -24    2    3    3    0    0  0.93433643710E+02 -0.11591403118E+03  0.38168048489E+03  0.41707874549E+03  0.78158678297E+02 0.  0.
          6    2    1    2  501    0 -0.18592158367E+03  0.11661337726E+03  0.94117462842E+03  0.98132029556E+03  0.17033592184E+03 0.  0.
         24    2    5    5    0    0 -0.16792594010E+03  0.13784072391E+03  0.68060114303E+03  0.71922284284E+03  0.82851645996E+02 0.  0.
          5    1    5    5  501    0 -0.17995643562E+02 -0.21227346649E+02  0.26057348539E+03  0.26209745272E+03  0.47000000000E+01 0. -1.
        -11    1    6    6    0    0 -0.99983387727E+02  0.56400044366E+02  0.46481943153E+03  0.47878465592E+03  0.00000000000E+00 0.  1.
         12    1    6    6    0    0 -0.67942552377E+02  0.81440679542E+02  0.21578171150E+03  0.24043818691E+03  0.00000000000E+00 0. -1.
         -5    1    3    3    0  503  0.92487939955E+02 -0.69934608091E+00  0.82842567971E+02  0.12425574107E+03  0.47000000000E+01 0.  1.
         11    1    4    4    0    0  0.23501012492E+02 -0.16747412082E+02  0.18785516406E+02  0.34433545072E+02  0.00000000000E+00 0. -1.
        -12    1    4    4    0    0  0.69932631218E+02 -0.99166619096E+02  0.36289496849E+03  0.38264520042E+03  0.00000000000E+00 0.  1.
</event>
<event>
12    1  0.8449700E-002  0.2509770E+03  0.7818608E-02  0.1113154E+00
         21   -1    0    0  501  502  0.00000000000E+00  0.00000000000E+00  0.48259537199E+03  0.48259537199E+03  0.00000000000E+00 0. -1.
         21   -1    0    0  502  503 -0.00000000000E+00 -0.00000000000E+00 -0.12982707784E+03  0.12982707784E+03  0.00000000000E+00 0.  1.
         -6    2    1    2    0  503  0.13938105867E+03 -0.11654800462E+03  0.20187173009E+03  0.32208953227E+03  0.17314431695E+03 0.  0.
        -24    2    3    3    0    0  0.10668748104E+03 -0.92939543080E+01  0.78500464972E+02  0.15531165489E+03  0.80565445125E+02 0.  0.
          6    2    1    2  501    0 -0.13938105867E+03  0.11654800462E+03  0.15089656405E+03  0.29033291756E+03  0.16885767106E+03 0.  0.
         24    2    5    5    0    0 -0.11061663957E+03  0.18963919893E+02  0.48946473599E+02  0.14622894002E+03  0.79946697332E+02 0.  0.
          5    1    5    5  501    0 -0.28764419101E+02  0.97584084725E+02  0.10195009045E+03  0.14410397753E+03  0.47000000000E+01 0. -1.
        -11    1    6    6    0    0 -0.24124563329E+02  0.30459859204E+02 -0.10981514327E+02  0.40378103416E+02  0.00000000000E+00 0.  1.
         12    1    6    6    0    0 -0.86492076244E+02 -0.11495939311E+02  0.59927987926E+02  0.10585083661E+03  0.00000000000E+00 0. -1.
         -5    1    3    3    0  503  0.32693577638E+02 -0.10725405031E+03  0.12337126512E+03  0.16677787738E+03  0.47000000000E+01 0.  1.
         13    1    4    4    0    0  0.10353583614E+03 -0.33814002529E+02  0.59335437633E+02  0.12403124724E+03  0.00000000000E+00 0. -1.
        -14    1    4    4    0    0  0.31516448996E+01  0.24520048221E+02  0.19165027339E+02  0.31280407658E+02  0.00000000000E+00 0.  1.
</event>
<event>
12    1  0.8449700E-002  0.1989552E+03  0.7818608E-02  0.1150907E+00
         21   -1    0    0  501  502  0.00000000000E+00  0.00000000000E+00  0.24065707442E+03  0.24065707442E+03  0.00000000000E+00 0. -1.
         21   -1    0    0  502  503 -0.00000000000E+00 -0.00000000000E+00 -0.16340293259E+03  0.16340293259E+03  0.00000000000E+00 0. -1.
         -6    2    1    2    0  503  0.71810417818E+02 -0.65519842531E+02  0.36302060314E+02  0.20093383634E+03  0.17206679264E+03 0.  0.
        -24    2    3    3    0    0  0.16752287685E+02 -0.59793512289E+02  0.80847062757E+02  0.12972614157E+03  0.80229177953E+02 0.  0.
          6    2    1    2  501    0 -0.71810417818E+02  0.65519842531E+02  0.40952081512E+02  0.20312617067E+03  0.17359027150E+03 0.  0.
         24    2    5    5    0    0 -0.98179681677E+02  0.17879263293E+02 -0.88515445796E+01  0.12918393620E+03  0.81555021797E+02 0.  0.
          5    1    5    5  501    0  0.26369263859E+02  0.47640579239E+02  0.49803626092E+02  0.73942234471E+02  0.47000000000E+01 0. -1.
        -13    1    6    6    0    0 -0.50203997702E+02  0.36963337732E+01 -0.44953171848E+02  0.67489939456E+02  0.00000000000E+00 0.  1.
         14    1    6    6    0    0 -0.47975683975E+02  0.14182929520E+02  0.36101627268E+02  0.61693996742E+02  0.00000000000E+00 0. -1.
         -5    1    3    3    0  503  0.55058130134E+02 -0.57263302420E+01 -0.44545002443E+02  0.71207694770E+02  0.47000000000E+01 0.  1.
         13    1    4    4    0    0  0.45740096325E+02 -0.31994945131E+02  0.67084734279E+02  0.87270811267E+02  0.00000000000E+00 0. -1.
        -14    1    4    4    0    0 -0.28987808641E+02 -0.27798567158E+02  0.13762328478E+02  0.42455330301E+02  0.00000000000E+00 0.  1.
</event>
<event>
12    1  0.8449700E-002  0.2534100E+03  0.7818608E-02  0.1111825E+00
         21   -1    0    0  503  502  0.00000000000E+00  0.00000000000E+00  0.30131227321E+03  0.30131227321E+03  0.00000000000E+00 0. -1.
         21   -1    0    0  501  503 -0.00000000000E+00 -0.00000000000E+00 -0.27228670771E+03  0.27228670771E+03  0.00000000000E+00 0. -1.
          6    2    1    2  501    0 -0.13809993374E+03 -0.11501980304E+03  0.15201108731E+03  0.29192176738E+03  0.17265514998E+03 0.  0.
         24    2    3    3    0    0 -0.87437982628E+02  0.85596047035E+00  0.46487724066E+02  0.12714587093E+03  0.79742275686E+02 0.  0.
         -6    2    1    2    0  502  0.13809993374E+03  0.11501980304E+03 -0.12298552180E+03  0.28167721354E+03  0.17864900578E+03 0.  0.
        -24    2    5    5    0    0  0.17058976250E+03  0.10429593558E+03 -0.12128293716E+03  0.24710006645E+03  0.79814677490E+02 0.  0.
          5    1    3    3  501    0 -0.50661951111E+02 -0.11587576351E+03  0.10552336324E+03  0.16477589645E+03  0.47000000000E+01 0. -1.
        -11    1    4    4    0    0 -0.85493188557E+02 -0.27216131010E+02  0.30392600764E+02  0.94728629559E+02  0.00000000000E+00 0.  1.
         12    1    4    4    0    0 -0.19447940704E+01  0.28072091481E+02  0.16095123302E+02  0.32417241372E+02  0.00000000000E+00 0. -1.
         -5    1    5    5    0  502 -0.32489828766E+02  0.10723867467E+02 -0.17025846359E+01  0.34577147094E+02  0.47000000000E+01 0.  1.
         11    1    6    6    0    0  0.52063538203E+02  0.61177651149E+02 -0.82491035807E+02  0.11514377099E+03  0.00000000000E+00 0. -1.
        -12    1    6    6    0    0  0.11852622430E+03  0.43118284427E+02 -0.38791901357E+02  0.13195629545E+03  0.00000000000E+00 0.  1.
</event>
<event>
12    1  0.8449700E-002  0.2086046E+03  0.7818608E-02  0.1142692E+00
         21   -1    0    0  501  502  0.00000000000E+00  0.00000000000E+00  0.16627884802E+03  0.16627884802E+03  0.00000000000E+00 0. -1.
         21   -1    0    0  502  503 -0.00000000000E+00 -0.00000000000E+00 -0.38335853028E+03  0.38335853028E+03  0.00000000000E+00 0.  1.
         -6    2    1    2    0  503  0.98380696870E+02 -0.64014656501E+02 -0.26340473634E+03  0.33595091281E+03  0.17234942103E+03 0.  0.
        -24    2    3    3    0    0  0.72765999961E+02 -0.97884312420E+02 -0.25318097239E+03  0.29202049466E+03  0.79367091100E+02 0.  0.
          6    2    1    2  501    0 -0.98380696870E+02  0.64014656501E+02  0.46325054077E+02  0.21368646549E+03  0.17245073828E+03 0.  0.
         24    2    5    5    0    0 -0.45990149940E+02 -0.31637764687E+02  0.65129980691E+01  0.97491608068E+02  0.79662741944E+02 0.  0.
          5    1    5    5  501    0 -0.52390546931E+02  0.95652421188E+02  0.39812056007E+02  0.11619485742E+03  0.47000000000E+01 0. -1.
        -11    1    6    6    0    0 -0.10662053534E+01 -0.26481667764E+02 -0.29520098452E+02  0.39671800237E+02  0.00000000000E+00 0.  1.
         12    1    6    6    0    0 -0.44923944587E+02 -0.51560969222E+01  0.36033096521E+02  0.57819807831E+02  0.00000000000E+00 0. -1.
         -5    1    3    3    0  503  0.25614696910E+02  0.33869655919E+02 -0.10223763946E+02  0.43930418152E+02  0.47000000000E+01 0.  1.
         13    1    4    4    0    0  0.77972645823E+02 -0.81320221979E+02 -0.15112454772E+03  0.18849758864E+03  0.00000000000E+00 0. -1.
        -14    1    4    4    0    0 -0.52066458618E+01 -0.16564090441E+02 -0.10205642467E+03  0.10352290602E+03  0.00000000000E+00 0.  1.
</event>
<event>
12    1  0.8449700E-002  0.1918896E+03  0.7818608E-02  0.1156857E+00
         21   -1    0    0  503  502  0.00000000000E+00  0.00000000000E+00  0.35863065867E+03  0.35863065867E+03  0.00000000000E+00 0. -1.
         21   -1    0    0  501  503 -0.00000000000E+00 -0.00000000000E+00 -0.10841840736E+03  0.10841840736E+03  0.00000000000E+00 0. -1.
          6    2    1    2  501    0 -0.17894423681E+02 -0.83014491121E+02  0.70481332292E+02  0.20442419831E+03  0.17207561861E+03 0.  0.
         24    2    3    3    0    0  0.52053541155E+02 -0.76660429181E+02  0.44180699174E+02  0.12927830561E+03  0.78578327627E+02 0.  0.
         -6    2    1    2    0  502  0.17894423681E+02  0.83014491121E+02  0.17973091902E+03  0.26262486771E+03  0.17163042200E+03 0.  0.
        -24    2    5    5    0    0  0.66690868476E+02  0.50028476677E+02  0.16418363016E+03  0.20152676329E+03  0.81891705889E+02 0.  0.
          5    1    3    3  501    0 -0.69947964836E+02 -0.63540619397E+01  0.26300633118E+02  0.75145892704E+02  0.47000000000E+01 0. -1.
        -13    1    4    4    0    0  0.23711658868E+01 -0.12487050866E+01  0.38713826130E+02  0.38806468864E+02  0.00000000000E+00 0.  1.
         14    1    4    4    0    0  0.49682375268E+02 -0.75411724094E+02  0.54668730439E+01  0.90471836745E+02  0.00000000000E+00 0. -1.
         -5    1    5    5    0  502 -0.48796444795E+02  0.32986014444E+02  0.15547288861E+02  0.61098104425E+02  0.47000000000E+01 0.  1.
         11    1    6    6    0    0 -0.17510146714E+02  0.48380670196E+01  0.46551255103E+02  0.49970306004E+02  0.00000000000E+00 0. -1.
        -12    1    6    6    0    0  0.84201015189E+02  0.45190409657E+02  0.11763237505E+03  0.15155645728E+03  0.00000000000E+00 0.  1.
</event>
<event>
12    1  0.8449700E-002  0.2184765E+03  0.7818608E-02  0.1136843E+00
         21   -1    0    0  503  502  0.00000000000E+00  0.00000000000E+00  0.12935603731E+03  0.12935603731E+03  0.00000000000E+00 0. -1.
         21   -1    0    0  501  503 -0.00000000000E+00 -0.00000000000E+00 -0.35611348535E+03  0.35611348535E+03  0.00000000000E+00 0. -1.
          6    2    1    2  501    0  0.10776297339E+03 -0.73382526916E+01 -0.13278823833E+03  0.24764148777E+03  0.17896055945E+03 0.  0.
         24    2    3    3    0    0  0.18983715336E+02 -0.40018719711E+01  0.23043382334E+01  0.85885553288E+02  0.83633855953E+02 0.  0.
         -6    2    1    2    0  502 -0.10776297339E+03  0.73382526916E+01 -0.93969209703E+02  0.23782803489E+03  0.18990853962E+03 0.  0.
        -24    2    5    5    0    0 -0.10666767426E+03 -0.59884128220E+02 -0.77322260471E+02  0.16840715118E+03  0.86128596069E+02 0.  0.
          5    1    3    3  501    0  0.88779258054E+02 -0.33363807205E+01 -0.13509257657E+03  0.16175593448E+03  0.47000000000E+01 0. -1.
        -13    1    4    4    0    0 -0.13799187043E+02  0.26017452950E+02 -0.20542396598E+02  0.35907039408E+02  0.00000000000E+00 0.  1.
         14    1    4    4    0    0  0.32782902380E+02 -0.30019324921E+02  0.22846734832E+02  0.49978513880E+02  0.00000000000E+00 0. -1.
         -5    1    5    5    0  502 -0.10952991348E+01  0.67222380911E+02 -0.16646949233E+02  0.69420883705E+02  0.47000000000E+01 0.  1.
         11    1    6    6    0    0 -0.29046165368E+02 -0.59939921834E+02 -0.13602777793E+02  0.67981685150E+02  0.00000000000E+00 0. -1.
        -12    1    6    6    0    0 -0.77621508887E+02  0.55793614384E-01 -0.63719482678E+02  0.10042546603E+03  0.00000000000E+00 0.  1.
</event>
<event>
12    1  0.8449700E-002  0.1760208E+03  0.7818608E-02  0.1172340E+00
         21   -1    0    0  501  502  0.00000000000E+00  0.00000000000E+00  0.16614756704E+03  0.16614756704E+03  0.00000000000E+00 0. -1.
         21   -1    0    0  502  503 -0.00000000000E+00 -0.00000000000E+00 -0.24334365183E+03  0.24334365183E+03  0.00000000000E+00 0. -1.
         -6    2    1    2    0  503 -0.21097784785E+02  0.13297206599E+02 -0.14005620610E+03  0.22494232562E+03  0.17424516281E+03 0.  0.
        -24    2    3    3    0    0  0.21538037927E+02 -0.15786048286E+02 -0.14544400432E+03  0.17283889518E+03  0.89477588799E+02 0.  0.
          6    2    1    2  501    0  0.21097784785E+02 -0.13297206599E+02  0.62860121311E+02  0.18454889325E+03  0.17171187182E+03 0.  0.
         24    2    5    5    0    0  0.67160811999E+02  0.23092829972E+02  0.16518255819E+02  0.10961094735E+03  0.81840415079E+02 0.  0.
          5    1    5    5  501    0 -0.46063027214E+02 -0.36390036571E+02  0.46341865492E+02  0.74937945896E+02  0.47000000000E+01 0. -1.
        -13    1    6    6    0    0  0.80935654060E+02  0.49184402945E+01  0.25650915255E+02  0.85045520790E+02  0.00000000000E+00 0.  1.
         14    1    6    6    0    0 -0.13774842061E+02  0.18174389677E+02 -0.91326594357E+01  0.24565426565E+02  0.00000000000E+00 0. -1.
         -5    1    3    3    0  503 -0.42635822712E+02  0.29083254886E+02  0.53877982235E+01  0.52103430432E+02  0.47000000000E+01 0.  1.
         13    1    4    4    0    0  0.44982366169E+02  0.18306409901E+02 -0.54953030159E+02  0.73337394509E+02  0.00000000000E+00 0. -1.
        -14    1    4    4    0    0 -0.23444328242E+02 -0.34092458187E+02 -0.90490974162E+02  0.99501500676E+02  0.00000000000E+00 0.  1.
</event>
<event>
12    1  0.8449700E-002  0.2200820E+03  0.7818608E-02  0.1134328E+00
         21   -1    0    0  501  502  0.00000000000E+00  0.00000000000E+00  0.89349716949E+03  0.89349716949E+03  0.00000000000E+00 0.  1.
         21   -1    0    0  502  503 -0.00000000000E+00 -0.00000000000E+00 -0.80413686854E+02  0.80413686854E+02  0.00000000000E+00 0.  1.
         -6    2    1    2    0  503 -0.12829785160E+03  0.45955066116E+02  0.68633983664E+03  0.71994229109E+03  0.16935856730E+03 0.  0.
        -24    2    3    3    0    0 -0.94586795740E+02 -0.82299740493E+01  0.60238665455E+03  0.61438339450E+03  0.74718668787E+02 0.  0.
          6    2    1    2  501    0  0.12829785160E+03 -0.45955066116E+02  0.12674364600E+03  0.25396856525E+03  0.17281167063E+03 0.  0.
         24    2    5    5    0    0  0.14932721144E+03 -0.74534207979E+02  0.97515000351E+02  0.20775812216E+03  0.76159686145E+02 0.  0.
          5    1    5    5  501    0 -0.21029359834E+02  0.28579141863E+02  0.29228645645E+02  0.46210443093E+02  0.47000000000E+01 0. -1.
        -13    1    6    6    0    0  0.65775209759E+02 -0.70149867988E+02  0.31524416044E+02  0.10119867096E+03  0.00000000000E+00 0.  1.
         14    1    6    6    0    0  0.83552001679E+02 -0.43843399908E+01  0.65990584307E+02  0.10655945119E+03  0.00000000000E+00 0. -1.
         -5    1    3    3    0  503 -0.33711055865E+02  0.54185040166E+02  0.83953182089E+02  0.10555889658E+03  0.47000000000E+01 0.  1.
         11    1    4    4    0    0 -0.42712731590E+02 -0.23289410616E+02  0.45161628206E+03  0.45422906150E+03  0.00000000000E+00 0. -1.
        -12    1    4    4    0    0 -0.51874064150E+02  0.15059436567E+02  0.15077037248E+03  0.16015433300E+03  0.00000000000E+00 0.  1.
</event>
<event>
12    1  0.8449700E-002  0.1726792E+03  0.7818608E-02  0.1175606E+00
         21   -1    0    0  503  502  0.00000000000E+00  0.00000000000E+00  0.17654380869E+02  0.17654380869E+02  0.00000000000E+00 0.  1.
         21   -1    0    0  501  503 -0.00000000000E+00 -0.00000000000E+00 -0.24852414898E+04  0.24852414898E+04  0.00000000000E+00 0.  1.
          6    2    1    2  501    0  0.72126625276E+00  0.19030948188E+02 -0.19558428960E+04  0.19634509304E+04  0.17162582965E+03 0.  0.
         24    2    3    3    0    0 -0.56786856273E+02 -0.27889173121E+02 -0.11129835653E+04  0.11173170030E+04  0.75248358761E+02 0.  0.
         -6    2    1    2    0  502 -0.72126625276E+00 -0.19030948188E+02 -0.51174421297E+03  0.53944494022E+03  0.16957596174E+03 0.  0.
        -24    2    5    5    0    0 -0.18792442900E+02 -0.59576619145E+02 -0.45991036217E+03  0.47103911482E+03  0.80360294949E+02 0.  0.
          5    1    3    3  501    0  0.57508122526E+02  0.46920121309E+02 -0.84285933063E+03  0.84613392744E+03  0.47000000000E+01 0. -1.
        -11    1    4    4    0    0  0.70693573731E+01 -0.21047600446E+02 -0.58812418198E+03  0.58854314262E+03  0.00000000000E+00 0.  1.
         12    1    4    4    0    0 -0.63856213646E+02 -0.68415726753E+01 -0.52485938335E+03  0.52877386038E+03  0.00000000000E+00 0. -1.
         -5    1    5    5    0  502  0.18071176647E+02  0.40545670957E+02 -0.51833850805E+02  0.68405825396E+02  0.47000000000E+01 0.  1.
         13    1    6    6    0    0 -0.38472294684E+02 -0.60902782902E+02 -0.24906896947E+03  0.25927710654E+03  0.00000000000E+00 0. -1.
        -14    1    6    6    0    0  0.19679851785E+02  0.13261637563E+01 -0.21084139270E+03  0.21176200828E+03  0.00000000000E+00 0.  1.
</event>
<event>
12    1  0.8449700E-002  0.2283641E+03  0.7818608E-02  0.1128006E+00
         21   -1    0    0  501  502  0.00000000000E+00  0.00000000000E+00  0.10287693177E+04  0.10287693177E+04  0.00000000000E+00 0.  1.
         21   -1    0    0  502  503 -0.00000000000E+00 -0.00000000000E+00 -0.50938475129E+02  0.50938475129E+02  0.00000000000E+00 0.  1.
         -6    2    1    2    0  503  0.10017062956E+03 -0.10965993968E+03  0.43625467647E+03  0.49241072363E+03  0.17346677088E+03 0.  0.
        -24    2    3    3    0    0  0.11001293964E+03 -0.27183569460E+02  0.32711980414E+03  0.35518196180E+03  0.79404448183E+02 0.  0.
          6    2    1    2  501    0 -0.10017062956E+03  0.10965993968E+03  0.54157616613E+03  0.58729706924E+03  0.17191174019E+03 0.  0.
         24    2    5    5    0    0 -0.60867631567E+02  0.13739849840E+03  0.48016620030E+03  0.50914703921E+03  0.78025070868E+02 0.  0.
          5    1    5    5  501    0 -0.39302997991E+02 -0.27738558716E+02  0.61409965827E+02  0.78150030029E+02  0.47000000000E+01 0. -1.
        -13    1    6    6    0    0 -0.19356420424E+02  0.91586772424E+02  0.38065291021E+03  0.39199419122E+03  0.00000000000E+00 0.  1.
         14    1    6    6    0    0 -0.41511211143E+02  0.45811725975E+02  0.99513290092E+02  0.11715284799E+03  0.00000000000E+00 0. -1.
         -5    1    3    3    0  503 -0.98423100806E+01 -0.82476370223E+02  0.10913487233E+03  0.13722876182E+03  0.47000000000E+01 0.  1.
         11    1    4    4    0    0  0.76035564767E+02 -0.54461547229E+02  0.19966240632E+03  0.22048252478E+03  0.00000000000E+00 0. -1.
        -12    1    4    4    0    0  0.33977374871E+02  0.27277977770E+02  0.12745739783E+03  0.13469943703E+03  0.00000000000E+00 0.  1.
</event>
<event>
12    1  0.8449700E-002  0.2818018E+03  0.7818608E-02  0.1094794E+00
         21   -1    0    0  501  502  0.00000000000E+00  0.00000000000E+00  0.13076397246E+03  0.13076397246E+03  0.00000000000E+00 0. -1.
         21   -1    0    0  502  503 -0.00000000000E+00 -0.00000000000E+00 -0.13954696963E+04  0.13954696963E+04  0.00000000000E+00 0.  1.
         -6    2    1    2    0  503  0.77497495619E+02 -0.20984407719E+03 -0.58045329923E+02  0.28710431280E+03  0.17035030831E+03 0.  0.
        -24    2    3    3    0    0  0.87150470515E+02 -0.12613510017E+03  0.17981590860E+02  0.17351489673E+03  0.79238966251E+02 0.  0.
          6    2    1    2  501    0 -0.77497495619E+02  0.20984407719E+03 -0.12066603939E+04  0.12391293559E+04  0.17138219284E+03 0.  0.
         24    2    5    5    0    0  0.11532297004E+02  0.15049402554E+03 -0.83785291117E+03  0.85508537160E+03  0.79950274300E+02 0.  0.
          5    1    5    5  501    0 -0.89029792623E+02  0.59350051652E+02 -0.36880748272E+03  0.38404398435E+03  0.47000000000E+01 0. -1.
        -13    1    6    6    0    0 -0.26213280467E+02  0.11545502397E+03 -0.62260772353E+03  0.63376444838E+03  0.00000000000E+00 0.  1.
         14    1    6    6    0    0  0.37745577470E+02  0.35039001566E+02 -0.21524518765E+03  0.22132092322E+03  0.00000000000E+00 0. -1.
         -5    1    3    3    0  503 -0.96529748954E+01 -0.83708977023E+02 -0.76026920783E+02  0.11358941607E+03  0.47000000000E+01 0.  1.
         13    1    4    4    0    0  0.92095572061E+01 -0.75281171629E+02  0.25830638221E+02  0.80120488121E+02  0.00000000000E+00 0. -1.
        -14    1    4    4    0    0  0.77940913309E+02 -0.50853928538E+02 -0.78490473607E+01  0.93394408610E+02  0.00000000000E+00 0.  1.
</event>
<event>
12    1  0.8449700E-002  0.1905538E+03  0.7818608E-02  0.1158135E+00
         21   -1    0    0  503  502  0.00000000000E+00  0.00000000000E+00  0.21875499861E+02  0.21875499861E+02  0.00000000000E+00 0.  1.
         21   -1    0    0  501  503 -0.00000000000E+00 -0.00000000000E+00 -0.16771486720E+04  0.16771486720E+04  0.00000000000E+00 0.  1.
          6    2    1    2  501    0  0.19804587316E+02 -0.78625449602E+02 -0.93074760056E+03  0.95005360946E+03  0.17244298159E+03 0.  0.
         24    2    3    3    0    0  0.33751032411E+02  0.13278232810E+02 -0.29586595843E+03  0.30838579845E+03  0.79054991454E+02 0.  0.
         -6    2    1    2    0  502 -0.19804587316E+02  0.78625449602E+02 -0.72452557153E+03  0.74897056235E+03  0.17159666799E+03 0.  0.
        -24    2    5    5    0    0 -0.67287506144E+02  0.87838881989E+02 -0.45625032404E+03  0.47632938180E+03  0.80511142750E+02 0.  0.
          5    1    3    3  501    0 -0.13946445095E+02 -0.91903682412E+02 -0.63488164213E+03  0.64166781101E+03  0.47000000000E+01 0. -1.
        -11    1    4    4    0    0  0.32052086237E+02  0.33367076630E+02 -0.27679143348E+03  0.28063177954E+03  0.00000000000E+00 0.  1.
         12    1    4    4    0    0  0.16989461744E+01 -0.20088843820E+02 -0.19074524947E+02  0.27754018917E+02  0.00000000000E+00 0. -1.
         -5    1    5    5    0  502  0.47482918828E+02 -0.92134323870E+01 -0.26827524749E+03  0.27264118055E+03  0.47000000000E+01 0.  1.
         11    1    6    6    0    0 -0.57552148915E+02  0.59433920707E+02 -0.42505181291E+03  0.43302850303E+03  0.00000000000E+00 0. -1.
        -12    1    6    6    0    0 -0.97353572293E+01  0.28404961282E+02 -0.31198511131E+02  0.43300878774E+02  0.00000000000E+00 0.  1.
</event>
<event>
12    1  0.8449700E-002  0.1821085E+03  0.7818608E-02  0.1165949E+00
         21   -1    0    0  501  502  0.00000000000E+00  0.00000000000E+00  0.20557786115E+04  0.20557786115E+04  0.00000000000E+00 0. -1.
         21   -1    0    0  502  503 -0.00000000000E+00 -0.00000000000E+00 -0.41540714276E+02  0.41540714276E+02  0.00000000000E+00 0. -1.
         -6    2    1    2    0  503  0.30950984108E+02  0.52801433528E+02  0.18518661950E+03  0.25922464255E+03  0.17075531167E+03 0.  0.
        -24    2    3    3    0    0 -0.12430300174E+02  0.87367423818E+02  0.90241281622E+02  0.14916352001E+03  0.79490173515E+02 0.  0.
          6    2    1    2  501    0 -0.30950984108E+02 -0.52801433528E+02  0.18290512777E+04  0.18380946832E+04  0.17151540208E+03 0.  0.
         24    2    5    5    0    0  0.77034272509E+00  0.18701924675E+02  0.13677272272E+04  0.13701620573E+04  0.79472887389E+02 0.  0.
          5    1    5    5  501    0 -0.31721326833E+02 -0.71503358203E+02  0.46132405048E+03  0.46793262588E+03  0.47000000000E+01 0. -1.
        -13    1    6    6    0    0  0.31096708521E+02 -0.16295531163E+02  0.64130251032E+03  0.64226276504E+03  0.00000000000E+00 0.  1.
         14    1    6    6    0    0 -0.30326365796E+02  0.34997455838E+02  0.72642471689E+03  0.72789929227E+03  0.00000000000E+00 0. -1.
         -5    1    3    3    0  503  0.43381284282E+02 -0.34565990290E+02  0.94945337874E+02  0.11006112254E+03  0.47000000000E+01 0.  1.
         11    1    4    4    0    0 -0.28358947985E+02  0.52377563560E+02  0.10283323264E+02  0.60443244723E+02  0.00000000000E+00 0. -1.
        -12    1    4    4    0    0  0.15928647811E+02  0.34989860258E+02  0.79957958358E+02  0.88720275286E+02  0.00000000000E+00 0.  1.
</event>
<event>
12    1  0.8449700E-002  0.2456791E+03  0.7818608E-02  0.1116537E+00
         21   -1    0    0  501  502  0.00000000000E+00  0.00000000000E+00  0.32244686928E+04  0.32244686928E+04  0.00000000000E+00 0.  1.
         21   -1    0    0  502  503 -0.00000000000E+00 -0.00000000000E+00 -0.48236228829E+02  0.48236228829E+02  0.00000000000E+00 0.  1.
         -6    2    1    2    0  503  0.15931622357E+03 -0.65299250961E+02  0.30691878840E+03  0.39313781891E+03  0.17524996638E+03 0.  0.
        -24    2    3    3    0    0  0.13915864951E+03 -0.11096402345E+03  0.25987465477E+03  0.32438580259E+03  0.77544622623E+02 0.  0.
          6    2    1    2  501    0 -0.15931622357E+03  0.65299250961E+02  0.28693136756E+04  0.28795671028E+04  0.17117265839E+03 0.  0.
         24    2    5    5    0    0 -0.43557247337E+02  0.10415288491E+02  0.62894849561E+03  0.63553710749E+03  0.79532966974E+02 0.  0.
          5    1    5    5  501    0 -0.11575897623E+03  0.54883962469E+02  0.22403651800E+04  0.22440299953E+04  0.47000000000E+01 0. -1.
        -11    1    6    6    0    0 -0.47499293673E+02 -0.22128203785E+02  0.48904591631E+03  0.49184524859E+03  0.00000000000E+00 0.  1.
         12    1    6    6    0    0  0.39420463353E+01  0.32543492276E+02  0.13990257931E+03  0.14369185891E+03  0.00000000000E+00 0. -1.
         -5    1    3    3    0  503  0.20157574057E+02  0.45664772492E+02  0.47044133637E+02  0.68752016322E+02  0.47000000000E+01 0.  1.
         11    1    4    4    0    0  0.50906240358E+02 -0.84212234679E+02  0.16473856167E+03  0.19189043613E+03  0.00000000000E+00 0. -1.
        -12    1    4    4    0    0  0.88252409155E+02 -0.26751788774E+02  0.95136093100E+02  0.13249536646E+03  0.00000000000E+00 0.  1.
</event>
<event>
12    1  0.8449700E-002  0.2005905E+03  0.7818608E-02  0.1149499E+00
         21   -1    0    0  503  502  0.00000000000E+00  0.00000000000E+00  0.94234433517E+02  0.94234433517E+02  0.00000000000E+00 0.  1.
         21   -1    0    0  501  503 -0.00000000000E+00 -0.00000000000E+00 -0.60064886313E+03  0.60064886313E+03  0.00000000000E+00 0. -1.
          6    2    1    2  501    0 -0.49412141234E+02  0.89170222107E+02 -0.44196576026E+03  0.48535584172E+03  0.17275321022E+03 0.  0.
         24    2    3    3    0    0 -0.81279730587E+02  0.27283078620E+02 -0.18465850395E+03  0.21875749977E+03  0.80033240861E+02 0.  0.
         -6    2    1    2    0  502  0.49412141234E+02 -0.89170222107E+02 -0.64448669359E+02  0.20952745493E+03  0.17133369539E+03 0.  0.
        -24    2    5    5    0    0  0.54330340246E+02 -0.12232771888E+03 -0.75671457775E+02  0.17386726349E+03  0.81165258052E+02 0.  0.
          5    1    3    3  501    0  0.31867589353E+02  0.61887143487E+02 -0.25730725631E+03  0.26659834195E+03  0.47000000000E+01 0. -1.
        -13    1    4    4    0    0  0.45789118049E+01 -0.10548898595E+02  0.14518633253E+00  0.11500729280E+02  0.00000000000E+00 0.  1.
         14    1    4    4    0    0 -0.85858642392E+02  0.37831977216E+02 -0.18480369028E+03  0.20725677049E+03  0.00000000000E+00 0. -1.
         -5    1    5    5    0  502 -0.49181990128E+01  0.33157496772E+02  0.11222788416E+02  0.35660191440E+02  0.47000000000E+01 0.  1.
         11    1    6    6    0    0 -0.11425706768E+02 -0.48505507286E+02 -0.52382527105E+02  0.72299793624E+02  0.00000000000E+00 0. -1.
        -12    1    6    6    0    0  0.65756047014E+02 -0.73822211592E+02 -0.23288930670E+02  0.10156746987E+03  0.00000000000E+00 0.  1.
</event>
<event>
12    1  0.8449700E-002  0.1762939E+03  0.7818608E-02  0.1171454E+00
         21   -1    0    0  501  502  0.00000000000E+00  0.00000000000E+00  0.14275858514E+03  0.14275858514E+03  0.00000000000E+00 0.  1.
         21   -1    0    0  502  503 -0.00000000000E+00 -0.00000000000E+00 -0.21792517296E+03  0.21792517296E+03  0.00000000000E+00 0.  1.
         -6    2    1    2    0  503 -0.38026016272E+02  0.13379243811E+01 -0.44195278388E+02  0.18174918210E+03  0.17213882365E+03 0.  0.
        -24    2    3    3    0    0  0.24217649993E+02 -0.43626736573E+02 -0.33392015738E+01  0.94643477710E+02  0.80352043476E+02 0.  0.
          6    2    1    2  501    0  0.38026016272E+02 -0.13379243811E+01 -0.30971309436E+02  0.17893457599E+03  0.17207728648E+03 0.  0.
         24    2    5    5    0    0 -0.27233602770E+02 -0.47644971356E+02 -0.21748692149E+02  0.98248101621E+02  0.78536433880E+02 0.  0.
          5    1    5    5  501    0  0.65259619043E+02  0.46307046974E+02 -0.92226172867E+01  0.80686474373E+02  0.47000000000E+01 0. -1.
        -11    1    6    6    0    0  0.22525732872E+02  0.13683424423E+00  0.68860130149E+01  0.23555138299E+02  0.00000000000E+00 0.  1.
         12    1    6    6    0    0 -0.49759335642E+02 -0.47781805600E+02 -0.28634705164E+02  0.74692963322E+02  0.00000000000E+00 0. -1.
         -5    1    3    3    0  503 -0.62243666266E+02  0.44964660954E+02 -0.40856076814E+02  0.87105704391E+02  0.47000000000E+01 0.  1.
         13    1    4    4    0    0 -0.84174921448E+01 -0.51776983301E+02  0.17231742654E+02  0.55214519183E+02  0.00000000000E+00 0. -1.
        -14    1    4    4    0    0  0.32635142138E+02  0.81502467279E+01 -0.20570944228E+02  0.39428958527E+02  0.00000000000E+00 0.  1.
</event>
<event>
12    1  0.8449700E-002  0.2543929E+03  0.7818608E-02  0.1110797E+00
         21   -1    0    0  503  502  0.00000000000E+00  0.00000000000E+00  0.47013199442E+03  0.47013199442E+03  0.00000000000E+00 0. -1.
         21   -1    0    0  501  503 -0.00000000000E+00 -0.00000000000E+00 -0.24934841124E+03  0.24934841124E+03  0.00000000000E+00 0. -1.
          6    2    1    2  501    0  0.50712289818E+02  0.18055219196E+03 -0.13108349757E+03  0.28617935166E+03  0.17188632179E+03 0.  0.
         24    2    3    3    0    0  0.69183332198E+02  0.56411837854E+02 -0.10337851310E+03  0.15756495476E+03  0.78555515998E+02 0.  0.
         -6    2    1    2    0  502 -0.50712289818E+02 -0.18055219196E+03  0.35186708076E+03  0.43330105401E+03  0.16961288430E+03 0.  0.
        -24    2    5    5    0    0  0.10254885005E+02 -0.22466778804E+02  0.11053283508E+03  0.13839038551E+03  0.79526551246E+02 0.  0.
          5    1    3    3  501    0 -0.18471042380E+02  0.12414035411E+03 -0.27704984475E+02  0.12861439690E+03  0.47000000000E+01 0. -1.
        -11    1    4    4    0    0  0.37893955917E+02  0.70395653475E+02 -0.50530946625E+02  0.94577357174E+02  0.00000000000E+00 0.  1.
         12    1    4    4    0    0  0.31289376282E+02 -0.13983815621E+02 -0.52847566474E+02  0.62987597586E+02  0.00000000000E+00 0. -1.
         -5    1    5    5    0  502 -0.60967174823E+02 -0.15808541316E+03  0.24133424567E+03  0.29491066850E+03  0.47000000000E+01 0.  1.
         11    1    6    6    0    0 -0.31150270103E+02 -0.10100934272E+02  0.77062734703E+02  0.83731913154E+02  0.00000000000E+00 0. -1.
        -12    1    6    6    0    0  0.41405155108E+02 -0.12365844532E+02  0.33470100382E+02  0.54658472354E+02  0.00000000000E+00 0.  1.
</event>
<event>
12    1  0.8449700E-002  0.2463548E+03  0.7818608E-02  0.1115665E+00
         21   -1    0    0  501  502  0.00000000000E+00  0.00000000000E+00  0.68719469303E+02  0.68719469303E+02  0.00000000000E+00 0.  1.
         21   -1    0    0  502  503 -0.00000000000E+00 -0.00000000000E+00 -0.12678638815E+04  0.12678638815E+04  0.00000000000E+00 0.  1.
         -6    2    1    2    0  503 -0.93962764235E+01 -0.17540096253E+03 -0.96824770569E+03  0.99909674606E+03  0.17273361213E+03 0.  0.
        -24    2    3    3    0    0 -0.64351940308E+02 -0.62925170736E+02 -0.51684735460E+03  0.53063618668E+03  0.79641856636E+02 0.  0.
          6    2    1    2  501    0  0.93962764235E+01  0.17540096253E+03 -0.23089670653E+03  0.33748660476E+03  0.17242427798E+03 0.  0.
         24    2    5    5    0    0 -0.17252739412E+02  0.96139911660E+02 -0.21387277788E+03  0.25202089013E+03  0.90732708074E+02 0.  0.
          5    1    5    5  501    0  0.26649015836E+02  0.79261050869E+02 -0.17023928652E+02  0.85465714626E+02  0.47000000000E+01 0. -1.
        -13    1    6    6    0    0 -0.69486880986E+00  0.81108319932E+02 -0.72189119550E+02  0.10858320029E+03  0.00000000000E+00 0.  1.
         14    1    6    6    0    0 -0.16557870602E+02  0.15031591728E+02 -0.14168365833E+03  0.14343768984E+03  0.00000000000E+00 0. -1.
         -5    1    3    3    0  503  0.54955663884E+02 -0.11247579179E+03 -0.45140035109E+03  0.46846055938E+03  0.47000000000E+01 0.  1.
         11    1    4    4    0    0 -0.41737577778E+02  0.30367662613E+01 -0.10687413942E+03  0.11477512372E+03  0.00000000000E+00 0. -1.
        -12    1    4    4    0    0 -0.22614362530E+02 -0.65961936997E+02 -0.40997321518E+03  0.41586106296E+03  0.00000000000E+00 0.  1.
</event>
<event>
12    1  0.8449700E-002  0.2460244E+03  0.7818608E-02  0.1116238E+00
         21   -1    0    0  501  502  0.00000000000E+00  0.00000000000E+00  0.26430286195E+03  0.26430286195E+03  0.00000000000E+00 0. -1.
         21   -1    0    0  502  503 -0.00000000000E+00 -0.00000000000E+00 -0.30962548290E+03  0.30962548290E+03  0.00000000000E+00 0.  1.
         -6    2    1    2    0  503  0.53306206939E+02 -0.16506638844E+03 -0.17104190209E+03  0.29764348867E+03  0.17102002744E+03 0.  0.
        -24    2    3    3    0    0 -0.18027105648E+02 -0.11112924795E+03 -0.15284787698E+03  0.20626094570E+03  0.80662370012E+02 0.  0.
          6    2    1    2  501    0 -0.53306206939E+02  0.16506638844E+03  0.12571928114E+03  0.27628485619E+03  0.17446925179E+03 0.  0.
         24    2    5    5    0    0 -0.12493047401E+02  0.30644286006E+02 -0.28794012230E+01  0.85773106631E+02  0.79079620457E+02 0.  0.
          5    1    5    5  501    0 -0.40813159538E+02  0.13442210243E+03  0.12859868236E+03  0.19051174956E+03  0.47000000000E+01 0. -1.
        -11    1    6    6    0    0 -0.26021807195E+02  0.45056750768E+02  0.19815295149E+02  0.55676666219E+02  0.00000000000E+00 0.  1.
         12    1    6    6    0    0  0.13528759793E+02 -0.14412464762E+02 -0.22694696372E+02  0.30096440412E+02  0.00000000000E+00 0. -1.
         -5    1    3    3    0  503  0.71333312587E+02 -0.53937140488E+02 -0.18194025106E+02  0.91382542962E+02  0.47000000000E+01 0.  1.
         13    1    4    4    0    0 -0.28895422428E+02 -0.24876925970E+01 -0.26657015405E+02  0.39392010891E+02  0.00000000000E+00 0. -1.
        -14    1    4    4    0    0  0.10868316780E+02 -0.10864155536E+03 -0.12619086158E+03  0.16686893481E+03  0.00000000000E+00 0.  1.
</event>
<event>
12    1  0.8449700E-002  0.2034668E+03  0.7818608E-02  0.1147139E+00
         21   -1    0    0  503  502  0.00000000000E+00  0.00000000000E+00  0.30353503605E+02  0.30353503605E+02  0.00000000000E+00 0. -1.
         21   -1    0    0  501  503 -0.00000000000E+00 -0.00000000000E+00 -0.14595071316E+04  0.14595071316E+04  0.00000000000E+00 0. -1.
          6    2    1    2  501    0  0.28735086115E+02  0.10453176117E+03 -0.51701470359E+03  0.55561044035E+03  0.17218061280E+03 0.  0.
         24    2    3    3    0    0  0.20190283860E+02  0.12434662350E+03 -0.51140241708E+03  0.53282381764E+03  0.80616735903E+02 0.  0.
         -6    2    1    2    0  502 -0.28735086115E+02 -0.10453176117E+03 -0.91213892438E+03  0.93425019484E+03  0.17050928102E+03 0.  0.
        -24    2    5    5    0    0 -0.68023752153E+02 -0.11938165725E+03 -0.75538246696E+03  0.77189627392E+03  0.79636520292E+02 0.  0.
          5    1    3    3  501    0  0.85448022553E+01 -0.19814862329E+02 -0.56122865139E+01  0.22786622712E+02  0.47000000000E+01 0. -1.
        -13    1    4    4    0    0  0.33445453365E+02  0.88422300874E+02 -0.45456271661E+03  0.46428909633E+03  0.00000000000E+00 0.  1.
         14    1    4    4    0    0 -0.13255169505E+02  0.35924322624E+02 -0.56839700475E+02  0.68534721307E+02  0.00000000000E+00 0. -1.
         -5    1    5    5    0  502  0.39288666038E+02  0.14849896077E+02 -0.15675645742E+03  0.16235392092E+03  0.47000000000E+01 0.  1.
         11    1    6    6    0    0 -0.45855193520E+02 -0.60246734533E+02 -0.59048101062E+03  0.59531520365E+03  0.00000000000E+00 0. -1.
        -12    1    6    6    0    0 -0.22168558633E+02 -0.59134922712E+02 -0.16490145634E+03  0.17658107027E+03  0.00000000000E+00 0.  1.
</event>
<event>
12    1  0.8449700E-002  0.1774478E+03  0.7818608E-02  0.1170449E+00
         21   -1    0    0  503  502  0.00000000000E+00  0.00000000000E+00  0.54153402814E+03  0.54153402814E+03  0.00000000000E+00 0. -1.
         21   -1    0    0  501  503 -0.00000000000E+00 -0.00000000000E+00 -0.14366590381E+03  0.14366590381E+03  0.00000000000E+00 0. -1.
          6    2    1    2  501    0 -0.25657868606E+02 -0.29153225083E+02 -0.65848260889E+02  0.18869150759E+03  0.17251160779E+03 0.  0.
         24    2    3    3    0    0  0.49242365113E+02 -0.15553155740E+02 -0.59964541968E+02  0.11219500411E+03  0.79531512482E+02 0.  0.
         -6    2    1    2    0  502  0.25657868606E+02  0.29153225083E+02  0.46371638522E+03  0.49650842436E+03  0.17314587142E+03 0.  0.
        -24    2    5    5    0    0 -0.30187485889E+02  0.62343992062E+02  0.34596430548E+03  0.36194255605E+03  0.80703504048E+02 0.  0.
          5    1    3    3  501    0 -0.74900233720E+02 -0.13600069343E+02 -0.58837189209E+01  0.76496503487E+02  0.47000000000E+01 0. -1.
        -13    1    4    4    0    0  0.13531896680E+02 -0.43219755565E+02 -0.13195627329E+02  0.47171856858E+02  0.00000000000E+00 0.  1.
         14    1    4    4    0    0  0.35710468434E+02  0.27666599825E+02 -0.46768914639E+02  0.65023147249E+02  0.00000000000E+00 0. -1.
         -5    1    5    5    0  502  0.55845354495E+02 -0.33190766979E+02  0.11775207974E+03  0.13456586831E+03  0.47000000000E+01 0.  1.
         11    1    6    6    0    0 -0.34293718398E+02 -0.84178066124E+01  0.10583239065E+03  0.11156797704E+03  0.00000000000E+00 0. -1.
        -12    1    6    6    0    0  0.41062325094E+01  0.70761798674E+02  0.24013191483E+03  0.25037457902E+03  0.00000000000E+00 0.  1.
</event>
<event>
12    1  0.8449700E-002  0.1809477E+03  0.7818608E-02  0.1166897E+00
         21   -1    0    0  501  502  0.00000000000E+00  0.00000000000E+00  0.13350553640E+02  0.13350553640E+02  0.00000000000E+00 0. -1.
         21   -1    0    0  502  503 -0.00000000000E+00 -0.00000000000E+00 -0.25535896687E+04  0.25535896687E+04  0.00000000000E+00 0. -1.
         -6    2    1    2    0  503 -0.55823785302E+02  0.14186274089E+02 -0.10143032137E+04  0.10303169791E+04  0.17153577715E+03 0.  0.
        -24    2    3    3    0    0 -0.85255281908E+02  0.69281895969E+01 -0.45311520651E+03  0.46829121267E+03  0.81650514938E+02 0.  0.
          6    2    1    2  501    0  0.55823785302E+02 -0.14186274089E+02 -0.15259359014E+04  0.15366232432E+04  0.17150239370E+03 0.  0.
         24    2    5    5    0    0  0.10211559290E+03 -0.91397065381E+01 -0.12454460882E+04  0.12522554802E+04  0.80602113578E+02 0.  0.
          5    1    5    5  501    0 -0.46291807597E+02 -0.50465675513E+01 -0.28048981324E+03  0.28436776299E+03  0.47000000000E+01 0. -1.
        -13    1    6    6    0    0 -0.12792111323E+02 -0.17364828399E+01 -0.21697282996E+03  0.21735653297E+03  0.00000000000E+00 0.  1.
         14    1    6    6    0    0  0.11490770422E+03 -0.74032236982E+01 -0.10284732582E+04  0.10348989473E+04  0.00000000000E+00 0. -1.
         -5    1    3    3    0  503  0.29431496606E+02  0.72580844926E+01 -0.56118800717E+03  0.56202576646E+03  0.47000000000E+01 0.  1.
         13    1    4    4    0    0 -0.12381639176E+02 -0.28948302891E+02 -0.19997806004E+03  0.20244143283E+03  0.00000000000E+00 0. -1.
        -14    1    4    4    0    0 -0.72873642732E+02  0.35876492488E+02 -0.25313714647E+03  0.26584977984E+03  0.00000000000E+00 0.  1.
</event>
<event>
12    1  0.8449700E-002  0.2104953E+03  0.7818608E-02  0.1142828E+00
         21   -1    0    0  503  502  0.00000000000E+00  0.00000000000E+00  0.33552235777E+03  0.33552235777E+03  0.00000000000E+00 0.  1.
         21   -1    0    0  501  503 -0.00000000000E+00 -0.00000000000E+00 -0.99794287816E+03  0.99794287816E+03  0.00000000000E+00 0. -1.
          6    2    1    2  501    0 -0.10017520848E+03  0.69244497113E+02 -0.95491077538E+03  0.97783579962E+03  0.17169271771E+03 0.  0.
         24    2    3    3    0    0  0.14400918697E+01 -0.11116520829E+02 -0.40921734972E+03  0.41695527110E+03  0.79165698922E+02 0.  0.
         -6    2    1    2    0  502  0.10017520848E+03 -0.69244497113E+02  0.29249025499E+03  0.35562943631E+03  0.16152979271E+03 0.  0.
        -24    2    5    5    0    0 -0.41590206817E+01 -0.53211434782E+02  0.11313992635E+03  0.14746767026E+03  0.78085316120E+02 0.  0.
          5    1    3    3  501    0 -0.10161530035E+03  0.80361017942E+02 -0.54569342566E+03  0.56088052852E+03  0.47000000000E+01 0. -1.
        -11    1    4    4    0    0  0.31951429124E+02  0.18757808358E+02 -0.17536679075E+03  0.17923799958E+03  0.00000000000E+00 0.  1.
         12    1    4    4    0    0 -0.30511337254E+02 -0.29874329187E+02 -0.23385055898E+03  0.23771727152E+03  0.00000000000E+00 0. -1.
         -5    1    5    5    0  502  0.10433422916E+03 -0.16033062330E+02  0.17935032864E+03  0.20816176605E+03  0.47000000000E+01 0.  1.
         13    1    6    6    0    0  0.53714143132E+01 -0.57492844427E+02  0.32714693994E+02  0.66366636612E+02  0.00000000000E+00 0. -1.
        -14    1    6    6    0    0 -0.95304349949E+01  0.42814096447E+01  0.80425232355E+02  0.81101033650E+02  0.00000000000E+00 0.  1.
</event>
<event>
12    1  0.8449700E-002  0.1731085E+03  0.7818608E-02  0.1174699E+00
         21   -1    0    0  503  502  0.00000000000E+00  0.00000000000E+00  0.30421108444E+02  0.30421108444E+02  0.00000000000E+00 0.  1.
         21   -1    0    0  501  503 -0.00000000000E+00 -0.00000000000E+00 -0.99297547219E+03  0.99297547219E+03  0.00000000000E+00 0.  1.
          6    2    1    2  501    0  0.14783047705E+02  0.10585800624E+02 -0.53068057128E+03  0.55820105898E+03  0.17215096815E+03 0.  0.
         24    2    3    3    0    0  0.54489631273E+02  0.53141344713E+02 -0.40361614371E+03  0.41836170162E+03  0.79544952618E+02 0.  0.
         -6    2    1    2    0  502 -0.14783047705E+02 -0.10585800624E+02 -0.43187379247E+03  0.46519552166E+03  0.17193400792E+03 0.  0.
        -24    2    5    5    0    0  0.27943196472E+02 -0.62797977608E+02 -0.24745097373E+03  0.26876357559E+03  0.79230467259E+02 0.  0.
          5    1    3    3  501    0 -0.39706583568E+02 -0.42555544090E+02 -0.12706442758E+03  0.13983935736E+03  0.47000000000E+01 0. -1.
        -13    1    4    4    0    0 -0.12336625919E+02 -0.10956141547E+02 -0.83873354237E+02  0.85480810289E+02  0.00000000000E+00 0.  1.
         14    1    4    4    0    0  0.66826257192E+02  0.64097486260E+02 -0.31974278947E+03  0.33288089133E+03  0.00000000000E+00 0. -1.
         -5    1    5    5    0  502 -0.42726244176E+02  0.52212176984E+02 -0.18442281874E+03  0.19643194607E+03  0.47000000000E+01 0.  1.
         13    1    6    6    0    0 -0.24070811315E+02 -0.53630981568E+01 -0.36671155853E+02  0.44192085839E+02  0.00000000000E+00 0. -1.
        -14    1    6    6    0    0  0.52014007787E+02 -0.57434879451E+02 -0.21077981788E+03  0.22457148975E+03  0.00000000000E+00 0.  1.
</event>
<event>
12    1  0.8449700E-002  0.2079553E+03  0.7818608E-02  0.1143246E+00
         21   -1    0    0  501  502  0.00000000000E+00  0.00000000000E+00  0.30692211211E+03  0.30692211211E+03  0.00000000000E+00 0. -1.
         21   -1    0    0  502  503 -0.00000000000E+00 -0.00000000000E+00 -0.17511260967E+03  0.17511260967E+03  0.00000000000E+00 0. -1.
         -6    2    1    2    0  503 -0.11248731016E+03  0.28703923421E+02 -0.40862770481E+02  0.21193199682E+03  0.17253433020E+03 0.  0.
        -24    2    3    3    0    0 -0.60946454926E+02  0.84552235330E+02 -0.28316376669E+02  0.13476337820E+03  0.80596526291E+02 0.  0.
          6    2    1    2  501    0  0.11248731016E+03 -0.28703923421E+02  0.17267227292E+03  0.27010272496E+03  0.17222792466E+03 0.  0.
         24    2    5    5    0    0  0.21132592295E+02  0.83298010095E+01  0.14950651351E+02  0.84050632444E+02  0.79529961628E+02 0.  0.
          5    1    5    5  501    0  0.91354717860E+02 -0.37033724431E+02  0.15772162156E+03  0.18605209252E+03  0.47000000000E+01 0. -1.
        -13    1    6    6    0    0 -0.21625736417E+02 -0.13448271964E+02  0.24258704786E+02  0.35171199188E+02  0.00000000000E+00 0.  1.
         14    1    6    6    0    0  0.42758328712E+02  0.21778072974E+02 -0.93080534347E+01  0.48879433256E+02  0.00000000000E+00 0. -1.
         -5    1    3    3    0  503 -0.51540855229E+02 -0.55848311909E+02 -0.12546393812E+02  0.77168618612E+02  0.47000000000E+01 0.  1.
         11    1    4    4    0    0 -0.10201615935E+02 -0.13140487328E+02 -0.17503309504E+02  0.24147695925E+02  0.00000000000E+00 0. -1.
        -12    1    4    4    0    0 -0.50744838991E+02  0.97692722658E+02 -0.10813067165E+02  0.11061568228E+03  0.00000000000E+00 0.  1.
</event>
<event>
12    1  0.8449700E-002  0.1761345E+03  0.7818608E-02  0.1171793E+00
         21   -1    0    0  503  502  0.00000000000E+00  0.00000000000E+00  0.20475410149E+04  0.20475410149E+04  0.00000000000E+00 0.  1.
         21   -1    0    0  501  503 -0.00000000000E+00 -0.00000000000E+00 -0.19928427027E+02  0.19928427027E+02  0.00000000000E+00 0.  1.
          6    2    1    2  501    0  0.24551176000E+02 -0.25566253948E+02  0.50241673652E+03  0.53213699085E+03  0.17172887442E+03 0.  0.
         24    2    3    3    0    0  0.88385433108E+00 -0.54523887367E+02  0.13982475959E+03  0.16759108375E+03  0.74579973628E+02 0.  0.
         -6    2    1    2    0  502 -0.24551176000E+02  0.25566253948E+02  0.15251958513E+04  0.15353324510E+04  0.17253103131E+03 0.  0.
        -24    2    5    5    0    0 -0.15602508287E+02 -0.49978717833E+02  0.10142867006E+04  0.10187694136E+04  0.79826665180E+02 0.  0.
          5    1    3    3  501    0  0.23667321669E+02  0.28957633419E+02  0.36259197693E+03  0.36454590710E+03  0.47000000000E+01 0. -1.
        -11    1    4    4    0    0  0.24611374506E+02 -0.42219749055E+02  0.13038926242E+03  0.13924649626E+03  0.00000000000E+00 0.  1.
         12    1    4    4    0    0 -0.23727520175E+02 -0.12304138312E+02  0.94354971673E+01  0.28344587491E+02  0.00000000000E+00 0. -1.
         -5    1    5    5    0  502 -0.89486677133E+01  0.75544971780E+02  0.51090915069E+03  0.51656303746E+03  0.47000000000E+01 0.  1.
         11    1    6    6    0    0  0.32853982540E+02 -0.21015835414E+02  0.40646519977E+03  0.40833198275E+03  0.00000000000E+00 0. -1.
        -12    1    6    6    0    0 -0.48456490826E+02 -0.28962882419E+02  0.60782150086E+03  0.61043743084E+03  0.00000000000E+00 0.  1.
</event>
<event>
12    1  0.8449700E-002  0.1881500E+03  0.7818608E-02  0.1160660E+00
         21   -1    0    0  501  502  0.00000000000E+00  0.00000000000E+00  0.33007876185E+03  0.33007876185E+03  0.00000000000E+00 0.  1.
         21   -1    0    0  502  503 -0.00000000000E+00 -0.00000000000E+00 -0.10929661514E+03  0.10929661514E+03  0.00000000000E+00 0.  1.
         -6    2    1    2    0  503 -0.70369805897E+02  0.11829111740E+02  0.71387205581E+02  0.19912699583E+03  0.17164961369E+03 0.  0.
        -24    2    3    3    0    0 -0.31176358245E+02 -0.32613952335E+02 -0.15878821494E+02  0.93539298797E+02  0.80385497741E+02 0.  0.
          6    2    1    2  501    0  0.70369805897E+02 -0.11829111740E+02  0.14939494113E+03  0.24024838116E+03  0.17409364936E+03 0.  0.
         24    2    5    5    0    0  0.41249989724E+02 -0.57220319069E+02  0.15297799557E+03  0.18599661920E+03  0.78846361086E+02 0.  0.
          5    1    5    5  501    0  0.29119816173E+02  0.45391207329E+02 -0.35830544438E+01  0.54251761961E+02  0.47000000000E+01 0. -1.
        -13    1    6    6    0    0  0.54125665816E+02 -0.42656258603E+02  0.61147851866E+02  0.92131448951E+02  0.00000000000E+00 0.  1.
         14    1    6    6    0    0 -0.12875676091E+02 -0.14564060466E+02  0.91830143707E+02  0.93865170246E+02  0.00000000000E+00 0. -1.
         -5    1    3    3    0  503 -0.39193447653E+02  0.44443064075E+02  0.87266027075E+02  0.10558769703E+03  0.47000000000E+01 0.  1.
         11    1    4    4    0    0  0.16546871502E+02 -0.29246542526E+02  0.14787332722E+02  0.36712728246E+02  0.00000000000E+00 0. -1.
        -12    1    4    4    0    0 -0.47723229746E+02 -0.33674098093E+01 -0.30666154215E+02  0.56826570551E+02  0.00000000000E+00 0.  1.
</event>
<event>
12    1  0.8449700E-002  0.2265093E+03  0.7818608E-02  0.1129137E+00
         21   -1    0    0  503  502  0.00000000000E+00  0.00000000000E+00  0.80012213173E+03  0.80012213173E+03  0.00000000000E+00 0. -1.
         21   -1    0    0  501  503 -0.00000000000E+00 -0.00000000000E+00 -0.13737325255E+03  0.13737325255E+03  0.00000000000E+00 0. -1.
          6    2    1    2  501    0  0.11500022142E+03  0.92864186411E+02 -0.11003441835E+02  0.22668694804E+03  0.17151410623E+03 0.  0.
         24    2    3    3    0    0  0.12063318391E+03  0.19911812942E+02 -0.33275289358E+02  0.15005859654E+03  0.80383407240E+02 0.  0.
         -6    2    1    2    0  502 -0.11500022142E+03 -0.92864186411E+02  0.67375232101E+03  0.71080843623E+03  0.17163226651E+03 0.  0.
        -24    2    5    5    0    0 -0.10980431246E+03 -0.28313832668E+02  0.28872025769E+03  0.32034009511E+03  0.79998307322E+02 0.  0.
          5    1    3    3  501    0 -0.56329624955E+01  0.72952373470E+02  0.22271847523E+02  0.76628351499E+02  0.47000000000E+01 0. -1.
        -11    1    4    4    0    0 -0.57434051308E+01 -0.91714564763E+01 -0.15880881480E+02  0.19217302438E+02  0.00000000000E+00 0.  1.
         12    1    4    4    0    0  0.12637658904E+03  0.29083269418E+02 -0.17394407878E+02  0.13084129411E+03  0.00000000000E+00 0. -1.
         -5    1    5    5    0  502 -0.51959089521E+01 -0.64550353744E+02  0.38503206332E+03  0.39046834113E+03  0.47000000000E+01 0.  1.
         13    1    6    6    0    0 -0.94255609049E+02 -0.22994694658E+02  0.28798695637E+03  0.30389037967E+03  0.00000000000E+00 0. -1.
        -14    1    6    6    0    0 -0.15548703414E+02 -0.53191380098E+01  0.73330132628E+00  0.16449715434E+02  0.00000000000E+00 0.  1.
</event>
<event>
12    1  0.8449700E-002  0.2111787E+03  0.7818608E-02  0.1140662E+00
         21   -1    0    0  503  502  0.00000000000E+00  0.00000000000E+00  0.41173031055E+02  0.41173031055E+02  0.00000000000E+00 0. -1.
         21   -1    0    0  501  503 -0.00000000000E+00 -0.00000000000E+00 -0.16542760334E+04  0.16542760334E+04  0.00000000000E+00 0. -1.
          6    2    1    2  501    0  0.10707753346E+03 -0.58876584191E+02 -0.13051102427E+04  0.13220851667E+04  0.17223353948E+03 0.  0.
         24    2    3    3    0    0  0.33783296135E+02  0.29240791016E+02 -0.72142088458E+03  0.72723050059E+03  0.80123487918E+02 0.  0.
         -6    2    1    2    0  502 -0.10707753346E+03  0.58876584191E+02 -0.30799275965E+03  0.37336389774E+03  0.17207268755E+03 0.  0.
        -24    2    5    5    0    0 -0.59191955252E+02 -0.30937267055E+02 -0.11263551742E+03  0.15303210574E+03  0.79191309764E+02 0.  0.
          5    1    3    3  501    0  0.73294237328E+02 -0.88117375207E+02 -0.58368935807E+03  0.59485466608E+03  0.47000000000E+01 0. -1.
        -13    1    4    4    0    0  0.47861731898E+02 -0.55596710649E+01 -0.27118729418E+03  0.27543457272E+03  0.00000000000E+00 0.  1.
         14    1    4    4    0    0 -0.14078435763E+02  0.34800462081E+02 -0.45023359040E+03  0.45179592787E+03  0.00000000000E+00 0. -1.
         -5    1    5    5    0  502 -0.47885578212E+02  0.89813851246E+02 -0.19535724223E+03  0.22033179200E+03  0.47000000000E+01 0.  1.
         11    1    6    6    0    0 -0.67431906714E+02 -0.17606595974E+02 -0.43525937476E+02  0.82167886050E+02  0.00000000000E+00 0. -1.
        -12    1    6    6    0    0  0.82399514621E+01 -0.13330671081E+02 -0.69109579944E+02  0.70864219686E+02  0.00000000000E+00 0.  1.
</event>
<event>
12    1  0.8449700E-002  0.1778207E+03  0.7818608E-02  0.1170692E+00
         21   -1    0    0  503  502  0.00000000000E+00  0.00000000000E+00  0.51431690307E+02  0.51431690307E+02  0.00000000000E+00 0.  1.
         21   -1    0    0  501  503 -0.00000000000E+00 -0.00000000000E+00 -0.12775912192E+04  0.12775912192E+04  0.00000000000E+00 0.  1.
          6    2    1    2  501    0  0.31759810234E+02  0.11822934967E+02 -0.10980351342E+04  0.11123404868E+04  0.17456155149E+03 0.  0.
         24    2    3    3    0    0 -0.47105385784E+01  0.51964037847E+02 -0.36192768414E+03  0.37422283862E+03  0.79552712085E+02 0.  0.
         -6    2    1    2    0  502 -0.31759810234E+02 -0.11822934967E+02 -0.12812439470E+03  0.21668242273E+03  0.17142620706E+03 0.  0.
        -24    2    5    5    0    0 -0.84890658901E+02  0.78037663433E+01 -0.85551816885E+02  0.14567109359E+03  0.81447107977E+02 0.  0.
          5    1    3    3  501    0  0.36470348812E+02 -0.40141102880E+02 -0.73610745008E+03  0.73811764817E+03  0.47000000000E+01 0. -1.
        -13    1    4    4    0    0  0.34001600581E+02  0.36397147912E+02 -0.24658670092E+03  0.25156681476E+03  0.00000000000E+00 0.  1.
         14    1    4    4    0    0 -0.38712139159E+02  0.15566889935E+02 -0.11534098321E+03  0.12265602386E+03  0.00000000000E+00 0. -1.
         -5    1    5    5    0  502  0.53130848667E+02 -0.19626701310E+02 -0.42572577810E+02  0.71011329137E+02  0.47000000000E+01 0.  1.
         13    1    6    6    0    0 -0.31976775937E+01  0.26926102405E+02 -0.44871317034E+02  0.52427809654E+02  0.00000000000E+00 0. -1.
        -14    1    6    6    0    0 -0.81692981307E+02 -0.19122336061E+02 -0.40680499851E+02  0.93243283937E+02  0.00000000000E+00 0.  1.
</event>
<event>
12    1  0.8449700E-002  0.2119179E+03  0.7818608E-02  0.1140237E+00
         21   -1    0    0  501  502  0.00000000000E+00  0.00000000000E+00  0.10473026091E+04  0.10473026091E+04  0.00000000000E+00 0. -1.
         21   -1    0    0  502  503 -0.00000000000E+00 -0.00000000000E+00 -0.14253031156E+03  0.14253031156E+03  0.00000000000E+00 0. -1.
         -6    2    1    2    0  503  0.54346955763E+01 -0.12269363971E+03 -0.45814790702E+02  0.21591043035E+03  0.17156647035E+03 0.  0.
        -24    2    3    3    0    0 -0.32462060164E+02 -0.53308653582E+02 -0.90853804191E+02  0.12480036981E+03  0.58524530521E+02 0.  0.
          6    2    1    2  501    0 -0.54346955763E+01  0.12269363971E+03  0.95058708821E+03  0.97392249027E+03  0.17270188081E+03 0.  0.
         24    2    5    5    0    0 -0.45783415784E+02  0.29110963050E+02  0.63557055186E+03  0.64279827677E+03  0.79348149882E+02 0.  0.
          5    1    5    5  501    0  0.40348720208E+02  0.93582676662E+02  0.31501653635E+03  0.33112421350E+03  0.47000000000E+01 0. -1.
        -11    1    6    6    0    0  0.28729823311E+01 -0.22267148307E+02  0.23076478941E+03  0.23185441111E+03  0.00000000000E+00 0.  1.
         12    1    6    6    0    0 -0.48656398115E+02  0.51378111356E+02  0.40480576245E+03  0.41094386566E+03  0.00000000000E+00 0. -1.
         -5    1    3    3    0  503  0.37896755740E+02 -0.69384986130E+02  0.45039013488E+02  0.91110060542E+02  0.47000000000E+01 0.  1.
         13    1    4    4    0    0 -0.34346293865E+02 -0.13905364742E+02 -0.72222990389E+02  0.81173809888E+02  0.00000000000E+00 0. -1.
        -14    1    4    4    0    0  0.18842337011E+01 -0.39403288839E+02 -0.18630813801E+02  0.43626559925E+02  0.00000000000E+00 0.  1.
</event>
<event>
12    1  0.8449700E-002  0.2102458E+03  0.7818608E-02  0.1141778E+00
         21   -1    0    0  501  502  0.00000000000E+00  0.00000000000E+00  0.37098032183E+03  0.37098032183E+03  0.00000000000E+00 0.  1.
         21   -1    0    0  502  503 -0.00000000000E+00 -0.00000000000E+00 -0.12620315626E+03  0.12620315626E+03  0.00000000000E+00 0.  1.
         -6    2    1    2    0  503 -0.11420598577E+03  0.40374867366E+02  0.58441292402E+02  0.21624870233E+03  0.16933688170E+03 0.  0.
        -24    2    3    3    0    0 -0.91298844693E+02 -0.32557061927E+02  0.94648038380E+01  0.12533891268E+03  0.78897523388E+02 0.  0.
          6    2    1    2  501    0  0.11420598577E+03 -0.40374867366E+02  0.18633587317E+03  0.28093477575E+03  0.17184339817E+03 0.  0.
         24    2    5    5    0    0  0.10302545800E+03 -0.55105081110E+02  0.59066997048E+02  0.15224351642E+03  0.77706905695E+02 0.  0.
          5    1    5    5  501    0  0.11180527772E+02  0.14730213744E+02  0.12726887612E+03  0.12869125933E+03  0.47000000000E+01 0. -1.
        -11    1    6    6    0    0  0.73388224056E+02 -0.17215843670E+02 -0.87617399391E+00  0.75385571460E+02  0.00000000000E+00 0.  1.
         12    1    6    6    0    0  0.29637233942E+02 -0.37889237440E+02  0.59943171041E+02  0.76857944964E+02  0.00000000000E+00 0. -1.
         -5    1    3    3    0  503 -0.22907141078E+02  0.72931929293E+02  0.48976488564E+02  0.90909789653E+02  0.47000000000E+01 0.  1.
         11    1    4    4    0    0 -0.98360548559E+01 -0.65810707933E+01  0.34313775331E+02  0.36297295290E+02  0.00000000000E+00 0. -1.
        -12    1    4    4    0    0 -0.81462789837E+02 -0.25975991134E+02 -0.24848971493E+02  0.89041617391E+02  0.00000000000E+00 0.  1.
</event>
<event>
12    1  0.8449700E-002  0.1911138E+03  0.7818608E-02  0.1157702E+00
         21   -1    0    0  501  502  0.00000000000E+00  0.00000000000E+00  0.24470006477E+03  0.24470006477E+03  0.00000000000E+00 0. -1.
         21   -1    0    0  502  503 -0.00000000000E+00 -0.00000000000E+00 -0.14848462694E+03  0.14848462694E+03  0.00000000000E+00 0. -1.
         -6    2    1    2    0  503 -0.36185375557E+02 -0.73269662267E+02  0.44029810999E+02  0.19507405376E+03  0.17157341689E+03 0.  0.
        -24    2    3    3    0    0 -0.13333612501E+02  0.13334250324E+02 -0.22315755590E+02  0.83511224124E+02  0.78233906672E+02 0.  0.
          6    2    1    2  501    0  0.36185375557E+02  0.73269662267E+02  0.52185626835E+02  0.19811063795E+03  0.17276186040E+03 0.  0.
         24    2    5    5    0    0  0.30531379828E+02 -0.18902483930E+02 -0.90435460852E+01  0.87210801078E+02  0.78958654029E+02 0.  0.
          5    1    5    5  501    0  0.56539957291E+01  0.92172146198E+02  0.61229172920E+02  0.11089983687E+03  0.47000000000E+01 0. -1.
        -11    1    6    6    0    0  0.67120360409E+01 -0.17379263485E+02  0.33555731413E+02  0.38380689647E+02  0.00000000000E+00 0.  1.
         12    1    6    6    0    0  0.23819343787E+02 -0.15232204453E+01 -0.42599277499E+02  0.48830111431E+02  0.00000000000E+00 0. -1.
         -5    1    3    3    0  503 -0.22851763056E+02 -0.86603912592E+02  0.66345566588E+02  0.11156282964E+03  0.47000000000E+01 0.  1.
         11    1    4    4    0    0 -0.30116294547E+02 -0.21283660723E+02 -0.25610938730E+02  0.44898837331E+02  0.00000000000E+00 0. -1.
        -12    1    4    4    0    0  0.16782682046E+02  0.34617911048E+02  0.32951831403E+01  0.38612386794E+02  0.00000000000E+00 0.  1.
</event>
<event>
12    1  0.8449700E-002  0.2648580E+03  0.7818608E-02  0.1104314E+00
         21   -1    0    0  503  502  0.00000000000E+00  0.00000000000E+00  0.13778760986E+03  0.13778760986E+03  0.00000000000E+00 0. -1.
         21   -1    0    0  501  503 -0.00000000000E+00 -0.00000000000E+00 -0.62239555932E+03  0.62239555932E+03  0.00000000000E+00 0. -1.
          6    2    1    2  501    0 -0.19159950499E+03 -0.62342180763E+02 -0.40483415645E+03  0.48357222494E+03  0.17133150525E+03 0.  0.
         24    2    3    3    0    0 -0.30904348852E+02 -0.28484275015E+01 -0.89527697986E+02  0.12468130470E+03  0.81037193418E+02 0.  0.
         -6    2    1    2    0  502  0.19159950499E+03  0.62342180763E+02 -0.79773793003E+02  0.27661094424E+03  0.17190939069E+03 0.  0.
        -24    2    5    5    0    0  0.82982020822E+02 -0.25740530722E+02 -0.69850299167E+02  0.13633661423E+03  0.78485778227E+02 0.  0.
          5    1    3    3  501    0 -0.16069515614E+03 -0.59493753262E+02 -0.31530645846E+03  0.35889092024E+03  0.47000000000E+01 0. -1.
        -11    1    4    4    0    0 -0.51434960072E+02 -0.24386441939E+02 -0.55948432270E+02  0.79815291402E+02  0.00000000000E+00 0.  1.
         12    1    4    4    0    0  0.20530611220E+02  0.21538014438E+02 -0.33579265717E+02  0.44866013296E+02  0.00000000000E+00 0. -1.
         -5    1    5    5    0  502  0.10861748417E+03  0.88082711485E+02 -0.99234938361E+01  0.14027433001E+03  0.47000000000E+01 0.  1.
         11    1    6    6    0    0  0.95418287246E+02 -0.30132397739E+02 -0.48394815433E+02  0.11115155912E+03  0.00000000000E+00 0. -1.
        -12    1    6    6    0    0 -0.12436266424E+02  0.43918670172E+01 -0.21455483734E+02  0.25185055106E+02  0.00000000000E+00 0.  1.
</event>
<event>
12    1  0.8449700E-002  0.2328806E+03  0.7818608E-02  0.1124907E+00
         21   -1    0    0  503  502  0.00000000000E+00  0.00000000000E+00  0.82551587524E+02  0.82551587524E+02  0.00000000000E+00 0. -1.
         21   -1    0    0  501  503 -0.00000000000E+00 -0.00000000000E+00 -0.73079539392E+03  0.73079539392E+03  0.00000000000E+00 0. -1.
          6    2    1    2  501    0 -0.15245922770E+03  0.25013277195E+02 -0.45627342452E+03  0.51154237553E+03  0.17210660619E+03 0.  0.
         24    2    3    3    0    0 -0.18041565855E+03  0.96458320050E+01 -0.37133867209E+03  0.42069237516E+03  0.80292049422E+02 0.  0.
         -6    2    1    2    0  502  0.15245922770E+03 -0.25013277195E+02 -0.19197038187E+03  0.30180460591E+03  0.17425243896E+03 0.  0.
        -24    2    5    5    0    0  0.67965711483E+02 -0.28121549363E+01 -0.19521055325E+02  0.10843215612E+03  0.82153604464E+02 0.  0.
          5    1    3    3  501    0  0.27956430853E+02  0.15367445190E+02 -0.84934752429E+02  0.90850000373E+02  0.47000000000E+01 0. -1.
        -13    1    4    4    0    0 -0.45737405102E+02 -0.30929318352E+02 -0.13199408482E+03  0.14307680241E+03  0.00000000000E+00 0.  1.
         14    1    4    4    0    0 -0.13467825345E+03  0.40575150357E+02 -0.23934458727E+03  0.27761557275E+03  0.00000000000E+00 0. -1.
         -5    1    5    5    0  502  0.84493516215E+02 -0.22201122259E+02 -0.17244932655E+03  0.19337244979E+03  0.47000000000E+01 0.  1.
         11    1    6    6    0    0  0.42903116381E+02  0.35564583168E+02  0.58667507942E+01  0.56035129481E+02  0.00000000000E+00 0. -1.
        -12    1    6    6    0    0  0.25062595103E+02 -0.38376738104E+02 -0.25387806119E+02  0.52397026636E+02  0.00000000000E+00 0.  1.
</event>
<event>
12    1  0.8449700E-002  0.2677045E+03  0.7818608E-02  0.1102741E+00
         21   -1    0    0  501  502  0.00000000000E+00  0.00000000000E+00  0.28002357586E+03  0.28002357586E+03  0.00000000000E+00 0.  1.
         21   -1    0    0  502  503 -0.00000000000E+00 -0.00000000000E+00 -0.65766787177E+03  0.65766787177E+03  0.00000000000E+00 0.  1.
         -6    2    1    2    0  503 -0.20416702263E+03  0.20189802865E+02 -0.55581305204E+03  0.61692287049E+03  0.17197057319E+03 0.  0.
        -24    2    3    3    0    0 -0.11339319574E+03  0.26964648827E+02 -0.16905089282E+03  0.21956554516E+03  0.77754196876E+02 0.  0.
          6    2    1    2  501    0  0.20416702263E+03 -0.20189802865E+02  0.17816875614E+03  0.32076857714E+03  0.17045988719E+03 0.  0.
         24    2    5    5    0    0  0.18851055619E+03  0.21731459505E+02  0.96217475677E+02  0.22727729653E+03  0.79929223471E+02 0.  0.
          5    1    5    5  501    0  0.15656466448E+02 -0.41921262369E+02  0.81951280465E+02  0.93491280610E+02  0.47000000000E+01 0. -1.
        -13    1    6    6    0    0  0.16692052863E+03  0.29724916176E+02  0.10839283432E+03  0.20123379451E+03  0.00000000000E+00 0.  1.
         14    1    6    6    0    0  0.21590027557E+02 -0.79934566718E+01 -0.12175358641E+02  0.26043502020E+02  0.00000000000E+00 0. -1.
         -5    1    3    3    0  503 -0.90773826894E+02 -0.67748459625E+01 -0.38676215922E+03  0.39735732533E+03  0.47000000000E+01 0.  1.
         13    1    4    4    0    0 -0.22853798556E+02  0.20501897576E+02 -0.36809503755E+01  0.30922052136E+02  0.00000000000E+00 0. -1.
        -14    1    4    4    0    0 -0.90539397184E+02  0.64627512512E+01 -0.16536994245E+03  0.18864349302E+03  0.00000000000E+00 0.  1.
</event>
<event>
12    1  0.8449700E-002  0.1842894E+03  0.7818608E-02  0.1163901E+00
         21   -1    0    0  503  502  0.00000000000E+00  0.00000000000E+00  0.44073664899E+03  0.44073664899E+03  0.00000000000E+00 0. -1.
         21   -1    0    0  501  503 -0.00000000000E+00 -0.00000000000E+00 -0.78464865227E+02  0.78464865227E+02  0.00000000000E+00 0.  1.
          6    2    1    2  501    0 -0.27342944842E+02  0.58933280825E+02  0.22014153603E+03  0.28709735694E+03  0.17245819278E+03 0.  0.
         24    2    3    3    0    0 -0.31703488439E+02 -0.17443567696E+02  0.18086472743E+03  0.20097421821E+03  0.79807252330E+02 0.  0.
         -6    2    1    2    0  502  0.27342944842E+02 -0.58933280825E+02  0.14213024774E+03  0.23210415728E+03  0.17161166710E+03 0.  0.
        -24    2    5    5    0    0 -0.95868299567E+01  0.26562920246E+02  0.98397515032E+02  0.12910876625E+03  0.78673416836E+02 0.  0.
          5    1    3    3  501    0  0.43605435974E+01  0.76376848522E+02  0.39276808598E+02  0.86123138727E+02  0.47000000000E+01 0. -1.
        -11    1    4    4    0    0 -0.16460843375E+02 -0.16576017889E+02  0.43031105206E+01  0.23753746943E+02  0.00000000000E+00 0.  1.
         12    1    4    4    0    0 -0.15242645065E+02 -0.86754980715E+00  0.17656161691E+03  0.17722047127E+03  0.00000000000E+00 0. -1.
         -5    1    5    5    0  502  0.36929774799E+02 -0.85496201071E+02  0.43732732706E+02  0.10299539103E+03  0.47000000000E+01 0.  1.
         13    1    6    6    0    0 -0.43376092532E+02  0.15500429601E+02  0.69065924649E+02  0.83017170927E+02  0.00000000000E+00 0. -1.
        -14    1    6    6    0    0  0.33789262576E+02  0.11062490645E+02  0.29331590384E+02  0.46091595320E+02  0.00000000000E+00 0.  1.
</event>
<event>
12    1  0.8449700E-002  0.1907787E+03  0.7818608E-02  0.1157882E+00
         21   -1    0    0  503  502  0.00000000000E+00  0.00000000000E+00  0.12069810748E+03  0.12069810748E+03  0.00000000000E+00 0. -1.
         21   -1    0    0  501  503 -0.00000000000E+00 -0.00000000000E+00 -0.31710985308E+03  0.31710985308E+03  0.00000000000E+00 0. -1.
          6    2    1    2  501    0  0.63482671030E+02  0.47120413350E+02 -0.14813834468E+03  0.24153982501E+03  0.17362642375E+03 0.  0.
         24    2    3    3    0    0  0.77220814042E+02  0.80986530284E+02 -0.71274591924E+02  0.15630029816E+03  0.82630766316E+02 0.  0.
         -6    2    1    2    0  502 -0.63482671030E+02 -0.47120413350E+02 -0.48273400915E+02  0.19626813555E+03  0.17303316711E+03 0.  0.
        -24    2    5    5    0    0 -0.72227554204E+01 -0.89654636383E+02 -0.33099355697E+02  0.12397235503E+03  0.78634950515E+02 0.  0.
          5    1    3    3  501    0 -0.13738143012E+02 -0.33866116934E+02 -0.76863752761E+02  0.85239526852E+02  0.47000000000E+01 0. -1.
        -11    1    4    4    0    0  0.35952372349E+00  0.58901763802E+02 -0.25816128241E+02  0.64311892474E+02  0.00000000000E+00 0.  1.
         12    1    4    4    0    0  0.76861290319E+02  0.22084766482E+02 -0.45458463683E+02  0.91988405685E+02  0.00000000000E+00 0. -1.
         -5    1    5    5    0  502 -0.56259915610E+02  0.42534223032E+02 -0.15174045218E+02  0.72295780524E+02  0.47000000000E+01 0.  1.
         13    1    6    6    0    0 -0.38043004476E+02 -0.72185646624E+02 -0.11299046951E+02  0.82375398209E+02  0.00000000000E+00 0. -1.
        -14    1    6    6    0    0  0.30820249056E+02 -0.17468989758E+02 -0.21800308746E+02  0.41596956817E+02  0.00000000000E+00 0.  1.
</event>
<event>
12    1  0.8449700E-002  0.1914665E+03  0.7818608E-02  0.1159626E+00
         21   -1    0    0  503  502  0.00000000000E+00  0.00000000000E+00  0.34746721945E+03  0.34746721945E+03  0.00000000000E+00 0.  1.
         21   -1    0    0  501  503 -0.00000000000E+00 -0.00000000000E+00 -0.26732224128E+03  0.26732224128E+03  0.00000000000E+00 0.  1.
          6    2    1    2  501    0 -0.28110681571E+02 -0.59776635390E+02 -0.20377127527E+03  0.27234549956E+03  0.16818407162E+03 0.  0.
         24    2    3    3    0    0  0.30447233225E+02 -0.66400390736E+02 -0.17714978173E+03  0.20750957249E+03  0.79637501267E+02 0.  0.
         -6    2    1    2    0  502  0.28110681571E+02  0.59776635390E+02  0.28391625344E+03  0.34244396117E+03  0.17971079829E+03 0.  0.
        -24    2    5    5    0    0  0.70253187158E+02  0.30411604940E+01  0.23145953388E+03  0.25430371885E+03  0.78435365984E+02 0.  0.
          5    1    3    3  501    0 -0.58557914796E+02  0.66237553454E+01 -0.26621493543E+02  0.64835927066E+02  0.47000000000E+01 0. -1.
        -13    1    4    4    0    0  0.16054415878E+02 -0.67660059819E+02 -0.67498859671E+02  0.96910907646E+02  0.00000000000E+00 0.  1.
         14    1    4    4    0    0  0.14392817346E+02  0.12596690831E+01 -0.10965092206E+03  0.11059866485E+03  0.00000000000E+00 0. -1.
         -5    1    5    5    0  502 -0.42142505587E+02  0.56735474896E+02  0.52456719557E+02  0.88140242316E+02  0.47000000000E+01 0.  1.
         13    1    6    6    0    0  0.25924936677E+02 -0.26028069108E+02  0.34718472932E+02  0.50546365704E+02  0.00000000000E+00 0. -1.
        -14    1    6    6    0    0  0.44328250481E+02  0.29069229602E+02  0.19674106095E+03  0.20375735315E+03  0.00000000000E+00 0.  1.
</event>
<event>
12    1  0.8449700E-002  0.2260510E+03  0.7818608E-02  0.1129564E+00
         21   -1    0    0  501  502  0.00000000000E+00  0.00000000000E+00  0.63576066293E+03  0.63576066293E+03  0.00000000000E+00 0. -1.
         21   -1    0    0  502  503 -0.00000000000E+00 -0.00000000000E+00 -0.61085456247E+03  0.61085456247E+03  0.00000000000E+00 0. -1.
         -6    2    1    2    0  503  0.91738451949E+02  0.11299062031E+03 -0.56852712717E+03  0.61158606371E+03  0.17213830240E+03 0.  0.
        -24    2    3    3    0    0  0.26738100906E+02  0.13198763622E+03 -0.42366288200E+03  0.45160584063E+03  0.79510600238E+02 0.  0.
          6    2    1    2  501    0 -0.91738451949E+02 -0.11299062031E+03  0.59343322763E+03  0.63502916169E+03  0.17296305008E+03 0.  0.
         24    2    5    5    0    0 -0.26438868480E+02 -0.10617637541E+03  0.24270176931E+03  0.27817468800E+03  0.80650925324E+02 0.  0.
          5    1    5    5  501    0 -0.65299583469E+02 -0.68142449033E+01  0.35073145832E+03  0.35685447369E+03  0.47000000000E+01 0. -1.
        -11    1    6    6    0    0  0.63837005630E+01 -0.21891610600E+01  0.91529852166E+02  0.91778308421E+02  0.00000000000E+00 0.  1.
         12    1    6    6    0    0 -0.32822569043E+02 -0.10398721435E+03  0.15117191714E+03  0.18639637958E+03  0.00000000000E+00 0. -1.
         -5    1    3    3    0  503  0.65000351043E+02 -0.18997015903E+02 -0.14486424517E+03  0.15998022308E+03  0.47000000000E+01 0.  1.
         11    1    4    4    0    0  0.34710909535E+02  0.89942818090E+02 -0.37314746416E+03  0.38540055497E+03  0.00000000000E+00 0. -1.
        -12    1    4    4    0    0 -0.79728086296E+01  0.42044818127E+02 -0.50515417845E+02  0.66205285656E+02  0.00000000000E+00 0.  1.
</event>
<event>
12    1  0.8449700E-002  0.1814334E+03  0.7818608E-02  0.1167099E+00
         21   -1    0    0  503  502  0.00000000000E+00  0.00000000000E+00  0.26628907931E+03  0.26628907931E+03  0.00000000000E+00 0.  1.
         21   -1    0    0  501  503 -0.00000000000E+00 -0.00000000000E+00 -0.12420912937E+03  0.12420912937E+03  0.00000000000E+00 0. -1.
          6    2    1    2  501    0 -0.29729930525E+02  0.29764284814E+02  0.42853502283E+02  0.18370373694E+03  0.17361122915E+03 0.  0.
         24    2    3    3    0    0 -0.12074650847E+01  0.82456049189E+02  0.44667443407E+02  0.12357609396E+03  0.80469947666E+02 0.  0.
         -6    2    1    2    0  502  0.29729930525E+02 -0.29764284814E+02  0.99226447651E+02  0.20679447174E+03  0.17648876511E+03 0.  0.
        -24    2    5    5    0    0  0.13701304099E+02 -0.17237502820E+02 -0.20975570822E+02  0.84792617752E+02  0.79151476401E+02 0.  0.
          5    1    3    3  501    0 -0.28522465441E+02 -0.52691764375E+02 -0.18139411235E+01  0.60127642979E+02  0.47000000000E+01 0. -1.
        -11    1    4    4    0    0  0.25131737907E+02  0.14923537009E+02  0.41834280915E+02  0.51033550403E+02  0.00000000000E+00 0.  1.
         12    1    4    4    0    0 -0.26339202991E+02  0.67532512180E+02  0.28331624919E+01  0.72542543554E+02  0.00000000000E+00 0. -1.
         -5    1    5    5    0  502  0.16028626426E+02 -0.12526781994E+02  0.12020201847E+03  0.12200185399E+03  0.47000000000E+01 0.  1.
         11    1    6    6    0    0  0.94496079923E+01 -0.48547614457E+02 -0.59850366009E+01  0.49819540582E+02  0.00000000000E+00 0. -1.
        -12    1    6    6    0    0  0.42516961067E+01  0.31310111637E+02 -0.14990534221E+02  0.34973077170E+02  0.00000000000E+00 0.  1.
</event>
<event>
12    1  0.8449700E-002  0.1801011E+03  0.7818608E-02  0.1168496E+00
         21   -1    0    0  501  502  0.00000000000E+00  0.00000000000E+00  0.23157758752E+03  0.23157758752E+03  0.00000000000E+00 0. -1.
         21   -1    0    0  502  503 -0.00000000000E+00 -0.00000000000E+00 -0.14907554532E+03  0.14907554532E+03  0.00000000000E+00 0. -1.
         -6    2    1    2    0  503 -0.21605532246E+02 -0.37323373239E+02 -0.11298159230E+02  0.18045517676E+03  0.17486162873E+03 0.  0.
        -24    2    3    3    0    0  0.41455060553E+02 -0.47756670534E+02 -0.37789087426E+02  0.11110568986E+03  0.83169931854E+02 0.  0.
          6    2    1    2  501    0  0.21605532246E+02  0.37323373239E+02  0.93800201428E+02  0.20019795608E+03  0.17152524775E+03 0.  0.
         24    2    5    5    0    0 -0.43473871074E+02 -0.67629077912E+01  0.20954129329E+02  0.92924617676E+02  0.79121391838E+02 0.  0.
          5    1    5    5  501    0  0.65079403320E+02  0.44086281031E+02  0.72846072099E+02  0.10727333840E+03  0.47000000000E+01 0. -1.
        -13    1    6    6    0    0 -0.98474583095E+01 -0.26055547905E+00 -0.29974001894E+02  0.31551245837E+02  0.00000000000E+00 0.  1.
         14    1    6    6    0    0 -0.33626412765E+02 -0.65023523122E+01  0.50928131223E+02  0.61373371839E+02  0.00000000000E+00 0. -1.
         -5    1    3    3    0  503 -0.63060592799E+02  0.10433297295E+02  0.26490928196E+02  0.69349486900E+02  0.47000000000E+01 0.  1.
         11    1    4    4    0    0  0.61022231521E+02 -0.99453943699E+01 -0.20234104729E+02  0.65054151313E+02  0.00000000000E+00 0. -1.
        -12    1    4    4    0    0 -0.19567170968E+02 -0.37811276164E+02 -0.17554982697E+02  0.46051538545E+02  0.00000000000E+00 0.  1.
</event>
<event>
12    1  0.8449700E-002  0.2019409E+03  0.7818608E-02  0.1148243E+00
         21   -1    0    0  503  502  0.00000000000E+00  0.00000000000E+00  0.27845866183E+03  0.27845866183E+03  0.00000000000E+00 0. -1.
         21   -1    0    0  501  503 -0.00000000000E+00 -0.00000000000E+00 -0.18204271685E+03  0.18204271685E+03  0.00000000000E+00 0.  1.
          6    2    1    2  501    0  0.69470803924E+02 -0.78871444491E+02 -0.54312064285E+02  0.20851116391E+03  0.17169801337E+03 0.  0.
         24    2    3    3    0    0  0.10937226951E+03 -0.77456636632E+02 -0.61340932854E+02  0.16769911139E+03  0.79990362060E+02 0.  0.
         -6    2    1    2    0  502 -0.69470803924E+02  0.78871444491E+02  0.15072800926E+03  0.25199021477E+03  0.17243328626E+03 0.  0.
        -24    2    5    5    0    0 -0.29894566120E+02  0.74331874026E+02  0.17221970495E+03  0.20648340998E+03  0.80974435748E+02 0.  0.
          5    1    3    3  501    0 -0.39901465586E+02 -0.14148078591E+01  0.70288685691E+01  0.40812052515E+02  0.47000000000E+01 0. -1.
        -11    1    4    4    0    0  0.10761869686E+03 -0.34606638988E+02 -0.47682631386E+02  0.12269081756E+03  0.00000000000E+00 0.  1.
         12    1    4    4    0    0  0.17535726463E+01 -0.42849997644E+02 -0.13658301468E+02  0.45008293837E+02  0.00000000000E+00 0. -1.
         -5    1    5    5    0  502 -0.39576237804E+02  0.45395704657E+01 -0.21491695688E+02  0.45506804791E+02  0.47000000000E+01 0.  1.
         13    1    6    6    0    0 -0.11763948281E+02  0.76394994473E+02  0.75474440167E+02  0.10803229507E+03  0.00000000000E+00 0. -1.
        -14    1    6    6    0    0 -0.18130617839E+02 -0.20631204473E+01  0.96745264783E+02  0.98451114910E+02  0.00000000000E+00 0.  1.
</event>
<event>
12    1  0.8449700E-002  0.1838412E+03  0.7818608E-02  0.1164351E+00
         21   -1    0    0  501  502  0.00000000000E+00  0.00000000000E+00  0.68705507239E+03  0.68705507239E+03  0.00000000000E+00 0.  1.
         21   -1    0    0  502  503 -0.00000000000E+00 -0.00000000000E+00 -0.22450909933E+03  0.22450909933E+03  0.00000000000E+00 0. -1.
         -6    2    1    2    0  503  0.47781208289E+02  0.38252761953E+02 -0.17164653412E+03  0.25151563722E+03  0.17335300813E+03 0.  0.
        -24    2    3    3    0    0  0.93034576840E+02 -0.38059768918E-01 -0.12528386736E+03  0.17611244589E+03  0.81634013988E+02 0.  0.
          6    2    1    2  501    0 -0.47781208289E+02 -0.38252761953E+02  0.63419250718E+03  0.66004853451E+03  0.17238797544E+03 0.  0.
         24    2    5    5    0    0 -0.72990282247E+02 -0.60863006167E+02  0.59569071294E+03  0.60855874219E+03  0.80401681494E+02 0.  0.
          5    1    5    5  501    0  0.25209073959E+02  0.22610244214E+02  0.38501794239E+02  0.51489792318E+02  0.47000000000E+01 0. -1.
        -11    1    6    6    0    0 -0.70323345225E+02 -0.28040376119E+02  0.24765102611E+03  0.25896460436E+03  0.00000000000E+00 0.  1.
         12    1    6    6    0    0 -0.26669370228E+01 -0.32822630048E+02  0.34803968683E+03  0.34959413783E+03  0.00000000000E+00 0. -1.
         -5    1    3    3    0  503 -0.45253368551E+02  0.38290821722E+02 -0.46362666757E+02  0.75403191326E+02  0.47000000000E+01 0.  1.
         13    1    4    4    0    0  0.58353213519E+02  0.20155173348E+02 -0.12088926715E+03  0.13574072142E+03  0.00000000000E+00 0. -1.
        -14    1    4    4    0    0  0.34681363321E+02 -0.20193233117E+02 -0.43946002147E+01  0.40371724469E+02  0.00000000000E+00 0.  1.
</event>
<event>
12    1  0.8449700E-002  0.1741717E+03  0.7818608E-02  0.1174083E+00
         21   -1    0    0  503  502  0.00000000000E+00  0.00000000000E+00  0.55722743906E+03  0.55722743906E+03  0.00000000000E+00 0.  1.
         21   -1    0    0  501  503 -0.00000000000E+00 -0.00000000000E+00 -0.10073301313E+03  0.10073301313E+03  0.00000000000E+00 0.  1.
          6    2    1    2  501    0 -0.22925009526E+02 -0.98441033064E+01  0.29958385335E+01  0.17216548491E+03  0.17032180340E+03 0.  0.
         24    2    3    3    0    0 -0.45413372318E+02  0.47212490462E+02  0.21063892557E+02  0.10805834077E+03  0.83315807621E+02 0.  0.
         -6    2    1    2    0  502  0.22925009526E+02  0.98441033064E+01  0.45349858739E+03  0.48579496728E+03  0.17237551751E+03 0.  0.
        -24    2    5    5    0    0  0.16053271735E+02 -0.40725190753E+02  0.13048622003E+03  0.15874213707E+03  0.79095914987E+02 0.  0.
          5    1    3    3  501    0  0.22488362792E+02 -0.57056593768E+02 -0.18068054024E+02  0.64107144139E+02  0.47000000000E+01 0. -1.
        -13    1    4    4    0    0 -0.30372099644E+02  0.13053458143E+02 -0.30112548378E+02  0.44717141860E+02  0.00000000000E+00 0.  1.
         14    1    4    4    0    0 -0.15041272673E+02  0.34159032318E+02  0.51176440935E+02  0.63341198910E+02  0.00000000000E+00 0. -1.
         -5    1    5    5    0  502  0.68717377910E+01  0.50569294059E+02  0.32301236736E+03  0.32705283021E+03  0.47000000000E+01 0.  1.
         13    1    6    6    0    0  0.32616729265E+02 -0.27741794603E+02  0.21822432083E+02  0.48059096306E+02  0.00000000000E+00 0. -1.
        -14    1    6    6    0    0 -0.16563457530E+02 -0.12983396150E+02  0.10866378795E+03  0.11068304076E+03  0.00000000000E+00 0.  1.
</event>
<event>
12    1  0.8449700E-002  0.1762065E+03  0.7818608E-02  0.1172196E+00
         21   -1    0    0  503  502  0.00000000000E+00  0.00000000000E+00  0.27279801441E+03  0.27279801441E+03  0.00000000000E+00 0. -1.
         21   -1    0    0  501  503 -0.00000000000E+00 -0.00000000000E+00 -0.14478132329E+03  0.14478132329E+03  0.00000000000E+00 0. -1.
          6    2    1    2  501    0 -0.68014527558E+01  0.28440497946E+02 -0.34813535521E+02  0.17961268538E+03  0.17376309392E+03 0.  0.
         24    2    3    3    0    0 -0.64649247135E+02 -0.97705938786E+01 -0.39528015885E+02  0.10996520747E+03  0.79087882480E+02 0.  0.
         -6    2    1    2    0  502  0.68014527558E+01 -0.28440497946E+02  0.16283022665E+03  0.23796665232E+03  0.17105356829E+03 0.  0.
        -24    2    5    5    0    0 -0.60825829778E+01  0.34219479433E+02  0.38995007634E+02  0.98505107050E+02  0.83514519134E+02 0.  0.
          5    1    3    3  501    0  0.57847794379E+02  0.38211091825E+02  0.47144803641E+01  0.69647477902E+02  0.47000000000E+01 0. -1.
        -11    1    4    4    0    0 -0.13294483437E+02  0.29599279156E+02  0.29149614012E+01  0.32578483948E+02  0.00000000000E+00 0.  1.
         12    1    4    4    0    0 -0.51354763698E+02 -0.39369873034E+02 -0.42442977287E+02  0.77386723527E+02  0.00000000000E+00 0. -1.
         -5    1    5    5    0  502  0.12884035734E+02 -0.62659977379E+02  0.12383521901E+03  0.13946154527E+03  0.47000000000E+01 0.  1.
         13    1    6    6    0    0 -0.12725681120E+02  0.30439295609E+02  0.64192111468E+02  0.72174239531E+02  0.00000000000E+00 0. -1.
        -14    1    6    6    0    0  0.66430981417E+01  0.37801838235E+01 -0.25197103834E+02  0.26330867519E+02  0.00000000000E+00 0.  1.
</event>
<event>
12    1  0.8449700E-002  0.2372689E+03  0.7818608E-02  0.1121686E+00
         21   -1    0    0  503  502  0.00000000000E+00  0.00000000000E+00  0.19294497836E+03  0.19294497836E+03  0.00000000000E+00 0.  1.
         21   -1    0    0  501  503 -0.00000000000E+00 -0.00000000000E+00 -0.29797608829E+03  0.29797608829E+03  0.00000000000E+00 0.  1.
          6    2    1    2  501    0 -0.60339092998E+02  0.15098839025E+03 -0.15916865922E+02  0.23780220763E+03  0.17279537957E+03 0.  0.
         24    2    3    3    0    0 -0.97606927923E+02  0.15488445736E+03 -0.14155726067E+02  0.19999661978E+03  0.79258790262E+02 0.  0.
         -6    2    1    2    0  502  0.60339092998E+02 -0.15098839025E+03 -0.89114244006E+02  0.25311885902E+03  0.17230643684E+03 0.  0.
        -24    2    5    5    0    0  0.52274502350E+02 -0.16785578163E+03 -0.35969484506E+02  0.19658566544E+03  0.80274111765E+02 0.  0.
          5    1    3    3  501    0  0.37267834926E+02 -0.38960671116E+01 -0.17611398553E+01  0.37805587849E+02  0.47000000000E+01 0. -1.
        -13    1    4    4    0    0 -0.66168068063E+01  0.93936545202E+01 -0.25553457294E+02  0.28017888165E+02  0.00000000000E+00 0.  1.
         14    1    4    4    0    0 -0.90990121117E+02  0.14549080284E+03  0.11397731227E+02  0.17197873162E+03  0.00000000000E+00 0. -1.
         -5    1    5    5    0  502  0.80645906479E+01  0.16867391382E+02 -0.53144759500E+02  0.56533193583E+02  0.47000000000E+01 0.  1.
         13    1    6    6    0    0 -0.85617028700E+01 -0.81679996955E+01 -0.22189323345E+02  0.25147267159E+02  0.00000000000E+00 0. -1.
        -14    1    6    6    0    0  0.60836205220E+02 -0.15968778193E+03 -0.13780161161E+02  0.17143839828E+03  0.00000000000E+00 0.  1.
</event>
<event>
12    1  0.8449700E-002  0.3006107E+03  0.7818608E-02  0.1085097E+00
         21   -1    0    0  503  502  0.00000000000E+00  0.00000000000E+00  0.10439388795E+04  0.10439388795E+04  0.00000000000E+00 0.  1.
         21   -1    0    0  501  503 -0.00000000000E+00 -0.00000000000E+00 -0.21274630656E+03  0.21274630656E+03  0.00000000000E+00 0.  1.
          6    2    1    2  501    0 -0.32428637167E+01  0.24641993847E+03 -0.69390580368E+02  0.30725545526E+03  0.16987513033E+03 0.  0.
         24    2    3    3    0    0  0.10976853637E+01  0.24722331412E+03 -0.24048727278E+02  0.26145742670E+03  0.81615395200E+02 0.  0.
         -6    2    1    2    0  502  0.32428637167E+01 -0.24641993847E+03  0.90058315330E+03  0.94942973079E+03  0.17214382204E+03 0.  0.
        -24    2    5    5    0    0 -0.34457679545E+02 -0.88886538886E+02  0.25332062043E+03  0.28218990928E+03  0.79822676562E+02 0.  0.
          5    1    3    3  501    0 -0.43405490804E+01 -0.80337565105E+00 -0.45341853091E+02  0.45798028565E+02  0.47000000000E+01 0. -1.
        -13    1    4    4    0    0 -0.17316043012E+02  0.80355388507E+02 -0.42550547173E+02  0.92560158127E+02  0.00000000000E+00 0.  1.
         14    1    4    4    0    0  0.18413728375E+02  0.16686792561E+03  0.18501819896E+02  0.16889726857E+03  0.00000000000E+00 0. -1.
         -5    1    5    5    0  502  0.37700543261E+02 -0.15753339958E+03  0.64726253287E+03  0.66723982151E+03  0.47000000000E+01 0.  1.
         11    1    6    6    0    0 -0.23377020550E+02 -0.92157156929E+02  0.25338639446E+03  0.27063645645E+03  0.00000000000E+00 0. -1.
        -12    1    6    6    0    0 -0.11080658995E+02  0.32706180428E+01 -0.65774032959E-01  0.11553452833E+02  0.00000000000E+00 0.  1.
</event>
<event>
12    1  0.8449700E-002  0.1987024E+03  0.7818608E-02  0.1151371E+00
         21   -1    0    0  501  502  0.00000000000E+00  0.00000000000E+00  0.24948752095E+03  0.24948752095E+03  0.00000000000E+00 0.  1.
         21   -1    0    0  502  503 -0.00000000000E+00 -0.00000000000E+00 -0.17839418870E+03  0.17839418870E+03  0.00000000000E+00 0.  1.
         -6    2    1    2    0  503  0.41089902081E+02  0.89560747333E+02  0.11106691863E+03  0.22763678088E+03  0.17254893822E+03 0.  0.
        -24    2    3    3    0    0  0.40244819233E+02  0.10503914453E+02  0.11354434373E+03  0.14839711515E+03  0.86019812252E+02 0.  0.
          6    2    1    2  501    0 -0.41089902081E+02 -0.89560747333E+02 -0.39973586380E+02  0.20024492877E+03  0.16967803739E+03 0.  0.
         24    2    5    5    0    0 -0.52739383301E+02 -0.12502127871E+03 -0.40904505768E+02  0.16261360792E+03  0.79738599228E+02 0.  0.
          5    1    5    5  501    0  0.11649481220E+02  0.35460531375E+02  0.93091938837E+00  0.37631320851E+02  0.47000000000E+01 0. -1.
        -11    1    6    6    0    0 -0.73133986786E+02 -0.94391973193E+02 -0.39559516200E+02  0.12579101696E+03  0.00000000000E+00 0.  1.
         12    1    6    6    0    0  0.20394603485E+02 -0.30629305515E+02 -0.13449895683E+01  0.36822590955E+02  0.00000000000E+00 0. -1.
         -5    1    3    3    0  503  0.84508284754E+00  0.79056832880E+02 -0.24774250911E+01  0.79239665730E+02  0.47000000000E+01 0.  1.
         13    1    4    4    0    0 -0.12701178798E+02  0.33957161173E+02  0.31832392477E+02  0.48246346479E+02  0.00000000000E+00 0. -1.
        -14    1    4    4    0    0  0.52945998031E+02 -0.23453246720E+02  0.81711951249E+02  0.10015076867E+03  0.00000000000E+00 0.  1.
</event>
<event>
12    1  0.8449700E-002  0.1715337E+03  0.7818608E-02  0.1176712E+00
         21   -1    0    0  503  502  0.00000000000E+00  0.00000000000E+00  0.14864813306E+04  0.14864813306E+04  0.00000000000E+00 0. -1.
         21   -1    0    0  501  503 -0.00000000000E+00 -0.00000000000E+00 -0.20871718058E+02  0.20871718058E+02  0.00000000000E+00 0. -1.
          6    2    1    2  501    0 -0.42481146539E+01  0.91366482568E+01  0.92292968955E+03  0.93873480281E+03  0.17123753487E+03 0.  0.
         24    2    3    3    0    0  0.37153840212E+02 -0.20389937178E+02  0.29490744653E+03  0.30863959665E+03  0.80571962973E+02 0.  0.
         -6    2    1    2    0  502  0.42481146539E+01 -0.91366482568E+01  0.54267992304E+03  0.56861824589E+03  0.16948063567E+03 0.  0.
        -24    2    5    5    0    0  0.52834606522E+02 -0.23940203715E+01  0.46930529190E+03  0.48023251900E+03  0.87055087852E+02 0.  0.
          5    1    3    3  501    0 -0.41401954865E+02  0.29526585434E+02  0.62802224302E+03  0.63009520617E+03  0.47000000000E+01 0. -1.
        -13    1    4    4    0    0  0.18379643467E+02 -0.27757904446E+02  0.28354140496E+03  0.28548912568E+03  0.00000000000E+00 0.  1.
         14    1    4    4    0    0  0.18774196744E+02  0.73679672683E+01  0.11366041572E+02  0.23150470969E+02  0.00000000000E+00 0. -1.
         -5    1    5    5    0  502 -0.48586491868E+02 -0.67426278853E+01  0.73374631148E+02  0.88385726896E+02  0.47000000000E+01 0.  1.
         13    1    6    6    0    0  0.49613190490E+02 -0.14079715074E+02  0.46423895326E+03  0.46709475781E+03  0.00000000000E+00 0. -1.
        -14    1    6    6    0    0  0.32214160320E+01  0.11685694702E+02  0.50663386373E+01  0.13137761191E+02  0.00000000000E+00 0.  1.
</event>
<event>
12    1  0.8449700E-002  0.1914119E+03  0.7818608E-02  0.1157547E+00
         21   -1    0    0  503  502  0.00000000000E+00  0.00000000000E+00  0.55055507160E+02  0.55055507160E+02  0.00000000000E+00 0.  1.
         21   -1    0    0  501  503 -0.00000000000E+00 -0.00000000000E+00 -0.66926292983E+03  0.66926292983E+03  0.00000000000E+00 0.  1.
          6    2    1    2  501    0  0.60217570067E+02 -0.56414468910E+02 -0.35090836504E+03  0.39971889741E+03  0.17271296488E+03 0.  0.
         24    2    3    3    0    0  0.39422957933E+02  0.32832410058E+02 -0.22221627886E+03  0.24166458919E+03  0.79934737852E+02 0.  0.
         -6    2    1    2    0  502 -0.60217570067E+02  0.56414468910E+02 -0.26329905763E+03  0.32459953959E+03  0.17096701233E+03 0.  0.
        -24    2    5    5    0    0 -0.26756034193E+02  0.14909841508E+02 -0.25991498617E+03  0.27097258351E+03  0.70229283327E+02 0.  0.
          5    1    3    3  501    0  0.20794612134E+02 -0.89246878968E+02 -0.12869208618E+03  0.15805430821E+03  0.47000000000E+01 0. -1.
        -13    1    4    4    0    0 -0.96878245191E+01 -0.15129218961E+02 -0.15097624438E+02  0.23466688602E+02  0.00000000000E+00 0.  1.
         14    1    4    4    0    0  0.49110782452E+02  0.47961629019E+02 -0.20711865442E+03  0.21819790059E+03  0.00000000000E+00 0. -1.
         -5    1    5    5    0  502 -0.33461535874E+02  0.41504627402E+02 -0.33840714598E+01  0.53626956080E+02  0.47000000000E+01 0.  1.
         13    1    6    6    0    0 -0.31867678099E+02  0.10435109505E+02 -0.45870271707E+02  0.56820086627E+02  0.00000000000E+00 0. -1.
        -14    1    6    6    0    0  0.51116439063E+01  0.44747320030E+01 -0.21404471447E+03  0.21415249688E+03  0.00000000000E+00 0.  1.
</event>
<event>
12    1  0.8449700E-002  0.2718908E+03  0.7818608E-02  0.1100549E+00
         21   -1    0    0  503  502  0.00000000000E+00  0.00000000000E+00  0.13647236061E+03  0.13647236061E+03  0.00000000000E+00 0.  1.
         21   -1    0    0  501  503 -0.00000000000E+00 -0.00000000000E+00 -0.57963217778E+03  0.57963217778E+03  0.00000000000E+00 0. -1.
          6    2    1    2  501    0 -0.23792664172E+02 -0.20868210203E+03 -0.31793079255E+03  0.41676037068E+03  0.16880434573E+03 0.  0.
         24    2    3    3    0    0 -0.44052847318E+02 -0.49657866223E+02 -0.81052597251E+02  0.13069647571E+03  0.78137623507E+02 0.  0.
         -6    2    1    2    0  502  0.23792664172E+02  0.20868210203E+03 -0.12522902462E+03  0.29934416772E+03  0.17265662907E+03 0.  0.
        -24    2    5    5    0    0 -0.13344262289E+02  0.32474278862E+02 -0.71551373735E+02  0.11137680763E+03  0.77798110973E+02 0.  0.
          5    1    3    3  501    0  0.20260183145E+02 -0.15902423581E+03 -0.23687819530E+03  0.28606389497E+03  0.47000000000E+01 0. -1.
        -13    1    4    4    0    0  0.15628434109E+01 -0.52982346883E+02 -0.25742873505E+02  0.58925945873E+02  0.00000000000E+00 0.  1.
         14    1    4    4    0    0 -0.45615690729E+02  0.33244806595E+01 -0.55309723746E+02  0.71770529837E+02  0.00000000000E+00 0. -1.
         -5    1    5    5    0  502  0.37136926462E+02  0.17620782317E+03 -0.53677650889E+02  0.18796736009E+03  0.47000000000E+01 0.  1.
         11    1    6    6    0    0 -0.38332419163E+02  0.34962123194E+02 -0.23074015972E+02  0.56781463791E+02  0.00000000000E+00 0. -1.
        -12    1    6    6    0    0  0.24988156874E+02 -0.24878443321E+01 -0.48477357763E+02  0.54595343840E+02  0.00000000000E+00 0.  1.
</event>
<event>
12    1  0.8449700E-002  0.1793233E+03  0.7818608E-02  0.1169148E+00
         21   -1    0    0  503  502  0.00000000000E+00  0.00000000000E+00  0.67892876644E+02  0.67892876644E+02  0.00000000000E+00 0. -1.
         21   -1    0    0  501  503 -0.00000000000E+00 -0.00000000000E+00 -0.92589073315E+03  0.92589073315E+03  0.00000000000E+00 0. -1.
          6    2    1    2  501    0 -0.25579658571E+02  0.26320705046E+02 -0.77738597672E+03  0.79717451773E+03  0.17265907583E+03 0.  0.
         24    2    3    3    0    0  0.37387135785E+02 -0.26232930485E+02 -0.38394080519E+03  0.39524430637E+03  0.81985091729E+02 0.  0.
         -6    2    1    2    0  502  0.25579658571E+02 -0.26320705046E+02 -0.80611879779E+02  0.19660909206E+03  0.17552709612E+03 0.  0.
        -24    2    5    5    0    0  0.40512408466E+02 -0.30524604739E+02  0.18045210637E+02  0.96629237684E+02  0.80240720424E+02 0.  0.
          5    1    3    3  501    0 -0.62966794356E+02  0.52553635531E+02 -0.39344517154E+03  0.40193021136E+03  0.47000000000E+01 0. -1.
        -11    1    4    4    0    0  0.25412099078E+02 -0.80920257864E+01 -0.36624606601E+03  0.36721579014E+03  0.00000000000E+00 0.  1.
         12    1    4    4    0    0  0.11975036707E+02 -0.18140904698E+02 -0.17694739175E+02  0.28028516227E+02  0.00000000000E+00 0. -1.
         -5    1    5    5    0  502 -0.14932749895E+02  0.42038996924E+01 -0.98657090416E+02  0.99979854378E+02  0.47000000000E+01 0.  1.
         13    1    6    6    0    0  0.62790091065E+02 -0.35435462334E+02  0.14505718439E+02  0.73543751565E+02  0.00000000000E+00 0. -1.
        -14    1    6    6    0    0 -0.22277682599E+02  0.49108575953E+01  0.35394921982E+01  0.23085486119E+02  0.00000000000E+00 0.  1.
</event>
<event>
12    1  0.8449700E-002  0.2189801E+03  0.7818608E-02  0.1135672E+00
         21   -1    0    0  503  502  0.00000000000E+00  0.00000000000E+00  0.59703922606E+03  0.59703922606E+03  0.00000000000E+00 0.  1.
         21   -1    0    0  501  503 -0.00000000000E+00 -0.00000000000E+00 -0.11501760283E+03  0.11501760283E+03  0.00000000000E+00 0.  1.
          6    2    1    2  501    0 -0.12340932718E+03 -0.31148622654E+02  0.42043439289E+02  0.22297965745E+03  0.17819140866E+03 0.  0.
         24    2    3    3    0    0 -0.31420630182E+02  0.43375337986E+02  0.35809573305E+02  0.10433442084E+03  0.82065034487E+02 0.  0.
         -6    2    1    2    0  502  0.12340932718E+03  0.31148622654E+02  0.43997818395E+03  0.48907717144E+03  0.17150970392E+03 0.  0.
        -24    2    5    5    0    0 -0.21749737102E+01  0.71307579325E+01  0.13128222793E+03  0.15491619568E+03  0.81904982108E+02 0.  0.
          5    1    3    3  501    0 -0.91988697002E+02 -0.74523960640E+02  0.62338659833E+01  0.11864523661E+03  0.47000000000E+01 0. -1.
        -13    1    4    4    0    0 -0.36960579600E+02  0.63594205019E+02  0.15549779208E+02  0.75180469470E+02  0.00000000000E+00 0.  1.
         14    1    4    4    0    0  0.55399494186E+01 -0.20218867033E+02  0.20259794097E+02  0.29153951370E+02  0.00000000000E+00 0. -1.
         -5    1    5    5    0  502  0.12558430089E+03  0.24017864722E+02  0.30869595602E+03  0.33416097576E+03  0.47000000000E+01 0.  1.
         11    1    6    6    0    0  0.14680956458E+02  0.62076054969E+01 -0.56772456580E+01  0.16920282704E+02  0.00000000000E+00 0. -1.
        -12    1    6    6    0    0 -0.16855930168E+02  0.92315243563E+00  0.13695947359E+03  0.13799591298E+03  0.00000000000E+00 0.  1.
</event>
<event>
12    1  0.8449700E-002  0.1823711E+03  0.7818608E-02  0.1165569E+00
         21   -1    0    0  501  502  0.00000000000E+00  0.00000000000E+00  0.57477748195E+03  0.57477748195E+03  0.00000000000E+00 0.  1.
         21   -1    0    0  502  503 -0.00000000000E+00 -0.00000000000E+00 -0.61179814606E+02  0.61179814606E+02  0.00000000000E+00 0. -1.
         -6    2    1    2    0  503  0.27779378960E+02  0.51730347687E+02  0.18205498008E+03  0.25756628436E+03  0.17247797628E+03 0.  0.
        -24    2    3    3    0    0  0.81543406162E+02  0.14467024156E+02  0.13208716200E+03  0.17511630713E+03  0.79750114618E+02 0.  0.
          6    2    1    2  501    0 -0.27779378960E+02 -0.51730347687E+02  0.33154268726E+03  0.37839101219E+03  0.17266001814E+03 0.  0.
         24    2    5    5    0    0  0.36213109643E+02 -0.75518827558E+02  0.20824439870E+03  0.23737509701E+03  0.77244575642E+02 0.  0.
          5    1    5    5  501    0 -0.63992488603E+02  0.23788479871E+02  0.12329828856E+03  0.14101591518E+03  0.47000000000E+01 0. -1.
        -13    1    6    6    0    0  0.37325909703E+02 -0.71304707460E+02  0.96985413788E+02  0.12603077136E+03  0.00000000000E+00 0.  1.
         14    1    6    6    0    0 -0.11128000600E+01 -0.42141200983E+01  0.11125898491E+03  0.11134432566E+03  0.00000000000E+00 0. -1.
         -5    1    3    3    0  503 -0.53764027202E+02  0.37263323532E+02  0.49967818082E+02  0.82449977232E+02  0.47000000000E+01 0.  1.
         13    1    4    4    0    0  0.78901464237E+02  0.25784416684E+02  0.13877638190E+03  0.16170702327E+03  0.00000000000E+00 0. -1.
        -14    1    4    4    0    0  0.26419419243E+01 -0.11317392529E+02 -0.66892198980E+01  0.13409283859E+02  0.00000000000E+00 0.  1.
</event>
<event>
12    1  0.8449700E-002  0.2804340E+03  0.7818608E-02  0.1095690E+00
         21   -1    0    0  503  502  0.00000000000E+00  0.00000000000E+00  0.17517913587E+03  0.17517913587E+03  0.00000000000E+00 0.  1.
         21   -1    0    0  501  503 -0.00000000000E+00 -0.00000000000E+00 -0.62993082775E+03  0.62993082775E+03  0.00000000000E+00 0. -1.
          6    2    1    2  501    0  0.21305379122E+03 -0.60397052549E+02 -0.10442825728E+02  0.28062833311E+03  0.17205663843E+03 0.  0.
         24    2    3    3    0    0  0.88305463934E+02  0.24593756977E+02 -0.37912003723E+02  0.12712840281E+03  0.79508508543E+02 0.  0.
         -6    2    1    2    0  502 -0.21305379122E+03  0.60397052549E+02 -0.44430886616E+03  0.52448163051E+03  0.16920664965E+03 0.  0.
        -24    2    5    5    0    0 -0.52973726202E+02  0.78461464048E+01 -0.24579716085E+03  0.26406616995E+03  0.80292715424E+02 0.  0.
          5    1    3    3  501    0  0.12474832729E+03 -0.84990809526E+02  0.27469177995E+02  0.15349993031E+03  0.47000000000E+01 0. -1.
        -11    1    4    4    0    0  0.81784240273E+02  0.37173134481E+01  0.16923841742E+01  0.81886168188E+02  0.00000000000E+00 0.  1.
         12    1    4    4    0    0  0.65212236611E+01  0.20876443529E+02 -0.39604387897E+02  0.45242234617E+02  0.00000000000E+00 0. -1.
         -5    1    5    5    0  502 -0.16008006502E+03  0.52550906144E+02 -0.19851170531E+03  0.26041546056E+03  0.47000000000E+01 0.  1.
         11    1    6    6    0    0  0.40174419863E+01  0.16286200933E+01  0.51052365206E+01  0.66974385740E+01  0.00000000000E+00 0. -1.
        -12    1    6    6    0    0 -0.56991168188E+02  0.62175263115E+01 -0.25090239737E+03  0.25736873138E+03  0.00000000000E+00 0.  1.
</event>
<event>
12    1  0.8449700E-002  0.1763159E+03  0.7818608E-02  0.1171736E+00
         21   -1    0    0  501  502  0.00000000000E+00  0.00000000000E+00  0.75011739826E+03  0.75011739826E+03  0.00000000000E+00 0.  1.
         21   -1    0    0  502  503 -0.00000000000E+00 -0.00000000000E+00 -0.46718502835E+02  0.46718502835E+02  0.00000000000E+00 0.  1.
         -6    2    1    2    0  503  0.37798987646E+02 -0.37091109745E+01  0.21294622432E+03  0.27565349003E+03  0.17086904676E+03 0.  0.
        -24    2    3    3    0    0  0.19075886221E+02  0.27088920325E+02  0.22183079519E+03  0.23823559513E+03  0.80309389585E+02 0.  0.
          6    2    1    2  501    0 -0.37798987646E+02  0.37091109745E+01  0.49045267110E+03  0.52118241106E+03  0.17217654323E+03 0.  0.
         24    2    5    5    0    0 -0.55884644724E+01 -0.35955059944E+02  0.44244730812E+03  0.45091599567E+03  0.79003907586E+02 0.  0.
          5    1    5    5  501    0 -0.32210523174E+02  0.39664170918E+02  0.48005362980E+02  0.70266415396E+02  0.47000000000E+01 0. -1.
        -11    1    6    6    0    0 -0.34262309936E+02  0.71854178650E+01  0.16467685429E+03  0.16835677132E+03  0.00000000000E+00 0.  1.
         12    1    6    6    0    0  0.28673845464E+02 -0.43140477809E+02  0.27777045383E+03  0.28255922435E+03  0.00000000000E+00 0. -1.
         -5    1    3    3    0  503  0.18723101425E+02 -0.30798031300E+02 -0.88845708670E+01  0.37417894896E+02  0.47000000000E+01 0.  1.
         13    1    4    4    0    0 -0.20649373715E+02 -0.49990386610E+01  0.17218266631E+02  0.27346950984E+02  0.00000000000E+00 0. -1.
        -14    1    4    4    0    0  0.39725259936E+02  0.32087958986E+02  0.20461252856E+03  0.21088864415E+03  0.00000000000E+00 0.  1.
</event>
<event>
12    1  0.8449700E-002  0.2284211E+03  0.7818608E-02  0.1127937E+00
         21   -1    0    0  503  502  0.00000000000E+00  0.00000000000E+00  0.32362700326E+02  0.32362700326E+02  0.00000000000E+00 0. -1.
         21   -1    0    0  501  503 -0.00000000000E+00 -0.00000000000E+00 -0.20955932480E+04  0.20955932480E+04  0.00000000000E+00 0.  1.
          6    2    1    2  501    0  0.31730722660E+02 -0.14620711163E+03 -0.15481421049E+04  0.15649026137E+04  0.17260606900E+03 0.  0.
         24    2    3    3    0    0 -0.33432532111E+02 -0.57407028258E+02 -0.10256091841E+04  0.10308666149E+04  0.79990488642E+02 0.  0.
         -6    2    1    2    0  502 -0.31730722660E+02  0.14620711163E+03 -0.51508844273E+03  0.56305333461E+03  0.17125885535E+03 0.  0.
        -24    2    5    5    0    0 -0.59862662916E+02  0.16583785827E+03 -0.43162162377E+03  0.47268977921E+03  0.77798892173E+02 0.  0.
          5    1    3    3  501    0  0.65163254770E+02 -0.88800083367E+02 -0.52253292089E+03  0.53403599878E+03  0.47000000000E+01 0. -1.
        -11    1    4    4    0    0 -0.87613834701E+01 -0.52072034376E+02 -0.94323576078E+03  0.94471263304E+03  0.00000000000E+00 0.  1.
         12    1    4    4    0    0 -0.24671148641E+02 -0.53349938823E+01 -0.82373423276E+02  0.86153981899E+02  0.00000000000E+00 0. -1.
         -5    1    5    5    0  502  0.28131940257E+02 -0.19630746645E+02 -0.83466818961E+02  0.90363555397E+02  0.47000000000E+01 0.  1.
         11    1    6    6    0    0  0.28320196813E+01  0.10148424234E+03 -0.20097399027E+03  0.22516131227E+03  0.00000000000E+00 0. -1.
        -12    1    6    6    0    0 -0.62694682598E+02  0.64353615931E+02 -0.23064763350E+03  0.24752846694E+03  0.00000000000E+00 0.  1.
</event>
<event>
12    1  0.8449700E-002  0.1793894E+03  0.7818608E-02  0.1168674E+00
         21   -1    0    0  503  502  0.00000000000E+00  0.00000000000E+00  0.45077619382E+03  0.45077619382E+03  0.00000000000E+00 0. -1.
         21   -1    0    0  501  503 -0.00000000000E+00 -0.00000000000E+00 -0.81375601974E+02  0.81375601974E+02  0.00000000000E+00 0. -1.
          6    2    1    2  501    0 -0.43220929339E+02  0.13989994375E+02  0.88881952128E+02  0.19917840886E+03  0.17236086699E+03 0.  0.
         24    2    3    3    0    0  0.44017684123E+01  0.36218249804E+02  0.99891305793E+02  0.14527745759E+03  0.98975398587E+02 0.  0.
         -6    2    1    2    0  502  0.43220929339E+02 -0.13989994375E+02  0.28051863971E+03  0.33297338693E+03  0.17354192721E+03 0.  0.
        -24    2    5    5    0    0  0.59954778970E+02 -0.55888878893E+02  0.13198547753E+03  0.17766811169E+03  0.86183811286E+02 0.  0.
          5    1    3    3  501    0 -0.47622697752E+02 -0.22228255429E+02 -0.11009353665E+02  0.53900951278E+02  0.47000000000E+01 0. -1.
        -13    1    4    4    0    0  0.41152444984E+02  0.51294077219E+02  0.62640277120E+02  0.90820759761E+02  0.00000000000E+00 0.  1.
         14    1    4    4    0    0 -0.36750676572E+02 -0.15075827415E+02  0.37251028674E+02  0.54456697825E+02  0.00000000000E+00 0. -1.
         -5    1    5    5    0  502 -0.16733849630E+02  0.41898884518E+02  0.14853316219E+03  0.15530527524E+03  0.47000000000E+01 0.  1.
         13    1    6    6    0    0  0.23579337840E+02 -0.73745622572E+02  0.97173679710E+02  0.12424623153E+03  0.00000000000E+00 0. -1.
        -14    1    6    6    0    0  0.36375441130E+02  0.17856743679E+02  0.34811797816E+02  0.53421880156E+02  0.00000000000E+00 0.  1.
</event>
<event>
12    1  0.8449700E-002  0.1834910E+03  0.7818608E-02  0.1165333E+00
         21   -1    0    0  503  502  0.00000000000E+00  0.00000000000E+00  0.99360624744E+03  0.99360624744E+03  0.00000000000E+00 0.  1.
         21   -1    0    0  501  503 -0.00000000000E+00 -0.00000000000E+00 -0.63351148026E+02  0.63351148026E+02  0.00000000000E+00 0.  1.
          6    2    1    2  501    0 -0.46464249904E+02  0.25622346315E+02  0.98219744826E+02  0.20492936742E+03  0.17185312394E+03 0.  0.
         24    2    3    3    0    0 -0.34926879750E+02 -0.48991091469E+02  0.30607932686E+02  0.10347138031E+03  0.78418537527E+02 0.  0.
         -6    2    1    2    0  502  0.46464249904E+02 -0.25622346315E+02  0.83203535459E+03  0.85202802804E+03  0.17565163857E+03 0.  0.
        -24    2    5    5    0    0 -0.10406658453E+02 -0.72613454992E+02  0.41382899333E+03  0.42733859433E+03  0.77348730402E+02 0.  0.
          5    1    3    3  501    0 -0.11537370155E+02  0.74613437784E+02  0.67611812140E+02  0.10145798711E+03  0.47000000000E+01 0. -1.
        -13    1    4    4    0    0 -0.12163453525E+02  0.20881094157E+02  0.14691027018E+02  0.28280664237E+02  0.00000000000E+00 0.  1.
         14    1    4    4    0    0 -0.22763426225E+02 -0.69872185627E+02  0.15916905667E+02  0.75190716074E+02  0.00000000000E+00 0. -1.
         -5    1    5    5    0  502  0.56870908358E+02  0.46991108677E+02  0.41820636125E+03  0.42468943371E+03  0.47000000000E+01 0.  1.
         11    1    6    6    0    0  0.24148586503E+01  0.48331954193E+01  0.19117574158E+03  0.19125207316E+03  0.00000000000E+00 0. -1.
        -12    1    6    6    0    0 -0.12821517104E+02 -0.77446650411E+02  0.22265325175E+03  0.23608652117E+03  0.00000000000E+00 0.  1.
</event>
<event>
12    1  0.8449700E-002  0.1789839E+03  0.7818608E-02  0.1169890E+00
         21   -1    0    0  503  502  0.00000000000E+00  0.00000000000E+00  0.19537786026E+03  0.19537786026E+03  0.00000000000E+00 0.  1.
         21   -1    0    0  501  503 -0.00000000000E+00 -0.00000000000E+00 -0.16493475279E+03  0.16493475279E+03  0.00000000000E+00 0.  1.
          6    2    1    2  501    0 -0.11981977760E+02 -0.31753311464E+02 -0.16399502698E+02  0.17530051163E+03  0.17120013174E+03 0.  0.
         24    2    3    3    0    0 -0.74481659198E+02 -0.18077261476E+02 -0.74085680380E+01  0.11052264944E+03  0.79284703567E+02 0.  0.
         -6    2    1    2    0  502  0.11981977760E+02  0.31753311464E+02  0.46842610170E+02  0.18501210142E+03  0.17573675474E+03 0.  0.
        -24    2    5    5    0    0  0.11769122548E+02  0.84350472356E+02  0.29668149554E+01  0.11635584135E+03  0.79223515410E+02 0.  0.
          5    1    3    3  501    0  0.62499681438E+02 -0.13676049987E+02 -0.89909346603E+01  0.64777862185E+02  0.47000000000E+01 0. -1.
        -11    1    4    4    0    0 -0.44450728178E+02 -0.41023722725E+02  0.20141047437E+02  0.63753234064E+02  0.00000000000E+00 0.  1.
         12    1    4    4    0    0 -0.30030931020E+02  0.22946461249E+02 -0.27549615476E+02  0.46769415376E+02  0.00000000000E+00 0. -1.
         -5    1    5    5    0  502  0.21285521148E+00 -0.52597160892E+02  0.43875795215E+02  0.68656260072E+02  0.47000000000E+01 0.  1.
         13    1    6    6    0    0  0.29238025719E+02  0.25073803380E+02 -0.27626783519E+02  0.47400389571E+02  0.00000000000E+00 0. -1.
        -14    1    6    6    0    0 -0.17468903171E+02  0.59276668976E+02  0.30593598474E+02  0.68955451782E+02  0.00000000000E+00 0.  1.
</event>
<event>
12    1  0.8449700E-002  0.1883200E+03  0.7818608E-02  0.1160291E+00
         21   -1    0    0  501  502  0.00000000000E+00  0.00000000000E+00  0.44452410617E+03  0.44452410617E+03  0.00000000000E+00 0. -1.
         21   -1    0    0  502  503 -0.00000000000E+00 -0.00000000000E+00 -0.41698022001E+03  0.41698022001E+03  0.00000000000E+00 0. -1.
         -6    2    1    2    0  503 -0.72518720793E+02  0.21214703323E+02 -0.37391987702E+03  0.41806598478E+03  0.17103819660E+03 0.  0.
        -24    2    3    3    0    0 -0.56908441852E+02  0.75150484436E+02 -0.19819213608E+03  0.23352580425E+03  0.79799826961E+02 0.  0.
          6    2    1    2  501    0  0.72518720793E+02 -0.21214703323E+02  0.40146376318E+03  0.44343834141E+03  0.17249748108E+03 0.  0.
         24    2    5    5    0    0  0.63549159345E+02  0.42871921401E+02  0.17675490109E+03  0.20955009629E+03  0.82416324221E+02 0.  0.
          5    1    5    5  501    0  0.89695614477E+01 -0.64086624725E+02  0.22470886209E+03  0.23388824511E+03  0.47000000000E+01 0. -1.
        -13    1    6    6    0    0  0.61720157132E+02  0.79853896476E+01  0.55581166430E+02  0.83441058874E+02  0.00000000000E+00 0.  1.
         14    1    6    6    0    0  0.18290022135E+01  0.34886531754E+02  0.12117373466E+03  0.12610903742E+03  0.00000000000E+00 0. -1.
         -5    1    3    3    0  503 -0.15610278941E+02 -0.53935781113E+02 -0.17572774094E+03  0.18454018053E+03  0.47000000000E+01 0.  1.
         11    1    4    4    0    0 -0.27721192401E+02  0.48589173499E+02 -0.18279731539E+03  0.19116545400E+03  0.00000000000E+00 0. -1.
        -12    1    4    4    0    0 -0.29187249451E+02  0.26561310938E+02 -0.15394820686E+02  0.42360350249E+02  0.00000000000E+00 0.  1.
</event>
<event>
12    1  0.8449700E-002  0.2305315E+03  0.7818608E-02  0.1126482E+00
         21   -1    0    0  503  502  0.00000000000E+00  0.00000000000E+00  0.70433345439E+02  0.70433345439E+02  0.00000000000E+00 0. -1.
         21   -1    0    0  501  503 -0.00000000000E+00 -0.00000000000E+00 -0.12315128394E+04  0.12315128394E+04  0.00000000000E+00 0. -1.
          6    2    1    2  501    0  0.14511467728E+03  0.38190666906E+02 -0.98831204618E+03  0.10148425780E+04  0.17500845934E+03 0.  0.
         24    2    3    3    0    0  0.57378265495E+01  0.27403967114E+02 -0.50888288509E+03  0.51542624873E+03  0.76931963923E+02 0.  0.
         -6    2    1    2    0  502 -0.14511467728E+03 -0.38190666906E+02 -0.17276744778E+03  0.28710360686E+03  0.17338712023E+03 0.  0.
        -24    2    5    5    0    0  0.34394043857E+00 -0.27666890283E+02 -0.64110880459E+02  0.10517697614E+03  0.78653774252E+02 0.  0.
          5    1    3    3  501    0  0.13937685073E+03  0.10786699792E+02 -0.47942916108E+03  0.49941632924E+03  0.47000000000E+01 0. -1.
        -11    1    4    4    0    0 -0.31942281552E+02  0.21621183531E+02 -0.16557964986E+03  0.17001295650E+03  0.00000000000E+00 0.  1.
         12    1    4    4    0    0  0.37680108102E+02  0.57827835830E+01 -0.34330323523E+03  0.34541329223E+03  0.00000000000E+00 0. -1.
         -5    1    5    5    0  502 -0.14545861772E+03 -0.10523776623E+02 -0.10865656732E+03  0.18192663072E+03  0.47000000000E+01 0.  1.
         13    1    6    6    0    0  0.30245041997E+00  0.20643579003E+02  0.46293009755E+01  0.21158432310E+02  0.00000000000E+00 0. -1.
        -14    1    6    6    0    0  0.41490018603E-01 -0.48310469285E+02 -0.68740181434E+02  0.84018543831E+02  0.00000000000E+00 0.  1.
</event>
<event>
12    1  0.8449700E-002  0.1756983E+03  0.7818608E-02  0.1172061E+00
         21   -1    0    0  501  502  0.00000000000E+00  0.00000000000E+00  0.12522632803E+04  0.12522632803E+04  0.00000000000E+00 0.  1.
         21   -1    0    0  502  503 -0.00000000000E+00 -0.00000000000E+00 -0.42234768658E+02  0.42234768658E+02  0.00000000000E+00 0.  1.
         -6    2    1    2    0  503  0.19602506751E+02 -0.30538149674E+02  0.18707810905E+03  0.25656865651E+03  0.17179179189E+03 0.  0.
        -24    2    3    3    0    0  0.50834199253E+02 -0.26899456782E+02  0.19869074534E+03  0.22272191333E+03  0.82579306156E+02 0.  0.
          6    2    1    2  501    0 -0.19602506751E+02  0.30538149674E+02  0.10229504025E+04  0.10379293924E+04  0.17191003664E+03 0.  0.
         24    2    5    5    0    0 -0.25531468203E+02  0.15315006463E+02  0.30476172032E+03  0.31953954702E+03  0.91320373673E+02 0.  0.
          5    1    5    5  501    0  0.59289614521E+01  0.15223143211E+02  0.71818868222E+03  0.71838984538E+03  0.47000000000E+01 0. -1.
        -13    1    6    6    0    0 -0.59688042942E+02  0.48681663522E+01  0.20543471614E+03  0.21398547640E+03  0.00000000000E+00 0.  1.
         14    1    6    6    0    0  0.34156574738E+02  0.10446840111E+02  0.99327004183E+02  0.10555407063E+03  0.00000000000E+00 0. -1.
         -5    1    3    3    0  503 -0.31231692502E+02 -0.36386928924E+01 -0.11612636283E+02  0.33846743180E+02  0.47000000000E+01 0.  1.
         11    1    4    4    0    0 -0.15072720767E+02  0.29304823443E+01  0.95333869607E+02  0.96562525508E+02  0.00000000000E+00 0. -1.
        -12    1    4    4    0    0  0.65906920020E+02 -0.29829939126E+02  0.10335687573E+03  0.12615938782E+03  0.00000000000E+00 0.  1.
</event>
<event>
12    1  0.8449700E-002  0.1858636E+03  0.7818608E-02  0.1162610E+00
         21   -1    0    0  501  502  0.00000000000E+00  0.00000000000E+00  0.15058241522E+03  0.15058241522E+03  0.00000000000E+00 0.  1.
         21   -1    0    0  502  503 -0.00000000000E+00 -0.00000000000E+00 -0.78905500213E+03  0.78905500213E+03  0.00000000000E+00 0.  1.
         -6    2    1    2    0  503  0.21854796131E+02 -0.64917962667E+02 -0.71597147430E+03  0.73970294134E+03  0.17278111995E+03 0.  0.
        -24    2    3    3    0    0 -0.21900427382E+01 -0.10487739088E+03 -0.40272989498E+03  0.42297389752E+03  0.75574375720E+02 0.  0.
          6    2    1    2  501    0 -0.21854796131E+02  0.64917962667E+02  0.77498887395E+02  0.19993447601E+03  0.17110155803E+03 0.  0.
         24    2    5    5    0    0  0.42360637206E+02  0.69007977933E+02  0.24566823348E+02  0.11648243285E+03  0.80050632415E+02 0.  0.
          5    1    5    5  501    0 -0.64215433337E+02 -0.40900152654E+01  0.52932064047E+02  0.83452043161E+02  0.47000000000E+01 0. -1.
        -13    1    6    6    0    0  0.46889737981E+02  0.14476608486E+02  0.35645195686E+02  0.60653109539E+02  0.00000000000E+00 0.  1.
         14    1    6    6    0    0 -0.45291007756E+01  0.54531369447E+02 -0.11078372338E+02  0.55829323310E+02  0.00000000000E+00 0. -1.
         -5    1    3    3    0  503  0.24044838869E+02  0.39959428217E+02 -0.31324157932E+03  0.31672904381E+03  0.47000000000E+01 0.  1.
         13    1    4    4    0    0 -0.33259327392E+02 -0.86982648849E+02 -0.27722648195E+03  0.29244945949E+03  0.00000000000E+00 0. -1.
        -14    1    4    4    0    0  0.31069284654E+02 -0.17894742035E+02 -0.12550341303E+03  0.13052443803E+03  0.00000000000E+00 0.  1.
</event>
<event>
12    1  0.8449700E-002  0.2761474E+03  0.7818608E-02  0.1098155E+00
         21   -1    0    0  503  502  0.00000000000E+00  0.00000000000E+00  0.76273749194E+02  0.76273749194E+02  0.00000000000E+00 0. -1.
         21   -1    0    0  501  503 -0.00000000000E+00 -0.00000000000E+00 -0.10051058231E+04  0.10051058231E+04  0.00000000000E+00 0. -1.
          6    2    1    2  501    0 -0.19587474461E+03 -0.85973462240E+02 -0.52662641479E+03  0.59349970240E+03  0.17072833452E+03 0.  0.
         24    2    3    3    0    0 -0.47903883556E+02 -0.30893835525E+01 -0.10996365675E+03  0.14361628399E+03  0.78925945487E+02 0.  0.
         -6    2    1    2    0  502  0.19587474461E+03  0.85973462240E+02 -0.40220565914E+03  0.48787986991E+03  0.17463969605E+03 0.  0.
        -24    2    5    5    0    0  0.11428223843E+03  0.36855379794E+02 -0.35091432281E+03  0.37960792400E+03  0.80886123488E+02 0.  0.
          5    1    3    3  501    0 -0.14797086106E+03 -0.82884078687E+02 -0.41666275804E+03  0.44988341841E+03  0.47000000000E+01 0. -1.
        -13    1    4    4    0    0  0.12127302870E+01  0.30221608446E+02 -0.21575920564E+02  0.37152882526E+02  0.00000000000E+00 0.  1.
         14    1    4    4    0    0 -0.49116613843E+02 -0.33310991999E+02 -0.88387736183E+02  0.10646340146E+03  0.00000000000E+00 0. -1.
         -5    1    5    5    0  502  0.81592506186E+02  0.49118082446E+02 -0.51291336326E+02  0.10827194591E+03  0.47000000000E+01 0.  1.
         13    1    6    6    0    0  0.17399948871E+02  0.36624180911E+02 -0.55648565924E+02  0.68853843302E+02  0.00000000000E+00 0. -1.
        -14    1    6    6    0    0  0.96882289557E+02  0.23119888289E+00 -0.29526575689E+03  0.31075408070E+03  0.00000000000E+00 0.  1.
</event>
<event>
12    1  0.8449700E-002  0.1905444E+03  0.7818608E-02  0.1158320E+00
         21   -1    0    0  503  502  0.00000000000E+00  0.00000000000E+00  0.11704812115E+03  0.11704812115E+03  0.00000000000E+00 0. -1.
         21   -1    0    0  501  503 -0.00000000000E+00 -0.00000000000E+00 -0.30798103730E+03  0.30798103730E+03  0.00000000000E+00 0. -1.
          6    2    1    2  501    0  0.17302892860E+02  0.79636460918E+02 -0.88383179136E+02  0.20864153323E+03  0.17052374329E+03 0.  0.
         24    2    3    3    0    0  0.74222185774E+02  0.42841797835E+02 -0.71823325720E+02  0.13871319933E+03  0.82087813025E+02 0.  0.
         -6    2    1    2    0  502 -0.17302892860E+02 -0.79636460918E+02 -0.10254973701E+03  0.21638762521E+03  0.17223762590E+03 0.  0.
        -24    2    5    5    0    0 -0.64314891739E+02 -0.42633287921E+02 -0.17335299949E+02  0.11216213344E+03  0.79535080411E+02 0.  0.
          5    1    3    3  501    0 -0.56919292913E+02  0.36794663083E+02 -0.16559853416E+02  0.69928333902E+02  0.47000000000E+01 0. -1.
        -13    1    4    4    0    0  0.16386177302E+02  0.65514479657E+01  0.18446945226E+02  0.25528769363E+02  0.00000000000E+00 0.  1.
         14    1    4    4    0    0  0.57836008472E+02  0.36290349869E+02 -0.90270270946E+02  0.11318442996E+03  0.00000000000E+00 0. -1.
         -5    1    5    5    0  502  0.47011998879E+02 -0.37003172996E+02 -0.85214437064E+02  0.10422549177E+03  0.47000000000E+01 0.  1.
         13    1    6    6    0    0 -0.11524546701E+02 -0.52647602184E+02  0.46758742690E+01  0.54096663414E+02  0.00000000000E+00 0. -1.
        -14    1    6    6    0    0 -0.52790345038E+02  0.10014314262E+02 -0.22011174218E+02  0.58065470030E+02  0.00000000000E+00 0.  1.
</event>
<event>
12    1  0.8449700E-002  0.3709513E+03  0.7818608E-02  0.1054659E+00
         21   -1    0    0  501  502  0.00000000000E+00  0.00000000000E+00  0.17209097324E+04  0.17209097324E+04  0.00000000000E+00 0.  1.
         21   -1    0    0  502  503 -0.00000000000E+00 -0.00000000000E+00 -0.92757400517E+02  0.92757400517E+02  0.00000000000E+00 0.  1.
         -6    2    1    2    0  503 -0.82970893135E+02  0.31292079601E+03  0.46442395499E+03  0.59224640166E+03  0.17396148029E+03 0.  0.
        -24    2    3    3    0    0  0.23023974842E+02  0.16943511633E+03  0.23135278299E+03  0.29870370710E+03  0.80383035370E+02 0.  0.
          6    2    1    2  501    0  0.82970893135E+02 -0.31292079601E+03  0.11637283769E+04  0.12214207312E+04  0.18111121961E+03 0.  0.
         24    2    5    5    0    0  0.10683418390E+03 -0.28970362785E+03  0.11285291424E+04  0.11727425056E+04  0.80032645624E+02 0.  0.
          5    1    5    5  501    0 -0.23863290770E+02 -0.23217168160E+02  0.35199234499E+02  0.48678225657E+02  0.47000000000E+01 0. -1.
        -13    1    6    6    0    0  0.98544993238E+02 -0.29317490102E+03  0.10812737124E+04  0.11246401555E+04  0.00000000000E+00 0.  1.
         14    1    6    6    0    0  0.82891906664E+01  0.34712731692E+01  0.47255429940E+02  0.48102350027E+02  0.00000000000E+00 0. -1.
         -5    1    3    3    0  503 -0.10599486798E+03  0.14348567968E+03  0.23307117201E+03  0.29354269457E+03  0.47000000000E+01 0.  1.
         13    1    4    4    0    0  0.29664882744E+02  0.12522758321E+03  0.21601023558E+03  0.25144059882E+03  0.00000000000E+00 0. -1.
        -14    1    4    4    0    0 -0.66409079020E+01  0.44207533123E+02  0.15342547412E+02  0.47263108274E+02  0.00000000000E+00 0.  1.
</event>
<event>
12    1  0.8449700E-002  0.2489656E+03  0.7818608E-02  0.1114226E+00
         21   -1    0    0  503  502  0.00000000000E+00  0.00000000000E+00  0.10760357910E+03  0.10760357910E+03  0.00000000000E+00 0. -1.
         21   -1    0    0  501  503 -0.00000000000E+00 -0.00000000000E+00 -0.70125821107E+03  0.70125821107E+03  0.00000000000E+00 0. -1.
          6    2    1    2  501    0  0.12349568947E+03 -0.12745903681E+03 -0.46952038089E+03  0.53066546893E+03  0.17221922209E+03 0.  0.
         24    2    3    3    0    0  0.95145994843E+02 -0.15016058320E+03 -0.44654751919E+03  0.48743460300E+03  0.81159375437E+02 0.  0.
         -6    2    1    2    0  502 -0.12349568947E+03  0.12745903681E+03 -0.12413425108E+03  0.27819632125E+03  0.17460495262E+03 0.  0.
        -24    2    5    5    0    0 -0.78070203631E+02  0.15911123826E+03 -0.94140091481E+02  0.21505302207E+03  0.77292319425E+02 0.  0.
          5    1    3    3  501    0  0.28349694631E+02  0.22701546392E+02 -0.22972861694E+02  0.43230865925E+02  0.47000000000E+01 0. -1.
        -11    1    4    4    0    0 -0.10965157681E+02 -0.31226433043E+02 -0.11323890010E+03  0.11797615564E+03  0.00000000000E+00 0.  1.
         12    1    4    4    0    0  0.10611115252E+03 -0.11893415016E+03 -0.33330861909E+03  0.36945844736E+03  0.00000000000E+00 0. -1.
         -5    1    5    5    0  502 -0.45425485843E+02 -0.31652201448E+02 -0.29994159604E+02  0.63143299177E+02  0.47000000000E+01 0.  1.
         13    1    6    6    0    0 -0.41593327774E+02  0.98050813195E+02 -0.13232954339E+02  0.10732696755E+03  0.00000000000E+00 0. -1.
        -14    1    6    6    0    0 -0.36476875857E+02  0.61060425062E+02 -0.80907137142E+02  0.10772605452E+03  0.00000000000E+00 0.  1.
</event>
<event>
12    1  0.8449700E-002  0.3899809E+03  0.7818608E-02  0.1047338E+00
         21   -1    0    0  501  502  0.00000000000E+00  0.00000000000E+00  0.17473354738E+04  0.17473354738E+04  0.00000000000E+00 0.  1.
         21   -1    0    0  502  503 -0.00000000000E+00 -0.00000000000E+00 -0.90592357905E+02  0.90592357905E+02  0.00000000000E+00 0. -1.
         -6    2    1    2    0  503 -0.27610947818E+03  0.21504123710E+03  0.64463333216E+03  0.75341702181E+03  0.17206364587E+03 0.  0.
        -24    2    3    3    0    0 -0.28644174172E+03  0.22533853546E+03  0.63106956499E+03  0.73295105486E+03  0.78371716819E+02 0.  0.
          6    2    1    2  501    0  0.27610947818E+03 -0.21504123710E+03  0.10121097837E+04  0.10845108099E+04  0.17122588835E+03 0.  0.
         24    2    5    5    0    0  0.13963818106E+03 -0.15954342451E+03  0.45736676548E+03  0.51051923466E+03  0.80576701801E+02 0.  0.
          5    1    5    5  501    0  0.13647129712E+03 -0.55497812595E+02  0.55474301823E+03  0.57399157521E+03  0.47000000000E+01 0. -1.
        -13    1    6    6    0    0  0.13388363750E+03 -0.13562870720E+03  0.44245848649E+03  0.48175666771E+03  0.00000000000E+00 0.  1.
         14    1    6    6    0    0  0.57545435610E+01 -0.23914717303E+02  0.14908278990E+02  0.28762566953E+02  0.00000000000E+00 0. -1.
         -5    1    3    3    0  503  0.10332263542E+02 -0.10297298362E+02  0.13563767172E+02  0.20465966954E+02  0.47000000000E+01 0.  1.
         11    1    4    4    0    0 -0.22425713832E+03  0.19420026694E+03  0.44999836588E+03  0.53898380037E+03  0.00000000000E+00 0. -1.
        -12    1    4    4    0    0 -0.62184603402E+02  0.31138268522E+02  0.18107119910E+03  0.19396725448E+03  0.00000000000E+00 0.  1.
</event>
<event>
12    1  0.8449700E-002  0.3661795E+03  0.7818608E-02  0.1056265E+00
         21   -1    0    0  501  502  0.00000000000E+00  0.00000000000E+00  0.10195428054E+03  0.10195428054E+03  0.00000000000E+00 0. -1.
         21   -1    0    0  502  503 -0.00000000000E+00 -0.00000000000E+00 -0.16626190908E+04  0.16626190908E+04  0.00000000000E+00 0. -1.
         -6    2    1    2    0  503  0.90513863844E+02  0.30905328504E+03 -0.37570739859E+03  0.52463652252E+03  0.17430071391E+03 0.  0.
        -24    2    3    3    0    0  0.58653529981E+02  0.30845335561E+03 -0.37071147806E+03  0.49204066372E+03  0.78059628660E+02 0.  0.
          6    2    1    2  501    0 -0.90513863844E+02 -0.30905328504E+03 -0.11849574116E+04  0.12399368488E+04  0.17208320383E+03 0.  0.
         24    2    5    5    0    0 -0.20921999313E+01 -0.15231233864E+03 -0.41836391267E+03  0.45248920126E+03  0.80713617400E+02 0.  0.
          5    1    5    5  501    0 -0.88421663913E+02 -0.15674094640E+03 -0.76659349896E+03  0.78744764751E+03  0.47000000000E+01 0. -1.
        -13    1    6    6    0    0 -0.27914023603E+02 -0.39036018948E+02 -0.19376995690E+03  0.19962414604E+03  0.00000000000E+00 0.  1.
         14    1    6    6    0    0  0.25821823672E+02 -0.11327631969E+03 -0.22459395577E+03  0.25286505522E+03  0.00000000000E+00 0. -1.
         -5    1    3    3    0  503  0.31860333863E+02  0.59992942684E+00 -0.49959205387E+01  0.32595858805E+02  0.47000000000E+01 0.  1.
         11    1    4    4    0    0  0.65371579365E+02  0.15532568002E+03 -0.16857818550E+03  0.23836550692E+03  0.00000000000E+00 0. -1.
        -12    1    4    4    0    0 -0.67180493836E+01  0.15312767558E+03 -0.20213329255E+03  0.25367515680E+03  0.00000000000E+00 0.  1.
</event>
<event>
12    1  0.8449700E-002  0.1744637E+03  0.7818608E-02  0.1173318E+00
         21   -1    0    0  503  502  0.00000000000E+00  0.00000000000E+00  0.12295309600E+03  0.12295309600E+03  0.00000000000E+00 0. -1.
         21   -1    0    0  501  503 -0.00000000000E+00 -0.00000000000E+00 -0.50121193341E+03  0.50121193341E+03  0.00000000000E+00 0. -1.
          6    2    1    2  501    0  0.25101046879E+02  0.18276084916E+02 -0.41121003565E+03  0.44661684369E+03  0.17149003999E+03 0.  0.
         24    2    3    3    0    0  0.77994798127E+02  0.37381232920E+02 -0.24510298087E+03  0.27118480771E+03  0.77363968297E+02 0.  0.
         -6    2    1    2    0  502 -0.25101046879E+02 -0.18276084916E+02  0.32951198242E+02  0.17754818573E+03  0.17167847552E+03 0.  0.
        -24    2    5    5    0    0 -0.27759434602E+02 -0.77644310883E+02  0.16397274026E+02  0.11567916532E+03  0.79457998156E+02 0.  0.
          5    1    3    3  501    0 -0.52893751248E+02 -0.19105148004E+02 -0.16610705478E+03  0.17543203599E+03  0.47000000000E+01 0. -1.
        -13    1    4    4    0    0  0.38424715249E+02  0.49259136019E+02 -0.82907822733E+02  0.10381054038E+03  0.00000000000E+00 0.  1.
         14    1    4    4    0    0  0.39570082878E+02 -0.11877903099E+02 -0.16219515813E+03  0.16737426733E+03  0.00000000000E+00 0. -1.
         -5    1    5    5    0  502  0.26583877224E+01  0.59368225967E+02  0.16553924216E+02  0.61869020411E+02  0.47000000000E+01 0.  1.
         11    1    6    6    0    0 -0.50028019576E+02 -0.25353606404E+02  0.17752116499E+02  0.58828103323E+02  0.00000000000E+00 0. -1.
        -12    1    6    6    0    0  0.22268584975E+02 -0.52290704478E+02 -0.13548424728E+01  0.56851061993E+02  0.00000000000E+00 0.  1.
</event>
<event>
12    1  0.8449700E-002  0.1827466E+03  0.7818608E-02  0.1165479E+00
         21   -1    0    0  501  502  0.00000000000E+00  0.00000000000E+00  0.38763295817E+03  0.38763295817E+03  0.00000000000E+00 0. -1.
         21   -1    0    0  502  503 -0.00000000000E+00 -0.00000000000E+00 -0.57577227875E+03  0.57577227875E+03  0.00000000000E+00 0. -1.
         -6    2    1    2    0  503  0.53242693314E+02 -0.33360783062E+02 -0.53859860062E+03  0.56875721011E+03  0.17160590089E+03 0.  0.
        -24    2    3    3    0    0 -0.35264298373E+02 -0.21942478569E+02 -0.32531988678E+03  0.33751325876E+03  0.79731599771E+02 0.  0.
          6    2    1    2  501    0 -0.53242693314E+02  0.33360783062E+02  0.35045928004E+03  0.39464802682E+03  0.17022817589E+03 0.  0.
         24    2    5    5    0    0 -0.22069263043E+02  0.46502117599E+02  0.85724561760E+02  0.12771912525E+03  0.79460525756E+02 0.  0.
          5    1    5    5  501    0 -0.31173430271E+02 -0.13141334537E+02  0.26473471828E+03  0.26692890157E+03  0.47000000000E+01 0. -1.
        -13    1    6    6    0    0  0.44384440271E+01  0.31967576347E+02  0.91425888603E+02  0.96955241373E+02  0.00000000000E+00 0.  1.
         14    1    6    6    0    0 -0.26507707070E+02  0.14534541252E+02 -0.57013268425E+01  0.30763883878E+02  0.00000000000E+00 0. -1.
         -5    1    3    3    0  503  0.88506991687E+02 -0.11418304493E+02 -0.21327871385E+03  0.23124395135E+03  0.47000000000E+01 0.  1.
         13    1    4    4    0    0 -0.47723740692E+02  0.42856955679E+01 -0.10659336809E+03  0.11686774034E+03  0.00000000000E+00 0. -1.
        -14    1    4    4    0    0  0.12459442319E+02 -0.26228174137E+02 -0.21872651869E+03  0.22064551842E+03  0.00000000000E+00 0.  1.
</event>
<event>
12    1  0.8449700E-002  0.1897761E+03  0.7818608E-02  0.1159157E+00
         21   -1    0    0  501  502  0.00000000000E+00  0.00000000000E+00  0.11471820406E+04  0.11471820406E+04  0.00000000000E+00 0. -1.
         21   -1    0    0  502  503 -0.00000000000E+00 -0.00000000000E+00 -0.97045689796E+02  0.97045689796E+02  0.00000000000E+00 0. -1.
         -6    2    1    2    0  503 -0.80629167281E+02  0.85332270766E+01  0.11025740767E+02  0.18792956572E+03  0.16918060211E+03 0.  0.
        -24    2    3    3    0    0 -0.88901624529E+02  0.60066639534E+02  0.86368264405E+01  0.13547079086E+03  0.82257160027E+02 0.  0.
          6    2    1    2  501    0  0.80629167281E+02 -0.85332270766E+01  0.10391106101E+04  0.10562981647E+04  0.17158401506E+03 0.  0.
         24    2    5    5    0    0  0.79254585678E+02  0.18064576277E+02  0.39451161199E+03  0.41113206908E+03  0.82356226035E+02 0.  0.
          5    1    5    5  501    0  0.13745816032E+01 -0.26597803353E+02  0.64459899810E+03  0.64516609564E+03  0.47000000000E+01 0. -1.
        -13    1    6    6    0    0  0.87447616746E+02  0.36697158841E+02  0.30865885648E+03  0.32289945312E+03  0.00000000000E+00 0.  1.
         14    1    6    6    0    0 -0.81930310681E+01 -0.18632582564E+02  0.85852755512E+02  0.88232615965E+02  0.00000000000E+00 0. -1.
         -5    1    3    3    0  503  0.82724572482E+01 -0.51533412458E+02  0.23889143264E+01  0.52458774863E+02  0.47000000000E+01 0.  1.
         13    1    4    4    0    0 -0.44313903679E+02  0.73686930283E+02  0.18170618252E+02  0.87884339455E+02  0.00000000000E+00 0. -1.
        -14    1    4    4    0    0 -0.44587720850E+02 -0.13620290749E+02 -0.95337918116E+01  0.47586451402E+02  0.00000000000E+00 0.  1.
</event>
<event>
12    1  0.8449700E-002  0.2522723E+03  0.7818608E-02  0.1111879E+00
         21   -1    0    0  501  502  0.00000000000E+00  0.00000000000E+00  0.81977169750E+03  0.81977169750E+03  0.00000000000E+00 0.  1.
         21   -1    0    0  502  503 -0.00000000000E+00 -0.00000000000E+00 -0.94099794579E+02  0.94099794579E+02  0.00000000000E+00 0. -1.
         -6    2    1    2    0  503  0.17655062614E+03 -0.51214093985E+02  0.17165868886E+03  0.30512527750E+03  0.17274756872E+03 0.  0.
        -24    2    3    3    0    0  0.28227978357E+02 -0.22499473256E+02  0.11145731979E+03  0.14242791389E+03  0.80993403819E+02 0.  0.
          6    2    1    2  501    0 -0.17655062614E+03  0.51214093985E+02  0.55401321406E+03  0.60874621457E+03  0.17276662118E+03 0.  0.
         24    2    5    5    0    0 -0.19521063645E+03  0.30853144614E+02  0.50282177131E+03  0.55039025468E+03  0.10507421009E+03 0.  0.
          5    1    5    5  501    0  0.18660010316E+02  0.20360949372E+02  0.51191442750E+02  0.58355959894E+02  0.47000000000E+01 0. -1.
        -11    1    6    6    0    0 -0.20230178619E+03  0.42498112364E+02  0.44047279207E+03  0.48656796319E+03  0.00000000000E+00 0.  1.
         12    1    6    6    0    0  0.70911497391E+01 -0.11644967750E+02  0.62348979239E+02  0.63822291487E+02  0.00000000000E+00 0. -1.
         -5    1    3    3    0  503  0.14832264778E+03 -0.28714620729E+02  0.60201369069E+02  0.16269736361E+03  0.47000000000E+01 0.  1.
         13    1    4    4    0    0  0.44779881977E+02  0.12103303350E+01  0.25080002359E+02  0.51339159009E+02  0.00000000000E+00 0. -1.
        -14    1    4    4    0    0 -0.16551903620E+02 -0.23709803591E+02  0.86377317430E+02  0.91088754883E+02  0.00000000000E+00 0.  1.
</event>
<event>
12    1  0.8449700E-002  0.2098487E+03  0.7818608E-02  0.1141947E+00
         21   -1    0    0  503  502  0.00000000000E+00  0.00000000000E+00  0.90330261923E+02  0.90330261923E+02  0.00000000000E+00 0. -1.
         21   -1    0    0  501  503 -0.00000000000E+00 -0.00000000000E+00 -0.63130916658E+03  0.63130916658E+03  0.00000000000E+00 0. -1.
          6    2    1    2  501    0 -0.74401350554E+02 -0.92601339893E+02 -0.44516338708E+03  0.49214523886E+03  0.17299111485E+03 0.  0.
         24    2    3    3    0    0 -0.49224802323E+02  0.14911060131E+02 -0.14996927112E+03  0.17693986004E+03  0.78558964552E+02 0.  0.
         -6    2    1    2    0  502  0.74401350554E+02  0.92601339893E+02 -0.95815517573E+02  0.22949418964E+03  0.17139545081E+03 0.  0.
        -24    2    5    5    0    0 -0.75433907036E+01  0.82048879860E+02 -0.70599559590E+01  0.10814372714E+03  0.69687167484E+02 0.  0.
          5    1    3    3  501    0 -0.25176548231E+02 -0.10751240002E+03 -0.29519411596E+03  0.31520537882E+03  0.47000000000E+01 0. -1.
        -13    1    4    4    0    0 -0.65916141672E+02  0.22073052881E+02 -0.13978770271E+03  0.15611777357E+03  0.00000000000E+00 0.  1.
         14    1    4    4    0    0  0.16691339349E+02 -0.71619927502E+01 -0.10181568412E+02  0.20822086465E+02  0.00000000000E+00 0. -1.
         -5    1    5    5    0  502  0.81944741257E+02  0.10552460033E+02 -0.88755561614E+02  0.12135046250E+03  0.47000000000E+01 0.  1.
         11    1    6    6    0    0  0.16450155333E+02  0.40855847905E+02 -0.31906416897E+02  0.54385911390E+02  0.00000000000E+00 0. -1.
        -12    1    6    6    0    0 -0.23993546036E+02  0.41193031956E+02  0.24846460938E+02  0.53757815750E+02  0.00000000000E+00 0.  1.
</event>
<event>
12    1  0.8449700E-002  0.1937517E+03  0.7818608E-02  0.1155758E+00
         21   -1    0    0  501  502  0.00000000000E+00  0.00000000000E+00  0.14422730583E+04  0.14422730583E+04  0.00000000000E+00 0.  1.
         21   -1    0    0  502  503 -0.00000000000E+00 -0.00000000000E+00 -0.77300269661E+02  0.77300269661E+02  0.00000000000E+00 0.  1.
         -6    2    1    2    0  503 -0.21451730246E+02 -0.80597912098E+02  0.59691446478E+02  0.19999039382E+03  0.17168834752E+03 0.  0.
        -24    2    3    3    0    0 -0.45834556281E+02 -0.82238671699E+02  0.95801864316E+02  0.15613533056E+03  0.79600493529E+02 0.  0.
          6    2    1    2  501    0  0.21451730246E+02  0.80597912098E+02  0.13052813421E+04  0.13195829341E+04  0.17488149617E+03 0.  0.
         24    2    5    5    0    0  0.53304761875E+02  0.10958701202E+03  0.89795656586E+03  0.90996048977E+03  0.82773111165E+02 0.  0.
          5    1    5    5  501    0 -0.31853031629E+02 -0.28989099925E+02  0.40732477626E+03  0.40962244432E+03  0.47000000000E+01 0. -1.
        -13    1    6    6    0    0  0.43041532537E+02  0.22002985605E+02  0.50101784882E+03  0.50334440469E+03  0.00000000000E+00 0.  1.
         14    1    6    6    0    0  0.10263229338E+02  0.87584026418E+02  0.39693871703E+03  0.40661608507E+03  0.00000000000E+00 0. -1.
         -5    1    3    3    0  503  0.24382826035E+02  0.16407596010E+01 -0.36110417838E+02  0.43855063265E+02  0.47000000000E+01 0.  1.
         13    1    4    4    0    0 -0.81637722320E+01  0.15959426559E+02  0.11015451776E+02  0.21040215089E+02  0.00000000000E+00 0. -1.
        -14    1    4    4    0    0 -0.37670784049E+02 -0.98198098258E+02  0.84786412540E+02  0.13509511547E+03  0.00000000000E+00 0.  1.
</event>
<event>
12    1  0.8449700E-002  0.1854658E+03  0.7818608E-02  0.1162774E+00
         21   -1    0    0  503  502  0.00000000000E+00  0.00000000000E+00  0.99230574469E+03  0.99230574469E+03  0.00000000000E+00 0. -1.
         21   -1    0    0  501  503 -0.00000000000E+00 -0.00000000000E+00 -0.64106382037E+02  0.64106382037E+02  0.00000000000E+00 0. -1.
          6    2    1    2  501    0 -0.64025844250E+02  0.26630659193E+02  0.10490738748E+03  0.21248840230E+03  0.17128123196E+03 0.  0.
         24    2    3    3    0    0 -0.35055682848E+02  0.79990569323E+02  0.57230638154E+02  0.13514686955E+03  0.85801738481E+02 0.  0.
         -6    2    1    2    0  502  0.64025844250E+02 -0.26630659193E+02  0.82329197517E+03  0.84392372443E+03  0.17201475382E+03 0.  0.
        -24    2    5    5    0    0  0.53263547602E+02 -0.71802291899E+02  0.38876980884E+03  0.40690209285E+03  0.80217044816E+02 0.  0.
          5    1    3    3  501    0 -0.28970161402E+02 -0.53359910129E+02  0.47676749329E+02  0.77341532745E+02  0.47000000000E+01 0. -1.
        -11    1    4    4    0    0 -0.39002690769E+02  0.38811878464E+02  0.72531336035E+02  0.91040466300E+02  0.00000000000E+00 0.  1.
         12    1    4    4    0    0  0.39470079207E+01  0.41178690858E+02 -0.15300697881E+02  0.44106403254E+02  0.00000000000E+00 0. -1.
         -5    1    5    5    0  502  0.10762296648E+02  0.45171632705E+02  0.43452216633E+03  0.43702163158E+03  0.47000000000E+01 0.  1.
         13    1    6    6    0    0  0.35233130174E+01  0.11470632492E+02  0.12996163462E+03  0.13051442686E+03  0.00000000000E+00 0. -1.
        -14    1    6    6    0    0  0.49740234585E+02 -0.83272924391E+02  0.25880817422E+03  0.27638766600E+03  0.00000000000E+00 0.  1.
</event>
<event>
12    1  0.8449700E-002  0.2051745E+03  0.7818608E-02  0.1145671E+00
         21   -1    0    0  501  502  0.00000000000E+00  0.00000000000E+00  0.36598987239E+03  0.36598987239E+03  0.00000000000E+00 0.  1.
         21   -1    0    0  502  503 -0.00000000000E+00 -0.00000000000E+00 -0.12700614438E+03  0.12700614438E+03  0.00000000000E+00 0.  1.
         -6    2    1    2    0  503  0.14229983516E+02 -0.11143226616E+03  0.41550286535E+02  0.20825659572E+03  0.17036649019E+03 0.  0.
        -24    2    3    3    0    0  0.65909514373E+02 -0.28634535674E+02  0.17468210988E+02  0.10761726720E+03  0.78181436971E+02 0.  0.
          6    2    1    2  501    0 -0.14229983516E+02  0.11143226616E+03  0.19743344147E+03  0.28473942105E+03  0.17168847287E+03 0.  0.
         24    2    5    5    0    0 -0.58521297488E+02  0.87944083353E+02  0.72638500891E+02  0.15016868716E+03  0.78200887051E+02 0.  0.
          5    1    5    5  501    0  0.44291313971E+02  0.23488182803E+02  0.12479494058E+03  0.13457073389E+03  0.47000000000E+01 0. -1.
        -11    1    6    6    0    0 -0.66675385142E+02  0.31922648914E+02  0.49749273793E+02  0.89104729058E+02  0.00000000000E+00 0.  1.
         12    1    6    6    0    0  0.81540876544E+01  0.56021434440E+02  0.22889227098E+02  0.61063958104E+02  0.00000000000E+00 0. -1.
         -5    1    3    3    0  503 -0.51679530856E+02 -0.82797730482E+02  0.24082075547E+02  0.10063932852E+03  0.47000000000E+01 0.  1.
         13    1    4    4    0    0 -0.14817167622E+02  0.78853834723E+01 -0.19913464411E+01  0.16902461048E+02  0.00000000000E+00 0. -1.
        -14    1    4    4    0    0  0.80726681994E+02 -0.36519919147E+02  0.19459557429E+02  0.90714806154E+02  0.00000000000E+00 0.  1.
</event>
<event>
12    1  0.8449700E-002  0.1756998E+03  0.7818608E-02  0.1172318E+00
         21   -1    0    0  503  502  0.00000000000E+00  0.00000000000E+00  0.11224513898E+03  0.11224513898E+03  0.00000000000E+00 0.  1.
         21   -1    0    0  501  503 -0.00000000000E+00 -0.00000000000E+00 -0.40330086321E+03  0.40330086321E+03  0.00000000000E+00 0. -1.
          6    2    1    2  501    0 -0.18050242653E+01  0.33409310907E+02 -0.29223857043E+03  0.34098945425E+03  0.17248474047E+03 0.  0.
         24    2    3    3    0    0 -0.24089047424E+02  0.84946332839E+02 -0.20506054458E+03  0.23718800673E+03  0.80075975936E+02 0.  0.
         -6    2    1    2    0  502  0.18050242653E+01 -0.33409310907E+02  0.11828461978E+01  0.17455654793E+03  0.17131593368E+03 0.  0.
        -24    2    5    5    0    0 -0.21570300808E+02  0.36752203490E+02 -0.24660792490E+02  0.96077075550E+02  0.82502408581E+02 0.  0.
          5    1    3    3  501    0  0.22284023158E+02 -0.51537021932E+02 -0.87178025846E+02  0.10380144752E+03  0.47000000000E+01 0. -1.
        -11    1    4    4    0    0  0.20141065825E+02  0.14605000060E+02 -0.13326347083E+02  0.28223396073E+02  0.00000000000E+00 0.  1.
         12    1    4    4    0    0 -0.44230113248E+02  0.70341332779E+02 -0.19173419750E+03  0.20896461065E+03  0.00000000000E+00 0. -1.
         -5    1    5    5    0  502  0.23375325074E+02 -0.70161514397E+02  0.25843638687E+02  0.78479472382E+02  0.47000000000E+01 0.  1.
         13    1    6    6    0    0 -0.41045157436E+02 -0.49130040137E+01 -0.28056273810E+02  0.49959954539E+02  0.00000000000E+00 0. -1.
        -14    1    6    6    0    0  0.19474856628E+02  0.41665207503E+02  0.33954813207E+01  0.46117121011E+02  0.00000000000E+00 0.  1.
</event>
<event>
12    1  0.8449700E-002  0.1806342E+03  0.7818608E-02  0.1167387E+00
         21   -1    0    0  501  502  0.00000000000E+00  0.00000000000E+00  0.14648409422E+04  0.14648409422E+04  0.00000000000E+00 0. -1.
         21   -1    0    0  502  503 -0.00000000000E+00 -0.00000000000E+00 -0.11034849680E+03  0.11034849680E+03  0.00000000000E+00 0. -1.
         -6    2    1    2    0  503  0.26065353294E+02 -0.43713450617E+02 -0.27088277220E+02  0.18185028254E+03  0.17246878584E+03 0.  0.
        -24    2    3    3    0    0  0.72905010437E+02  0.78431900958E+01 -0.26719339123E+02  0.11203433309E+03  0.80381045832E+02 0.  0.
          6    2    1    2  501    0 -0.26065353294E+02  0.43713450617E+02  0.13815807226E+04  0.13933391565E+04  0.17331602174E+03 0.  0.
         24    2    5    5    0    0 -0.70200731803E+02 -0.15089503591E+02  0.79996549358E+03  0.80707634532E+03  0.79193436637E+02 0.  0.
          5    1    5    5  501    0  0.44135378509E+02  0.58802954207E+02  0.58161522905E+03  0.58626281113E+03  0.47000000000E+01 0. -1.
        -13    1    6    6    0    0 -0.14652217825E+02 -0.53749006771E+01  0.21480707629E+02  0.26551795509E+02  0.00000000000E+00 0.  1.
         14    1    6    6    0    0 -0.55548513978E+02 -0.97146029137E+01  0.77848478595E+03  0.78052454982E+03  0.00000000000E+00 0. -1.
         -5    1    3    3    0  503 -0.46839657142E+02 -0.51556640713E+02 -0.36893809648E+00  0.69815949453E+02  0.47000000000E+01 0.  1.
         13    1    4    4    0    0  0.22196268557E+02 -0.31483063176E+02 -0.28372409317E+02  0.47841939919E+02  0.00000000000E+00 0. -1.
        -14    1    4    4    0    0  0.50708741880E+02  0.39326253271E+02  0.16530701935E+01  0.64192393166E+02  0.00000000000E+00 0.  1.
</event>
<event>
12    1  0.8449700E-002  0.2924988E+03  0.7818608E-02  0.1089072E+00
         21   -1    0    0  501  502  0.00000000000E+00  0.00000000000E+00  0.32773506263E+03  0.32773506263E+03  0.00000000000E+00 0.  1.
         21   -1    0    0  502  503 -0.00000000000E+00 -0.00000000000E+00 -0.45843736981E+03  0.45843736981E+03  0.00000000000E+00 0.  1.
         -6    2    1    2    0  503 -0.19095295634E+03 -0.13951651067E+03 -0.32336732886E+03  0.43592201986E+03  0.17185368700E+03 0.  0.
        -24    2    3    3    0    0 -0.13971431405E+03 -0.13249987088E+03 -0.15807437930E+03  0.26266359763E+03  0.83236715435E+02 0.  0.
          6    2    1    2  501    0  0.19095295634E+03  0.13951651067E+03  0.19266502169E+03  0.35025041258E+03  0.17212685045E+03 0.  0.
         24    2    5    5    0    0  0.17735464619E+03  0.59462922805E+02  0.17220431951E+03  0.26638014787E+03  0.79457824089E+02 0.  0.
          5    1    5    5  501    0  0.13598310152E+02  0.80053587867E+02  0.20460702182E+02  0.83870264714E+02  0.47000000000E+01 0. -1.
        -13    1    6    6    0    0  0.65988424257E+02  0.36495927609E+02  0.11890001242E+03  0.14079644109E+03  0.00000000000E+00 0.  1.
         14    1    6    6    0    0  0.11136622194E+03  0.22966995196E+02  0.53304307081E+02  0.12558370679E+03  0.00000000000E+00 0. -1.
         -5    1    3    3    0  503 -0.51238642295E+02 -0.70166397958E+01 -0.16529294956E+03  0.17325842223E+03  0.47000000000E+01 0.  1.
         13    1    4    4    0    0 -0.40662724041E+02 -0.74585043226E+02 -0.28532050664E+02  0.89612854628E+02  0.00000000000E+00 0. -1.
        -14    1    4    4    0    0 -0.99051590008E+02 -0.57914827650E+02 -0.12954232864E+03  0.17305074300E+03  0.00000000000E+00 0.  1.
</event>
<event>
12    1  0.8449700E-002  0.2213976E+03  0.7818608E-02  0.1133062E+00
         21   -1    0    0  501  502  0.00000000000E+00  0.00000000000E+00  0.34890015183E+03  0.34890015183E+03  0.00000000000E+00 0.  1.
         21   -1    0    0  502  503 -0.00000000000E+00 -0.00000000000E+00 -0.14696104146E+03  0.14696104146E+03  0.00000000000E+00 0. -1.
         -6    2    1    2    0  503 -0.98394120444E+02  0.98731644286E+02  0.45794719306E+02  0.22494058210E+03  0.17050445343E+03 0.  0.
        -24    2    3    3    0    0 -0.96712036793E+02  0.13422151500E+03  0.43360336395E+02  0.18901877050E+03  0.80494370490E+02 0.  0.
          6    2    1    2  501    0  0.98394120444E+02 -0.98731644286E+02  0.15614439106E+03  0.27092061118E+03  0.17201036649E+03 0.  0.
         24    2    5    5    0    0  0.86838459023E+02 -0.40757421391E+02  0.25127958844E+02  0.12710844430E+03  0.79517651703E+02 0.  0.
          5    1    5    5  501    0  0.11555661422E+02 -0.57974222895E+02  0.13101643222E+03  0.14381216688E+03  0.47000000000E+01 0. -1.
        -11    1    6    6    0    0 -0.48135795267E+01 -0.59437888788E+01  0.27999303445E+02  0.29025164384E+02  0.00000000000E+00 0.  1.
         12    1    6    6    0    0  0.91652038549E+02 -0.34813632513E+02 -0.28713446015E+01  0.98083279915E+02  0.00000000000E+00 0. -1.
         -5    1    3    3    0  503 -0.16820836516E+01 -0.35489870712E+02  0.24343829104E+01  0.35921811601E+02  0.47000000000E+01 0.  1.
         11    1    4    4    0    0 -0.76229274605E+02  0.14201074878E+03  0.31952704800E+02  0.16431351259E+03  0.00000000000E+00 0. -1.
        -12    1    4    4    0    0 -0.20482762188E+02 -0.77892337831E+01  0.11407631595E+02  0.24705257910E+02  0.00000000000E+00 0.  1.
</event>
<event>
12    1  0.8449700E-002  0.2472827E+03  0.7818608E-02  0.1115103E+00
         21   -1    0    0  503  502  0.00000000000E+00  0.00000000000E+00  0.19889287783E+03  0.19889287783E+03  0.00000000000E+00 0. -1.
         21   -1    0    0  501  503 -0.00000000000E+00 -0.00000000000E+00 -0.31008922849E+03  0.31008922849E+03  0.00000000000E+00 0.  1.
          6    2    1    2  501    0 -0.10910149945E+03 -0.13958352702E+03 -0.81296657454E+02  0.25989829070E+03  0.17190484810E+03 0.  0.
         24    2    3    3    0    0 -0.27733053509E+02 -0.52900532851E+02  0.21653142651E+02  0.10255943087E+03  0.80510804493E+02 0.  0.
         -6    2    1    2    0  502  0.10910149945E+03  0.13958352702E+03 -0.29899693205E+02  0.24908381561E+03  0.17251683208E+03 0.  0.
        -24    2    5    5    0    0 -0.86401601367E+01  0.23091326644E+02  0.11053696780E+01  0.80510582050E+02  0.76634654345E+02 0.  0.
          5    1    3    3  501    0 -0.81368445939E+02 -0.86682994167E+02 -0.10294980010E+03  0.15733885983E+03  0.47000000000E+01 0. -1.
        -13    1    4    4    0    0  0.49098369412E+01  0.12798238797E+02 -0.15194644790E+02  0.20464081837E+02  0.00000000000E+00 0.  1.
         14    1    4    4    0    0 -0.32642890450E+02 -0.65698771648E+02  0.36847787441E+02  0.82095349030E+02  0.00000000000E+00 0. -1.
         -5    1    5    5    0  502  0.11774165959E+03  0.11649220037E+03 -0.31005062883E+02  0.16857323356E+03  0.47000000000E+01 0.  1.
         13    1    6    6    0    0 -0.39575589786E+02 -0.24651830497E+01 -0.48378842291E+01  0.39946333476E+02  0.00000000000E+00 0. -1.
        -14    1    6    6    0    0  0.30935429650E+02  0.25556509694E+02  0.59432539070E+01  0.40564248574E+02  0.00000000000E+00 0.  1.
</event>
<event>
12    1  0.8449700E-002  0.2214463E+03  0.7818608E-02  0.1132843E+00
         21   -1    0    0  503  502  0.00000000000E+00  0.00000000000E+00  0.24937676355E+03  0.24937676355E+03  0.00000000000E+00 0. -1.
         21   -1    0    0  501  503 -0.00000000000E+00 -0.00000000000E+00 -0.51470641196E+03  0.51470641196E+03  0.00000000000E+00 0.  1.
          6    2    1    2  501    0  0.36005227500E+01 -0.13949596396E+03 -0.43308356896E+03  0.48641529682E+03  0.17194875849E+03 0.  0.
         24    2    3    3    0    0 -0.46655310687E+02 -0.14087514770E+03 -0.36295711614E+03  0.40000140715E+03  0.78998305744E+02 0.  0.
         -6    2    1    2    0  502 -0.36005227500E+01  0.13949596396E+03  0.16775392055E+03  0.27766787869E+03  0.17171483706E+03 0.  0.
        -24    2    5    5    0    0  0.56647434250E+02  0.12463840081E+03  0.13664889987E+03  0.20809650658E+03  0.76730511866E+02 0.  0.
          5    1    3    3  501    0  0.50255833437E+02  0.13791837327E+01 -0.70126452827E+02  0.86413889672E+02  0.47000000000E+01 0. -1.
        -13    1    4    4    0    0  0.39244214115E+01 -0.10351058940E+03 -0.19788210426E+03  0.22335436057E+03  0.00000000000E+00 0.  1.
         14    1    4    4    0    0 -0.50579732099E+02 -0.37364558294E+02 -0.16507501188E+03  0.17664704657E+03  0.00000000000E+00 0. -1.
         -5    1    5    5    0  502 -0.60247957000E+02  0.14857563154E+02  0.31105020684E+02  0.69571372110E+02  0.47000000000E+01 0.  1.
         13    1    6    6    0    0  0.56881888018E+02  0.10630397542E+03  0.70962890015E+02  0.13989930712E+03  0.00000000000E+00 0. -1.
        -14    1    6    6    0    0 -0.23445376818E+00  0.18334425393E+02  0.65686009856E+02  0.68197199457E+02  0.00000000000E+00 0.  1.
</event>
<event>
12    1  0.8449700E-002  0.2221812E+03  0.7818608E-02  0.1132651E+00
         21   -1    0    0  503  502  0.00000000000E+00  0.00000000000E+00  0.84409131448E+03  0.84409131448E+03  0.00000000000E+00 0. -1.
         21   -1    0    0  501  503 -0.00000000000E+00 -0.00000000000E+00 -0.95079565915E+02  0.95079565915E+02  0.00000000000E+00 0. -1.
          6    2    1    2  501    0 -0.89609884865E+02  0.10383978629E+03  0.79943770432E+02  0.23417695144E+03  0.17214878876E+03 0.  0.
         24    2    3    3    0    0 -0.68418908010E+02  0.21954728251E+01  0.53347563724E+01  0.10623470299E+03  0.81064082177E+02 0.  0.
         -6    2    1    2    0  502  0.89609884865E+02 -0.10383978629E+03  0.66906797813E+03  0.70499392896E+03  0.17479086881E+03 0.  0.
        -24    2    5    5    0    0  0.12350323133E+03 -0.59568355793E+02  0.41999616533E+03  0.44971452041E+03  0.83934104020E+02 0.  0.
          5    1    3    3  501    0 -0.21190976855E+02  0.10164431347E+03  0.74609014060E+02  0.12794224845E+03  0.47000000000E+01 0. -1.
        -11    1    4    4    0    0 -0.95809742750E+01 -0.23736137868E+02  0.28113076047E+02  0.38020315014E+02  0.00000000000E+00 0.  1.
         12    1    4    4    0    0 -0.58837933735E+02  0.25931610693E+02 -0.22778319675E+02  0.68214387973E+02  0.00000000000E+00 0. -1.
         -5    1    5    5    0  502 -0.33893346463E+02 -0.44271430499E+02  0.24907181281E+03  0.25527940855E+03  0.47000000000E+01 0.  1.
         13    1    6    6    0    0  0.42151145671E+02 -0.43089802651E+02  0.28449896386E+03  0.29081456396E+03  0.00000000000E+00 0. -1.
        -14    1    6    6    0    0  0.81352085656E+02 -0.16478553142E+02  0.13549720147E+03  0.15889995645E+03  0.00000000000E+00 0.  1.
</event>
<event>
12    1  0.8449700E-002  0.2732777E+03  0.7818608E-02  0.1099650E+00
         21   -1    0    0  503  502  0.00000000000E+00  0.00000000000E+00  0.22874043764E+03  0.22874043764E+03  0.00000000000E+00 0.  1.
         21   -1    0    0  501  503 -0.00000000000E+00 -0.00000000000E+00 -0.33197076478E+03  0.33197076478E+03  0.00000000000E+00 0.  1.
          6    2    1    2  501    0 -0.16747742196E+03 -0.12995712248E+03 -0.97901186941E+01  0.27345302696E+03  0.17246208563E+03 0.  0.
         24    2    3    3    0    0 -0.18571435441E+03 -0.12318237104E+03 -0.37455026722E+02  0.23930745480E+03  0.78749355066E+02 0.  0.
         -6    2    1    2    0  502  0.16747742196E+03  0.12995712248E+03 -0.93440208447E+02  0.28725817545E+03  0.16984889243E+03 0.  0.
        -24    2    5    5    0    0  0.83998104185E+02  0.14104653349E+03 -0.40187964891E+02  0.18751017810E+03  0.81210764378E+02 0.  0.
          5    1    3    3  501    0  0.18236932455E+02 -0.67747514402E+01  0.27664908027E+02  0.34145572167E+02  0.47000000000E+01 0. -1.
        -13    1    4    4    0    0 -0.97824175574E+02 -0.47779143113E+02 -0.55347931686E+02  0.12213029675E+03  0.00000000000E+00 0.  1.
         14    1    4    4    0    0 -0.87890178839E+02 -0.75403227930E+02  0.17892904965E+02  0.11717715804E+03  0.00000000000E+00 0. -1.
         -5    1    5    5    0  502  0.83479317773E+02 -0.11089411010E+02 -0.53252243555E+02  0.99747997354E+02  0.47000000000E+01 0.  1.
         13    1    6    6    0    0 -0.74264646316E+01  0.17132010323E+02 -0.27172883925E+02  0.32970043607E+02  0.00000000000E+00 0. -1.
        -14    1    6    6    0    0  0.91424568817E+02  0.12391452317E+03 -0.13015080967E+02  0.15454013449E+03  0.00000000000E+00 0.  1.
</event>
<event>
12    1  0.8449700E-002  0.2688629E+03  0.7818608E-02  0.1102028E+00
         21   -1    0    0  503  502  0.00000000000E+00  0.00000000000E+00  0.11250012789E+04  0.11250012789E+04  0.00000000000E+00 0.  1.
         21   -1    0    0  501  503 -0.00000000000E+00 -0.00000000000E+00 -0.64926383865E+02  0.64926383865E+02  0.00000000000E+00 0.  1.
          6    2    1    2  501    0 -0.63161582819E+02 -0.19588945819E+03  0.46338723140E+03  0.53573780719E+03  0.17298903565E+03 0.  0.
         24    2    3    3    0    0 -0.21057637334E+02 -0.11180910706E+03  0.39647235053E+03  0.42023049594E+03  0.80365692098E+02 0.  0.
         -6    2    1    2    0  502  0.63161582819E+02  0.19588945819E+03  0.59668766366E+03  0.65418985560E+03  0.17194805561E+03 0.  0.
        -24    2    5    5    0    0  0.35728110215E+02  0.18428845187E+03  0.34020782828E+03  0.39594351057E+03  0.76099709481E+02 0.  0.
          5    1    3    3  501    0 -0.42103945485E+02 -0.84080351132E+02  0.66914880868E+02  0.11550731126E+03  0.47000000000E+01 0. -1.
        -11    1    4    4    0    0  0.18855009364E+02 -0.58131038077E+01  0.24843426161E+02  0.31725374347E+02  0.00000000000E+00 0.  1.
         12    1    4    4    0    0 -0.39912646698E+02 -0.10599600325E+03  0.37162892437E+03  0.38850512159E+03  0.00000000000E+00 0. -1.
         -5    1    5    5    0  502  0.27433472604E+02  0.11601006321E+02  0.25647983538E+03  0.25824634503E+03  0.47000000000E+01 0.  1.
         13    1    6    6    0    0 -0.91157559139E+01 -0.32740708591E+01  0.17597647312E+02  0.20087153526E+02  0.00000000000E+00 0. -1.
        -14    1    6    6    0    0  0.44843866129E+02  0.18756252273E+03  0.32261018097E+03  0.37585635704E+03  0.00000000000E+00 0.  1.
</event>
<event>
12    1  0.8449700E-002  0.1825046E+03  0.7818608E-02  0.1165558E+00
         21   -1    0    0  501  502  0.00000000000E+00  0.00000000000E+00  0.95577715197E+03  0.95577715197E+03  0.00000000000E+00 0. -1.
         21   -1    0    0  502  503 -0.00000000000E+00 -0.00000000000E+00 -0.13217357671E+03  0.13217357671E+03  0.00000000000E+00 0. -1.
         -6    2    1    2    0  503 -0.59015798401E+02 -0.12987522954E+02 -0.55090115415E+02  0.19063799592E+03  0.17221029139E+03 0.  0.
        -24    2    3    3    0    0 -0.76527246156E+02  0.66330761219E+01 -0.93437859428E+02  0.14390194793E+03  0.77953318992E+02 0.  0.
          6    2    1    2  501    0  0.59015798401E+02  0.12987522954E+02  0.87869369067E+03  0.89731273276E+03  0.17151092716E+03 0.  0.
         24    2    5    5    0    0  0.79472132578E+02  0.36290333735E+02  0.83613830158E+03  0.84444938308E+03  0.79590784907E+02 0.  0.
          5    1    5    5  501    0 -0.20456334177E+02 -0.23302810782E+02  0.42555389092E+02  0.52863349677E+02  0.47000000000E+01 0. -1.
        -11    1    6    6    0    0  0.27642935379E+02  0.21481236501E+02  0.93198600355E+02  0.99556790357E+02  0.00000000000E+00 0.  1.
         12    1    6    6    0    0  0.51829197199E+02  0.14809097234E+02  0.74293970122E+03  0.74489259273E+03  0.00000000000E+00 0. -1.
         -5    1    3    3    0  503  0.17511447755E+02 -0.19620599076E+02  0.38347744013E+02  0.46736047987E+02  0.47000000000E+01 0.  1.
         11    1    4    4    0    0  0.13977679388E+02 -0.88232366595E+01 -0.22271706569E+02  0.27735427520E+02  0.00000000000E+00 0. -1.
        -12    1    4    4    0    0 -0.90504925544E+02  0.15456312781E+02 -0.71166152859E+02  0.11616652041E+03  0.00000000000E+00 0.  1.
</event>
<event>
12    1  0.8449700E-002  0.2865606E+03  0.7818608E-02  0.1092224E+00
         21   -1    0    0  503  502  0.00000000000E+00  0.00000000000E+00  0.15149959289E+04  0.15149959289E+04  0.00000000000E+00 0. -1.
         21   -1    0    0  501  503 -0.00000000000E+00 -0.00000000000E+00 -0.74052788191E+02  0.74052788191E+02  0.00000000000E+00 0. -1.
          6    2    1    2  501    0  0.93596715076E+01 -0.22837855044E+03  0.30770141553E+03  0.42013734648E+03  0.17201994954E+03 0.  0.
         24    2    3    3    0    0  0.37467960560E+02 -0.43481200080E+02  0.86443811333E+02  0.13038896685E+03  0.78957503319E+02 0.  0.
         -6    2    1    2    0  502 -0.93596715076E+01  0.22837855044E+03  0.11332417252E+04  0.11689113707E+04  0.17283697200E+03 0.  0.
        -24    2    5    5    0    0 -0.14674868946E+02  0.82267165875E+02  0.72937207354E+03  0.73936559477E+03  0.87718998565E+02 0.  0.
          5    1    3    3  501    0 -0.28108289052E+02 -0.18489735036E+03  0.22125760419E+03  0.28974837963E+03  0.47000000000E+01 0. -1.
        -13    1    4    4    0    0 -0.12223129495E+02  0.24597173016E+01  0.53850547195E+02  0.55275098707E+02  0.00000000000E+00 0.  1.
         14    1    4    4    0    0  0.49691090055E+02 -0.45940917382E+02  0.32593264138E+02  0.75113868146E+02  0.00000000000E+00 0. -1.
         -5    1    5    5    0  502  0.53151974382E+01  0.14611138457E+03  0.40386965169E+03  0.42954577588E+03  0.47000000000E+01 0.  1.
         11    1    6    6    0    0  0.40679590576E+01  0.90433706397E+02  0.43689900440E+03  0.44617882467E+03  0.00000000000E+00 0. -1.
        -12    1    6    6    0    0 -0.18742828003E+02 -0.81665405217E+01  0.29247306914E+03  0.29318677010E+03  0.00000000000E+00 0.  1.
</event>
<event>
12    1  0.8449700E-002  0.1776431E+03  0.7818608E-02  0.1170162E+00
         21   -1    0    0  501  502  0.00000000000E+00  0.00000000000E+00  0.56280129259E+02  0.56280129259E+02  0.00000000000E+00 0.  1.
         21   -1    0    0  502  503 -0.00000000000E+00 -0.00000000000E+00 -0.13546696764E+04  0.13546696764E+04  0.00000000000E+00 0.  1.
         -6    2    1    2    0  503  0.86273853745E+01  0.42294227328E+02 -0.11897146096E+04  0.12029039588E+04  0.17231903022E+03 0.  0.
        -24    2    3    3    0    0  0.63701554057E+02  0.34257127663E+02 -0.98759060137E+03  0.99320425980E+03  0.76733740847E+02 0.  0.
          6    2    1    2  501    0 -0.86273853745E+01 -0.42294227328E+02 -0.10867493754E+03  0.20804584693E+03  0.17207439941E+03 0.  0.
         24    2    5    5    0    0  0.27484866905E+02 -0.98666066437E+01  0.32634650055E+01  0.85947766227E+02  0.80768808832E+02 0.  0.
          5    1    5    5  501    0 -0.36112252280E+02 -0.32427620684E+02 -0.11193840254E+03  0.12209808070E+03  0.47000000000E+01 0. -1.
        -11    1    6    6    0    0  0.52302346537E+02 -0.14255724663E+02 -0.13263773858E+02  0.55809397380E+02  0.00000000000E+00 0.  1.
         12    1    6    6    0    0 -0.24817479632E+02  0.43891180195E+01  0.16527238864E+02  0.30138368847E+02  0.00000000000E+00 0. -1.
         -5    1    3    3    0  503 -0.55074168682E+02  0.80370996652E+01 -0.20212400828E+03  0.20969969897E+03  0.47000000000E+01 0.  1.
         11    1    4    4    0    0  0.52438312091E+02 -0.14363835365E+02 -0.58817860654E+03  0.59068618533E+03  0.00000000000E+00 0. -1.
        -12    1    4    4    0    0  0.11263241966E+02  0.48620963027E+02 -0.39941199483E+03  0.40251807447E+03  0.00000000000E+00 0.  1.
</event>
<event>
12    1  0.8449700E-002  0.1939178E+03  0.7818608E-02  0.1158017E+00
         21   -1    0    0  503  502  0.00000000000E+00  0.00000000000E+00  0.90378128499E+02  0.90378128499E+02  0.00000000000E+00 0.  1.
         21   -1    0    0  501  503 -0.00000000000E+00 -0.00000000000E+00 -0.47265861458E+03  0.47265861458E+03  0.00000000000E+00 0.  1.
          6    2    1    2  501    0  0.22232871322E+02 -0.88237380001E+02 -0.66432892201E+02  0.19241048062E+03  0.15597540860E+03 0.  0.
         24    2    3    3    0    0 -0.42557890546E+02 -0.58812233118E+02 -0.40458271242E+02  0.11651283226E+03  0.81659754820E+02 0.  0.
         -6    2    1    2    0  502 -0.22232871322E+02  0.88237380001E+02 -0.31584759388E+03  0.37062626246E+03  0.17124248324E+03 0.  0.
        -24    2    5    5    0    0  0.19223445774E+02  0.45263947863E+02 -0.67610619343E+02  0.11526567892E+03  0.79351213261E+02 0.  0.
          5    1    3    3  501    0  0.64790761868E+02 -0.29425146884E+02 -0.25974620958E+02  0.75897648360E+02  0.47000000000E+01 0. -1.
        -11    1    4    4    0    0 -0.52148055415E+02 -0.40170761695E+02 -0.59096446987E+02  0.88461855199E+02  0.00000000000E+00 0.  1.
         12    1    4    4    0    0  0.95901648685E+01 -0.18641471422E+02  0.18638175745E+02  0.28050977061E+02  0.00000000000E+00 0. -1.
         -5    1    5    5    0  502 -0.41456317095E+02  0.42973432138E+02 -0.24823697454E+03  0.25536058354E+03  0.47000000000E+01 0.  1.
         13    1    6    6    0    0 -0.17531050423E+02 -0.10661917309E+02 -0.35581104157E+02  0.41073460807E+02  0.00000000000E+00 0. -1.
        -14    1    6    6    0    0  0.36754496196E+02  0.55925865172E+02 -0.32029515186E+02  0.74192218116E+02  0.00000000000E+00 0.  1.
</event>
<event>
12    1  0.8449700E-002  0.2266207E+03  0.7818608E-02  0.1130496E+00
         21   -1    0    0  501  502  0.00000000000E+00  0.00000000000E+00  0.36605304089E+03  0.36605304089E+03  0.00000000000E+00 0.  1.
         21   -1    0    0  502  503 -0.00000000000E+00 -0.00000000000E+00 -0.14362112045E+03  0.14362112045E+03  0.00000000000E+00 0. -1.
         -6    2    1    2    0  503  0.48170679967E+02  0.12613587019E+03  0.52192296077E+02  0.23255320286E+03  0.18200627526E+03 0.  0.
        -24    2    3    3    0    0 -0.11504723317E+01  0.27663408725E+02 -0.33906001255E+02  0.92680372994E+02  0.81691167505E+02 0.  0.
          6    2    1    2  501    0 -0.48170679967E+02 -0.12613587019E+03  0.17023962436E+03  0.27712095848E+03  0.17199948770E+03 0.  0.
         24    2    5    5    0    0 -0.25085329975E+02  0.73030810975E+01  0.68577068489E+02  0.10772127616E+03  0.78857150857E+02 0.  0.
          5    1    5    5  501    0 -0.23085349991E+02 -0.13343895129E+03  0.10166255587E+03  0.16939968232E+03  0.47000000000E+01 0. -1.
        -11    1    6    6    0    0 -0.91948800644E+01  0.40036933063E+02  0.55514735487E+02  0.69060753577E+02  0.00000000000E+00 0.  1.
         12    1    6    6    0    0 -0.15890449911E+02 -0.32733851965E+02  0.13062333003E+02  0.38660522582E+02  0.00000000000E+00 0. -1.
         -5    1    3    3    0  503  0.49321152298E+02  0.98472461463E+02  0.86098297332E+02  0.13987282986E+03  0.47000000000E+01 0.  1.
         13    1    4    4    0    0  0.34092413277E+02 -0.45320222329E+01 -0.28450710117E+02  0.44634905340E+02  0.00000000000E+00 0. -1.
        -14    1    4    4    0    0 -0.35242885609E+02  0.32195430958E+02 -0.54552911377E+01  0.48045467653E+02  0.00000000000E+00 0.  1.
</event>
<event>
12    1  0.8449700E-002  0.2778504E+03  0.7818608E-02  0.1096960E+00
         21   -1    0    0  503  502  0.00000000000E+00  0.00000000000E+00  0.38999370238E+03  0.38999370238E+03  0.00000000000E+00 0. -1.
         21   -1    0    0  501  503 -0.00000000000E+00 -0.00000000000E+00 -0.21807179267E+03  0.21807179267E+03  0.00000000000E+00 0.  1.
          6    2    1    2  501    0  0.26445837730E+02 -0.21655854763E+03 -0.73658360627E+01  0.27794804764E+03  0.17205776577E+03 0.  0.
         24    2    3    3    0    0 -0.51451848217E+01 -0.11978382158E+03 -0.68964537278E+02  0.15886895502E+03  0.78157537243E+02 0.  0.
         -6    2    1    2    0  502 -0.26445837730E+02  0.21655854763E+03  0.17928774578E+03  0.33011744741E+03  0.17098668490E+03 0.  0.
        -24    2    5    5    0    0  0.50954526094E+02  0.11921296493E+03  0.99148249990E+02  0.18209242393E+03  0.80741443137E+02 0.  0.
          5    1    3    3  501    0  0.31591022552E+02 -0.96774726050E+02  0.61598701215E+02  0.11907909262E+03  0.47000000000E+01 0. -1.
        -11    1    4    4    0    0  0.13228914685E+02 -0.11586833850E+03 -0.38009057701E+02  0.12265873193E+03  0.00000000000E+00 0.  1.
         12    1    4    4    0    0 -0.18374099506E+02 -0.39154830765E+01 -0.30955479577E+02  0.36210223090E+02  0.00000000000E+00 0. -1.
         -5    1    5    5    0  502 -0.77400363824E+02  0.97345582699E+02  0.80139495785E+02  0.14802502348E+03  0.47000000000E+01 0.  1.
         11    1    6    6    0    0 -0.38709433763E+01  0.84859690755E+02  0.74061601928E+02  0.11269992102E+03  0.00000000000E+00 0. -1.
        -12    1    6    6    0    0  0.54825469470E+02  0.34353274175E+02  0.25086648062E+02  0.69392502910E+02  0.00000000000E+00 0.  1.
</event>
<event>
12    1  0.8449700E-002  0.1883774E+03  0.7818608E-02  0.1160264E+00
         21   -1    0    0  503  502  0.00000000000E+00  0.00000000000E+00  0.47434503094E+03  0.47434503094E+03  0.00000000000E+00 0. -1.
         21   -1    0    0  501  503 -0.00000000000E+00 -0.00000000000E+00 -0.79517809005E+02  0.79517809005E+02  0.00000000000E+00 0. -1.
          6    2    1    2  501    0  0.50699775559E+02  0.56737816170E+02  0.12533738008E+03  0.22506071638E+03  0.17074314097E+03 0.  0.
         24    2    3    3    0    0  0.90410042625E+02  0.21990660382E+01  0.80226369380E+02  0.14376819604E+03  0.77808817951E+02 0.  0.
         -6    2    1    2    0  502 -0.50699775559E+02 -0.56737816170E+02  0.26948984186E+03  0.32880212357E+03  0.17232647670E+03 0.  0.
        -24    2    5    5    0    0 -0.47567111662E+02 -0.11427475737E+02  0.51273935503E+02  0.10586017525E+03  0.78639321769E+02 0.  0.
          5    1    3    3  501    0 -0.39710267065E+02  0.54538750132E+02  0.45111010700E+02  0.81292520337E+02  0.47000000000E+01 0. -1.
        -13    1    4    4    0    0 -0.78642980344E+01  0.23230684891E+01  0.34346146106E+02  0.35311493641E+02  0.00000000000E+00 0.  1.
         14    1    4    4    0    0  0.98274340659E+02 -0.12400245090E+00  0.45880223274E+02  0.10845670240E+03  0.00000000000E+00 0. -1.
         -5    1    5    5    0  502 -0.31326638968E+01 -0.45310340433E+02  0.21821590636E+03  0.22294194832E+03  0.47000000000E+01 0.  1.
         11    1    6    6    0    0  0.19895001172E+02  0.82585159921E+01  0.18155986277E+02  0.28171865322E+02  0.00000000000E+00 0. -1.
        -12    1    6    6    0    0 -0.67462112835E+02 -0.19685991729E+02  0.33117949226E+02  0.77688309927E+02  0.00000000000E+00 0.  1.
</event>
<event>
12    1  0.8449700E-002  0.2531672E+03  0.7818608E-02  0.1112258E+00
         21   -1    0    0  503  502  0.00000000000E+00  0.00000000000E+00  0.20135428682E+04  0.20135428682E+04  0.00000000000E+00 0.  1.
         21   -1    0    0  501  503 -0.00000000000E+00 -0.00000000000E+00 -0.37154678726E+02  0.37154678726E+02  0.00000000000E+00 0. -1.
          6    2    1    2  501    0  0.11550844858E+03  0.14473367956E+03  0.58367431730E+03  0.63621483999E+03  0.17263711726E+03 0.  0.
         24    2    3    3    0    0  0.12245677440E+03  0.14354276833E+03  0.59071645559E+03  0.62519761652E+03  0.79535783468E+02 0.  0.
         -6    2    1    2    0  502 -0.11550844858E+03 -0.14473367956E+03  0.13927138722E+04  0.14144827070E+04  0.16376617105E+03 0.  0.
        -24    2    5    5    0    0 -0.58540670978E+02 -0.18341273067E+02  0.43050064354E+03  0.44232183781E+03  0.80959197484E+02 0.  0.
          5    1    3    3  501    0 -0.69483258210E+01  0.11909112288E+01 -0.70421382954E+01  0.11017223472E+02  0.47000000000E+01 0. -1.
        -11    1    4    4    0    0  0.13924936422E+02  0.73766342693E+02  0.24202091893E+03  0.25339593992E+03  0.00000000000E+00 0.  1.
         12    1    4    4    0    0  0.10853183798E+03  0.69776425635E+02  0.34869553667E+03  0.37180167660E+03  0.00000000000E+00 0. -1.
         -5    1    5    5    0  502 -0.56967777605E+02 -0.12639240649E+03  0.96221322866E+03  0.97216086915E+03  0.47000000000E+01 0.  1.
         11    1    6    6    0    0 -0.50823642136E+02 -0.48022613771E+02  0.32597329578E+03  0.33338836751E+03  0.00000000000E+00 0. -1.
        -12    1    6    6    0    0 -0.77170288426E+01  0.29681340704E+02  0.10452734776E+03  0.10893347029E+03  0.00000000000E+00 0.  1.
</event>
<event>
12    1  0.8449700E-002  0.1732209E+03  0.7818608E-02  0.1174887E+00
         21   -1    0    0  501  502  0.00000000000E+00  0.00000000000E+00  0.33811064501E+02  0.33811064501E+02  0.00000000000E+00 0.  1.
         21   -1    0    0  502  503 -0.00000000000E+00 -0.00000000000E+00 -0.95884990388E+03  0.95884990388E+03  0.00000000000E+00 0.  1.
         -6    2    1    2    0  503  0.49151205074E+01 -0.85575194975E+00 -0.60628626510E+03  0.63054619202E+03  0.17314899452E+03 0.  0.
        -24    2    3    3    0    0  0.76700062300E+01  0.35592553865E+01 -0.13020184416E+03  0.15441013211E+03  0.82574035759E+02 0.  0.
          6    2    1    2  501    0 -0.49151205074E+01  0.85575194975E+00 -0.31875257428E+03  0.36211477636E+03  0.17175277851E+03 0.  0.
         24    2    5    5    0    0  0.47769449007E+02  0.29107902295E+01 -0.96720014639E+02  0.13385958017E+03  0.79203743681E+02 0.  0.
          5    1    5    5  501    0 -0.52684569514E+02 -0.20550382797E+01 -0.22203255964E+03  0.22825519619E+03  0.47000000000E+01 0. -1.
        -11    1    6    6    0    0  0.45692506684E+02 -0.29669832556E+02 -0.37184660013E+02  0.65960617578E+02  0.00000000000E+00 0.  1.
         12    1    6    6    0    0  0.20769423226E+01  0.32580622785E+02 -0.59535354626E+02  0.67898962591E+02  0.00000000000E+00 0. -1.
         -5    1    3    3    0  503 -0.27548857226E+01 -0.44150073363E+01 -0.47608442095E+03  0.47613605992E+03  0.47000000000E+01 0.  1.
         13    1    4    4    0    0  0.24747014911E+02  0.37118033653E+02 -0.80763564651E+02  0.92265467779E+02  0.00000000000E+00 0. -1.
        -14    1    4    4    0    0 -0.17077008681E+02 -0.33558778267E+02 -0.49438279505E+02  0.62144664329E+02  0.00000000000E+00 0.  1.
</event>
<event>
12    1  0.8449700E-002  0.1825046E+03  0.7818608E-02  0.1165433E+00
         21   -1    0    0  503  502  0.00000000000E+00  0.00000000000E+00  0.17977991423E+03  0.17977991423E+03  0.00000000000E+00 0. -1.
         21   -1    0    0  501  503 -0.00000000000E+00 -0.00000000000E+00 -0.38635571446E+03  0.38635571446E+03  0.00000000000E+00 0. -1.
          6    2    1    2  501    0 -0.37554216881E+02  0.44954486580E+02  0.10097861162E+03  0.20857758145E+03  0.17284878481E+03 0.  0.
         24    2    3    3    0    0 -0.85988462307E+02 -0.27939746315E+01  0.63073085999E+02  0.13057302677E+03  0.75294616002E+02 0.  0.
         -6    2    1    2    0  502  0.37554216881E+02 -0.44954486580E+02 -0.30755441185E+03  0.35755804724E+03  0.17270441752E+03 0.  0.
        -24    2    5    5    0    0  0.11932443731E+02  0.23932952199E+02 -0.23879520091E+03  0.25680154090E+03  0.90601953717E+02 0.  0.
          5    1    3    3  501    0  0.48434245426E+02  0.47748461212E+02  0.37905525624E+02  0.78004554681E+02  0.47000000000E+01 0. -1.
        -13    1    4    4    0    0  0.52593319681E+01 -0.31862522576E+01 -0.11293135701E+02  0.12858759278E+02  0.00000000000E+00 0.  1.
         14    1    4    4    0    0 -0.91247794275E+02  0.39227762605E+00  0.74366221700E+02  0.11771426749E+03  0.00000000000E+00 0. -1.
         -5    1    5    5    0  502  0.25621773150E+02 -0.68887438779E+02 -0.68759210936E+02  0.10075650634E+03  0.47000000000E+01 0.  1.
         13    1    6    6    0    0  0.48875297459E+02  0.63111583240E+01 -0.16742854915E+03  0.17453064055E+03  0.00000000000E+00 0. -1.
        -14    1    6    6    0    0 -0.36942853728E+02  0.17621793875E+02 -0.71366651763E+02  0.82270900352E+02  0.00000000000E+00 0.  1.
</event>
<event>
12    1  0.8449700E-002  0.2355949E+03  0.7818608E-02  0.1123018E+00
         21   -1    0    0  501  502  0.00000000000E+00  0.00000000000E+00  0.36453587320E+03  0.36453587320E+03  0.00000000000E+00 0. -1.
         21   -1    0    0  502  503 -0.00000000000E+00 -0.00000000000E+00 -0.16829037068E+03  0.16829037068E+03  0.00000000000E+00 0.  1.
         -6    2    1    2    0  503  0.91382624054E+02 -0.13151641724E+03  0.18305039988E+03  0.29834944418E+03  0.17279348935E+03 0.  0.
        -24    2    3    3    0    0  0.26469322922E+02 -0.12007886478E+03  0.58322999975E+02  0.15719857257E+03  0.78678205804E+02 0.  0.
          6    2    1    2  501    0 -0.91382624054E+02  0.13151641724E+03  0.13195102646E+02  0.23447679970E+03  0.17075686482E+03 0.  0.
         24    2    5    5    0    0 -0.10332873224E+03  0.45128326406E+02 -0.23056924020E+02  0.13991512048E+03  0.79569004290E+02 0.  0.
          5    1    5    5  501    0  0.11946108189E+02  0.86388090838E+02  0.36252026667E+02  0.94561679220E+02  0.47000000000E+01 0. -1.
        -13    1    6    6    0    0 -0.39646176550E+02  0.60135574363E+02 -0.18291976223E+02  0.74314890925E+02  0.00000000000E+00 0.  1.
         14    1    6    6    0    0 -0.63682555692E+02 -0.15007247956E+02 -0.47649477971E+01  0.65600229559E+02  0.00000000000E+00 0. -1.
         -5    1    3    3    0  503  0.64913301132E+02 -0.11437552464E+02  0.12472739990E+03  0.14115087161E+03  0.47000000000E+01 0.  1.
         11    1    4    4    0    0  0.30706492465E+02 -0.10704116289E+02  0.29749299656E+02  0.44073661239E+02  0.00000000000E+00 0. -1.
        -12    1    4    4    0    0 -0.42371695429E+01 -0.10937474849E+03  0.28573700319E+02  0.11312491133E+03  0.00000000000E+00 0.  1.
</event>
<event>
12    1  0.8449700E-002  0.2921605E+03  0.7818608E-02  0.1089521E+00
         21   -1    0    0  503  502  0.00000000000E+00  0.00000000000E+00  0.62661413037E+03  0.62661413037E+03  0.00000000000E+00 0.  1.
         21   -1    0    0  501  503 -0.00000000000E+00 -0.00000000000E+00 -0.13703974597E+03  0.13703974597E+03  0.00000000000E+00 0. -1.
          6    2    1    2  501    0  0.65936909309E+02  0.22637805543E+03  0.28851194580E+03  0.40899367592E+03  0.16864751432E+03 0.  0.
         24    2    3    3    0    0  0.94177487010E+02  0.16274284221E+03  0.14906911780E+03  0.25306624770E+03  0.80413258199E+02 0.  0.
         -6    2    1    2    0  502 -0.65936909309E+02 -0.22637805543E+03  0.20106243859E+03  0.35466020041E+03  0.17251971932E+03 0.  0.
        -24    2    5    5    0    0 -0.26191701940E+02 -0.21623798819E+03  0.10856264661E+03  0.25336457371E+03  0.70447755000E+02 0.  0.
          5    1    3    3  501    0 -0.28240577701E+02  0.63635213217E+02  0.13944282800E+03  0.15592742822E+03  0.47000000000E+01 0. -1.
        -13    1    4    4    0    0 -0.28668715107E+01 -0.49082984607E+01  0.18762483956E+02  0.19604620635E+02  0.00000000000E+00 0.  1.
         14    1    4    4    0    0  0.97044358521E+02  0.16765114067E+03  0.13030663385E+03  0.23346162707E+03  0.00000000000E+00 0. -1.
         -5    1    5    5    0  502 -0.39745207369E+02 -0.10140067241E+02  0.92499791981E+02  0.10129562670E+03  0.47000000000E+01 0.  1.
         13    1    6    6    0    0  0.77938079647E-01 -0.87852394202E+02  0.80685715032E+01  0.88222168911E+02  0.00000000000E+00 0. -1.
        -14    1    6    6    0    0 -0.26269640020E+02 -0.12838559399E+03  0.10049407511E+03  0.16514240480E+03  0.00000000000E+00 0.  1.
</event>
<event>
12    1  0.8449700E-002  0.1945335E+03  0.7818608E-02  0.1154937E+00
         21   -1    0    0  501  502  0.00000000000E+00  0.00000000000E+00  0.43028401965E+03  0.43028401965E+03  0.00000000000E+00 0.  1.
         21   -1    0    0  502  503 -0.00000000000E+00 -0.00000000000E+00 -0.10761308643E+03  0.10761308643E+03  0.00000000000E+00 0.  1.
         -6    2    1    2    0  503  0.85590208143E+02 -0.26080231167E+02  0.42636544074E+02  0.19692419958E+03  0.17016287287E+03 0.  0.
        -24    2    3    3    0    0  0.22566473555E+02 -0.17859270686E+02 -0.40605790928E+02  0.92086459961E+02  0.77478297433E+02 0.  0.
          6    2    1    2  501    0 -0.85590208143E+02  0.26080231167E+02  0.28003438914E+03  0.34097290649E+03  0.17273506208E+03 0.  0.
         24    2    5    5    0    0 -0.79043120147E+02  0.62344952549E+02  0.11742598569E+03  0.17417489316E+03  0.80083227593E+02 0.  0.
          5    1    5    5  501    0 -0.65470879959E+01 -0.36264721382E+02  0.16260840345E+03  0.16679801333E+03  0.47000000000E+01 0. -1.
        -11    1    6    6    0    0 -0.62763688995E+02 -0.11353789695E+01  0.51217349862E+02  0.81017199832E+02  0.00000000000E+00 0.  1.
         12    1    6    6    0    0 -0.16279431152E+02  0.63480331519E+02  0.66208635829E+02  0.93157693331E+02  0.00000000000E+00 0. -1.
         -5    1    3    3    0  503  0.63023734588E+02 -0.82209604809E+01  0.83242335003E+02  0.10483773962E+03  0.47000000000E+01 0.  1.
         13    1    4    4    0    0  0.56505401279E+01 -0.19534331364E+02  0.20371599541E+02  0.28784036781E+02  0.00000000000E+00 0. -1.
        -14    1    4    4    0    0  0.16915933427E+02  0.16750606781E+01 -0.60977390469E+02  0.63302423179E+02  0.00000000000E+00 0.  1.
</event>
<event>
12    1  0.8449700E-002  0.2733853E+03  0.7818608E-02  0.1100109E+00
         21   -1    0    0  501  502  0.00000000000E+00  0.00000000000E+00  0.16840180801E+03  0.16840180801E+03  0.00000000000E+00 0.  1.
         21   -1    0    0  502  503 -0.00000000000E+00 -0.00000000000E+00 -0.46676723714E+03  0.46676723714E+03  0.00000000000E+00 0.  1.
         -6    2    1    2    0  503 -0.21033869855E+03 -0.27204126967E+02 -0.23302078694E+03  0.35921888475E+03  0.17250242717E+03 0.  0.
        -24    2    3    3    0    0 -0.55143741970E+02  0.33417879074E+02 -0.35686100413E+02  0.10090982437E+03  0.68932633577E+02 0.  0.
          6    2    1    2  501    0  0.21033869855E+03  0.27204126967E+02 -0.65344642199E+02  0.27595016040E+03  0.16400041502E+03 0.  0.
         24    2    5    5    0    0  0.11721029534E+03  0.27143322169E+02 -0.10273634997E+03  0.17548557464E+03  0.75930336695E+02 0.  0.
          5    1    5    5  501    0  0.93128403218E+02  0.60804798560E-01  0.37391707766E+02  0.10046458576E+03  0.47000000000E+01 0. -1.
        -13    1    6    6    0    0  0.11140375583E+03  0.22829038554E+02 -0.53419086882E+02  0.12564060115E+03  0.00000000000E+00 0.  1.
         14    1    6    6    0    0  0.58065395094E+01  0.43142836143E+01 -0.49317263083E+02  0.49844973489E+02  0.00000000000E+00 0. -1.
         -5    1    3    3    0  503 -0.15519495658E+03 -0.60622006042E+02 -0.19733468653E+03  0.25830906037E+03  0.47000000000E+01 0.  1.
         11    1    4    4    0    0 -0.14857572897E+02  0.18134115465E+02 -0.50231685591E+02  0.55432985247E+02  0.00000000000E+00 0. -1.
        -12    1    4    4    0    0 -0.40286169074E+02  0.15283763610E+02  0.14545585178E+02  0.45476839126E+02  0.00000000000E+00 0.  1.
</event>
<event>
12    1  0.8449700E-002  0.3728867E+03  0.7818608E-02  0.1053600E+00
         21   -1    0    0  503  502  0.00000000000E+00  0.00000000000E+00  0.15263212090E+03  0.15263212090E+03  0.00000000000E+00 0. -1.
         21   -1    0    0  501  503 -0.00000000000E+00 -0.00000000000E+00 -0.92313763513E+03  0.92313763513E+03  0.00000000000E+00 0.  1.
          6    2    1    2  501    0 -0.17390168851E+03  0.28097372926E+03 -0.44733192216E+03  0.58236615757E+03  0.17279021701E+03 0.  0.
         24    2    3    3    0    0 -0.16253708140E+03  0.29396108364E+03 -0.44628113004E+03  0.56444913125E+03  0.81268402270E+02 0.  0.
         -6    2    1    2    0  502  0.17390168851E+03 -0.28097372926E+03 -0.32317359206E+03  0.49340359846E+03  0.17267862220E+03 0.  0.
        -24    2    5    5    0    0  0.74864105845E+02 -0.80411896467E+02 -0.18708817477E+03  0.23153565015E+03  0.80845931942E+02 0.  0.
          5    1    3    3  501    0 -0.11364607107E+02 -0.12987354371E+02 -0.10507921184E+01  0.17917026326E+02  0.47000000000E+01 0. -1.
        -11    1    4    4    0    0 -0.66716793220E+02  0.94387614420E+02 -0.96886175915E+02  0.15082136234E+03  0.00000000000E+00 0.  1.
         12    1    4    4    0    0 -0.95820288181E+02  0.19957346922E+03 -0.34939495413E+03  0.41362776891E+03  0.00000000000E+00 0. -1.
         -5    1    5    5    0  502  0.99037582663E+02 -0.20056183280E+03 -0.13608541729E+03  0.26186794831E+03  0.47000000000E+01 0.  1.
         13    1    6    6    0    0  0.12628208075E+02 -0.31806774210E+02 -0.70496177346E+01  0.34940515666E+02  0.00000000000E+00 0. -1.
        -14    1    6    6    0    0  0.62235897770E+02 -0.48605122257E+02 -0.18003855704E+03  0.19659513448E+03  0.00000000000E+00 0.  1.
</event>
<event>
12    1  0.8449700E-002  0.1898235E+03  0.7818608E-02  0.1159410E+00
         21   -1    0    0  501  502  0.00000000000E+00  0.00000000000E+00  0.16953167792E+03  0.16953167792E+03  0.00000000000E+00 0. -1.
         21   -1    0    0  502  503 -0.00000000000E+00 -0.00000000000E+00 -0.21059270585E+03  0.21059270585E+03  0.00000000000E+00 0.  1.
         -6    2    1    2    0  503  0.19635257252E+02  0.70904609218E+02 -0.26274292255E+01  0.18984172847E+03  0.17498563240E+03 0.  0.
        -24    2    3    3    0    0  0.62180925803E+02  0.14492780343E+02 -0.38060204028E+02  0.11065839765E+03  0.81976787103E+02 0.  0.
          6    2    1    2  501    0 -0.19635257252E+02 -0.70904609218E+02 -0.38433598702E+02  0.19028265530E+03  0.17122307223E+03 0.  0.
         24    2    5    5    0    0  0.89803304082E+01 -0.77841748319E+02 -0.80937240903E+02  0.13836324316E+03  0.80334089763E+02 0.  0.
          5    1    5    5  501    0 -0.28615587660E+02  0.69371391003E+01  0.42503642202E+02  0.51919412135E+02  0.47000000000E+01 0. -1.
        -11    1    6    6    0    0 -0.24815402823E+02 -0.64833449375E+02 -0.29432127936E+02  0.75401793944E+02  0.00000000000E+00 0.  1.
         12    1    6    6    0    0  0.33795733232E+02 -0.13008298944E+02 -0.51505112967E+02  0.62961449220E+02  0.00000000000E+00 0. -1.
         -5    1    3    3    0  503 -0.42545668552E+02  0.56411828875E+02  0.35432774803E+02  0.79183330820E+02  0.47000000000E+01 0.  1.
         11    1    4    4    0    0 -0.56264593973E+01 -0.23544881038E+02 -0.26134714367E+00  0.24209229041E+02  0.00000000000E+00 0. -1.
        -12    1    4    4    0    0  0.67807385201E+02  0.38037661382E+02 -0.37798856885E+02  0.86449168608E+02  0.00000000000E+00 0.  1.
</event>
<event>
12    1  0.8449700E-002  0.2036051E+03  0.7818608E-02  0.1151462E+00
         21   -1    0    0  501  502  0.00000000000E+00  0.00000000000E+00  0.24042223558E+03  0.24042223558E+03  0.00000000000E+00 0. -1.
         21   -1    0    0  502  503 -0.00000000000E+00 -0.00000000000E+00 -0.30903957234E+03  0.30903957234E+03  0.00000000000E+00 0. -1.
         -6    2    1    2    0  503  0.67177107445E+02 -0.13488379766E+02  0.16071188544E+03  0.24279110579E+03  0.16859570213E+03 0.  0.
        -24    2    3    3    0    0  0.24675448340E+02  0.40232280505E+02  0.33844661777E+02  0.98535489587E+02  0.79600674821E+02 0.  0.
          6    2    1    2  501    0 -0.67177107445E+02  0.13488379766E+02 -0.22932922220E+03  0.30667070213E+03  0.19172982876E+03 0.  0.
         24    2    5    5    0    0 -0.84921005558E+02  0.65858527931E+02 -0.20782967642E+03  0.24715768836E+03  0.79654413733E+02 0.  0.
          5    1    5    5  501    0  0.17743898114E+02 -0.52370148165E+02 -0.21499545781E+02  0.59513013769E+02  0.47000000000E+01 0. -1.
        -11    1    6    6    0    0 -0.20622137639E+02  0.73892748231E+01 -0.18921002922E-01  0.21906033443E+02  0.00000000000E+00 0.  1.
         12    1    6    6    0    0 -0.64298867920E+02  0.58469253108E+02 -0.20781075542E+03  0.22525165492E+03  0.00000000000E+00 0. -1.
         -5    1    3    3    0  503  0.42501659105E+02 -0.53720660271E+02  0.12686722366E+03  0.14425561621E+03  0.47000000000E+01 0.  1.
         13    1    4    4    0    0 -0.16213403928E+02 -0.15713927237E+02  0.33465966359E+01  0.22825461336E+02  0.00000000000E+00 0. -1.
        -14    1    4    4    0    0  0.40888852267E+02  0.55946207743E+02  0.30498065141E+02  0.75710028252E+02  0.00000000000E+00 0.  1.
</event>
<event>
12    1  0.8449700E-002  0.2003714E+03  0.7818608E-02  0.1150452E+00
         21   -1    0    0  501  502  0.00000000000E+00  0.00000000000E+00  0.24612127487E+03  0.24612127487E+03  0.00000000000E+00 0. -1.
         21   -1    0    0  502  503 -0.00000000000E+00 -0.00000000000E+00 -0.29233616576E+03  0.29233616576E+03  0.00000000000E+00 0. -1.
         -6    2    1    2    0  503 -0.60592133487E+02 -0.71470577679E+02 -0.20492138222E+03  0.28660336130E+03  0.17711370276E+03 0.  0.
        -24    2    3    3    0    0 -0.11102204361E+03 -0.54493626732E+02 -0.14017891138E+03  0.20266844468E+03  0.78287430331E+02 0.  0.
          6    2    1    2  501    0  0.60592133487E+02  0.71470577679E+02  0.15870649133E+03  0.25185407933E+03  0.17164870163E+03 0.  0.
         24    2    5    5    0    0 -0.30243865300E+02  0.13517141206E+02  0.95350271525E+02  0.12677058696E+03  0.76692261310E+02 0.  0.
          5    1    5    5  501    0  0.90835998787E+02  0.57953436473E+02  0.63356219807E+02  0.12508349237E+03  0.47000000000E+01 0. -1.
        -11    1    6    6    0    0 -0.55173767027E+01  0.21405718637E+02  0.98202743416E+02  0.10065994760E+03  0.00000000000E+00 0.  1.
         12    1    6    6    0    0 -0.24726488597E+02 -0.78885774312E+01 -0.28524718909E+01  0.26110639366E+02  0.00000000000E+00 0. -1.
         -5    1    3    3    0  503  0.50429910127E+02 -0.16976950947E+02 -0.64742470835E+02  0.83934916624E+02  0.47000000000E+01 0.  1.
         13    1    4    4    0    0 -0.66277952559E+02 -0.12073810166E+01 -0.10630710698E+03  0.12528138633E+03  0.00000000000E+00 0. -1.
        -14    1    4    4    0    0 -0.44744091055E+02 -0.53286245716E+02 -0.33871804400E+02  0.77387058350E+02  0.00000000000E+00 0.  1.
</event>
<event>
12    1  0.8449700E-002  0.4252306E+03  0.7818608E-02  0.1035429E+00
         21   -1    0    0  501  502  0.00000000000E+00  0.00000000000E+00  0.65329443914E+03  0.65329443914E+03  0.00000000000E+00 0. -1.
         21   -1    0    0  502  503 -0.00000000000E+00 -0.00000000000E+00 -0.33859470919E+03  0.33859470919E+03  0.00000000000E+00 0.  1.
         -6    2    1    2    0  503 -0.15402756879E+03 -0.35659363864E+03  0.37006132543E+03  0.56370777446E+03  0.17302472466E+03 0.  0.
        -24    2    3    3    0    0 -0.32068268709E+02 -0.63196594587E+02  0.10990285562E+03  0.15302490929E+03  0.79472018742E+02 0.  0.
          6    2    1    2  501    0  0.15402756879E+03  0.35659363864E+03 -0.55361595479E+02  0.42818137388E+03  0.17143764935E+03 0.  0.
         24    2    5    5    0    0  0.11446458345E+03  0.33182420662E+03 -0.88478527893E+02  0.37075685138E+03  0.80142048780E+02 0.  0.
          5    1    5    5  501    0  0.39562985340E+02  0.24769432026E+02  0.33116932415E+02  0.57424522501E+02  0.47000000000E+01 0. -1.
        -11    1    6    6    0    0 -0.11991546327E+02  0.33172060941E+02 -0.14295368081E+02  0.38059694678E+02  0.00000000000E+00 0.  1.
         12    1    6    6    0    0  0.12645612978E+03  0.29865214567E+03 -0.74183159813E+02  0.33269715670E+03  0.00000000000E+00 0. -1.
         -5    1    3    3    0  503 -0.12195930009E+03 -0.29339704405E+03  0.26015846981E+03  0.41068286518E+03  0.47000000000E+01 0.  1.
         11    1    4    4    0    0 -0.29462288578E+02 -0.69533012148E+02  0.11942247514E+03  0.14129612095E+03  0.00000000000E+00 0. -1.
        -12    1    4    4    0    0 -0.26059801308E+01  0.63364175613E+01 -0.95196195218E+01  0.11728788334E+02  0.00000000000E+00 0.  1.
</event>
<event>
12    1  0.8449700E-002  0.1732405E+03  0.7818608E-02  0.1174835E+00
         21   -1    0    0  503  502  0.00000000000E+00  0.00000000000E+00  0.93797171794E+02  0.93797171794E+02  0.00000000000E+00 0.  1.
         21   -1    0    0  501  503 -0.00000000000E+00 -0.00000000000E+00 -0.46708612330E+03  0.46708612330E+03  0.00000000000E+00 0.  1.
          6    2    1    2  501    0  0.25181153136E+02  0.90533115609E+01 -0.34481381785E+03  0.38531815971E+03  0.16987484303E+03 0.  0.
         24    2    3    3    0    0 -0.36425511681E+02 -0.18202360914E+02 -0.27337270101E+03  0.28701161869E+03  0.77362082173E+02 0.  0.
         -6    2    1    2    0  502 -0.25181153136E+02 -0.90533115609E+01 -0.28475133656E+02  0.17556513539E+03  0.17116141681E+03 0.  0.
        -24    2    5    5    0    0 -0.37076285302E+02  0.56327840589E+02 -0.44230254811E+01  0.10473588202E+03  0.80016031332E+02 0.  0.
          5    1    3    3  501    0  0.61606664817E+02  0.27255672475E+02 -0.71441116840E+02  0.98306541020E+02  0.47000000000E+01 0. -1.
        -13    1    4    4    0    0  0.62200926039E+01  0.24860466807E+02 -0.61099639927E+02  0.66256308085E+02  0.00000000000E+00 0.  1.
         14    1    4    4    0    0 -0.42645604285E+02 -0.43062827721E+02 -0.21227306108E+03  0.22075531060E+03  0.00000000000E+00 0. -1.
         -5    1    5    5    0  502  0.11895132166E+02 -0.65381152150E+02 -0.24052108175E+02  0.70829253373E+02  0.47000000000E+01 0.  1.
         11    1    6    6    0    0  0.25691149078E+01 -0.42357909795E+01 -0.28132995851E+02  0.28565849054E+02  0.00000000000E+00 0. -1.
        -12    1    6    6    0    0 -0.39645400210E+02  0.60563631569E+02  0.23709970370E+02  0.76170032963E+02  0.00000000000E+00 0.  1.
</event>
<event>
12    1  0.8449700E-002  0.2726263E+03  0.7818608E-02  0.1099844E+00
         21   -1    0    0  501  502  0.00000000000E+00  0.00000000000E+00  0.25048698645E+03  0.25048698645E+03  0.00000000000E+00 0. -1.
         21   -1    0    0  502  503 -0.00000000000E+00 -0.00000000000E+00 -0.10525323423E+04  0.10525323423E+04  0.00000000000E+00 0.  1.
         -6    2    1    2    0  503  0.17402219187E+03  0.11948953934E+03 -0.95319007045E+03  0.99129860012E+03  0.17187242631E+03 0.  0.
        -24    2    3    3    0    0  0.16275590104E+03  0.96875682813E+02 -0.54676501923E+03  0.58406190228E+03  0.79384747851E+02 0.  0.
          6    2    1    2  501    0 -0.17402219187E+03 -0.11948953934E+03  0.15114471458E+03  0.31172072864E+03  0.17252134547E+03 0.  0.
         24    2    5    5    0    0 -0.39378943564E+02 -0.10841412011E+03  0.93705267339E+02  0.16484374159E+03  0.71333438008E+02 0.  0.
          5    1    5    5  501    0 -0.13464324831E+03 -0.11075419235E+02  0.57439447239E+02  0.14687698705E+03  0.47000000000E+01 0. -1.
        -11    1    6    6    0    0 -0.19291116869E+02 -0.54968234565E+02  0.38492997340E+01  0.58382112925E+02  0.00000000000E+00 0.  1.
         12    1    6    6    0    0 -0.20087826695E+02 -0.53445885544E+02  0.89855967605E+02  0.10646162866E+03  0.00000000000E+00 0. -1.
         -5    1    3    3    0  503  0.11266290837E+02  0.22613856530E+02 -0.40642505122E+03  0.40723669785E+03  0.47000000000E+01 0.  1.
         13    1    4    4    0    0 -0.61499415590E+01  0.14561882340E+02 -0.25901788667E+02  0.30344239232E+02  0.00000000000E+00 0. -1.
        -14    1    4    4    0    0  0.16890584260E+03  0.82313800474E+02 -0.52086323056E+03  0.55371766304E+03  0.00000000000E+00 0.  1.
</event>
<event>
12    1  0.8449700E-002  0.2074910E+03  0.7818608E-02  0.1143749E+00
         21   -1    0    0  501  502  0.00000000000E+00  0.00000000000E+00  0.11143121399E+03  0.11143121399E+03  0.00000000000E+00 0. -1.
         21   -1    0    0  502  503 -0.00000000000E+00 -0.00000000000E+00 -0.47923643036E+03  0.47923643036E+03  0.00000000000E+00 0. -1.
         -6    2    1    2    0  503  0.11257095855E+03  0.27539119011E+02 -0.31539794722E+03  0.37752928543E+03  0.17211005917E+03 0.  0.
        -24    2    3    3    0    0  0.12013286902E+03 -0.34811882065E+02 -0.18216810798E+03  0.23016202351E+03  0.64386055545E+02 0.  0.
          6    2    1    2  501    0 -0.11257095855E+03 -0.27539119011E+02 -0.52407269154E+02  0.21313835891E+03  0.17102869465E+03 0.  0.
         24    2    5    5    0    0 -0.54954192129E+02 -0.35153212249E+01 -0.95957778518E+02  0.13687846447E+03  0.80594652816E+02 0.  0.
          5    1    5    5  501    0 -0.57616766424E+02 -0.24023797786E+02  0.43550509365E+02  0.76259894434E+02  0.47000000000E+01 0. -1.
        -11    1    6    6    0    0 -0.70928421025E+02 -0.19942809857E+02 -0.81092059016E+02  0.10956495156E+03  0.00000000000E+00 0.  1.
         12    1    6    6    0    0  0.15974228895E+02  0.16427488632E+02 -0.14865719502E+02  0.27313512917E+02  0.00000000000E+00 0. -1.
         -5    1    3    3    0  503 -0.75619104635E+01  0.62351001076E+02 -0.13322983923E+03  0.14736726192E+03  0.47000000000E+01 0.  1.
         11    1    4    4    0    0  0.96223940472E+02  0.13056386158E+01 -0.11159917283E+03  0.14736053335E+03  0.00000000000E+00 0. -1.
        -12    1    4    4    0    0  0.23908928544E+02 -0.36117520681E+02 -0.70568935157E+02  0.82801490164E+02  0.00000000000E+00 0.  1.
</event>
<event>
12    1  0.8449700E-002  0.1932656E+03  0.7818608E-02  0.1155568E+00
         21   -1    0    0  501  502  0.00000000000E+00  0.00000000000E+00  0.10260445245E+03  0.10260445245E+03  0.00000000000E+00 0. -1.
         21   -1    0    0  502  503 -0.00000000000E+00 -0.00000000000E+00 -0.43762994792E+03  0.43762994792E+03  0.00000000000E+00 0. -1.
         -6    2    1    2    0  503 -0.73747258509E+02  0.46933885941E+02 -0.27843857781E+03  0.33893897897E+03  0.17236630200E+03 0.  0.
        -24    2    3    3    0    0 -0.96093899658E+01  0.29683219932E+02 -0.25368882721E+03  0.26790453793E+03  0.80258248621E+02 0.  0.
          6    2    1    2  501    0  0.73747258509E+02 -0.46933885941E+02 -0.56586917657E+02  0.20129542140E+03  0.17226816201E+03 0.  0.
         24    2    5    5    0    0  0.33728072095E+02  0.33518116415E+02 -0.53817072959E+02  0.11127419055E+03  0.84997771536E+02 0.  0.
          5    1    5    5  501    0  0.40019186415E+02 -0.80452002356E+02 -0.27698446981E+01  0.90021230852E+02  0.47000000000E+01 0. -1.
        -11    1    6    6    0    0 -0.14089664305E+02  0.40603522703E+02 -0.62054731702E+01  0.43424331812E+02  0.00000000000E+00 0.  1.
         12    1    6    6    0    0  0.47817736400E+02 -0.70854062873E+01 -0.47611599789E+02  0.67849858741E+02  0.00000000000E+00 0. -1.
         -5    1    3    3    0  503 -0.64137868544E+02  0.17250666009E+02 -0.24749750599E+02  0.71034441040E+02  0.47000000000E+01 0.  1.
         13    1    4    4    0    0 -0.20177062120E+02  0.42295272551E+02 -0.74842559651E+02  0.88302959469E+02  0.00000000000E+00 0. -1.
        -14    1    4    4    0    0  0.10567672154E+02 -0.12612052619E+02 -0.17884626756E+03  0.17960157846E+03  0.00000000000E+00 0.  1.
</event>
<event>
12    1  0.8449700E-002  0.1746605E+03  0.7818608E-02  0.1173185E+00
         21   -1    0    0  501  502  0.00000000000E+00  0.00000000000E+00  0.14708744791E+03  0.14708744791E+03  0.00000000000E+00 0.  1.
         21   -1    0    0  502  503 -0.00000000000E+00 -0.00000000000E+00 -0.20708803875E+03  0.20708803875E+03  0.00000000000E+00 0.  1.
         -6    2    1    2    0  503 -0.29594028193E+02  0.14518482843E+02 -0.35622362336E+02  0.17782191765E+03  0.17107042073E+03 0.  0.
        -24    2    3    3    0    0 -0.18731686091E+02 -0.34882193959E+02 -0.71311887690E+02  0.11573931490E+03  0.82113093764E+02 0.  0.
          6    2    1    2  501    0  0.29594028193E+02 -0.14518482843E+02 -0.24378228495E+02  0.17635356901E+03  0.17152169084E+03 0.  0.
         24    2    5    5    0    0  0.61098359921E+02 -0.34937712120E+02  0.29167458309E+02  0.11078910900E+03  0.80435270464E+02 0.  0.
          5    1    5    5  501    0 -0.31504331728E+02  0.20419229278E+02 -0.53545686804E+02  0.65564460017E+02  0.47000000000E+01 0. -1.
        -13    1    6    6    0    0 -0.60300320687E+01 -0.11833436584E+02  0.37051093978E+02  0.39359561394E+02  0.00000000000E+00 0.  1.
         14    1    6    6    0    0  0.67128391990E+02 -0.23104275536E+02 -0.78836356692E+01  0.71429547602E+02  0.00000000000E+00 0. -1.
         -5    1    3    3    0  503 -0.10862342102E+02  0.49400676801E+02  0.35689525353E+02  0.62082602751E+02  0.47000000000E+01 0.  1.
         11    1    4    4    0    0  0.23027008191E+02  0.10371133655E+02 -0.59614825015E+01  0.25948849553E+02  0.00000000000E+00 0. -1.
        -12    1    4    4    0    0 -0.41758694282E+02 -0.45253327613E+02 -0.65350405188E+02  0.89790465343E+02  0.00000000000E+00 0.  1.
</event>
<event>
12    1  0.8449700E-002  0.1940208E+03  0.7818608E-02  0.1155249E+00
         21   -1    0    0  501  502  0.00000000000E+00  0.00000000000E+00  0.65517892117E+03  0.65517892117E+03  0.00000000000E+00 0.  1.
         21   -1    0    0  502  503 -0.00000000000E+00 -0.00000000000E+00 -0.57298908990E+02  0.57298908990E+02  0.00000000000E+00 0.  1.
         -6    2    1    2    0  503 -0.71690128734E+02  0.51390147793E+02  0.27053487522E+03  0.33195329933E+03  0.17094868346E+03 0.  0.
        -24    2    3    3    0    0 -0.32147300431E+02  0.93717929327E+02  0.22178808054E+03  0.25610070312E+03  0.81124091775E+02 0.  0.
          6    2    1    2  501    0  0.71690128734E+02 -0.51390147793E+02  0.32734513696E+03  0.38052453083E+03  0.17281104718E+03 0.  0.
         24    2    5    5    0    0  0.45527386908E+02  0.34685968521E+02  0.12638982700E+03  0.16030029634E+03  0.80286594554E+02 0.  0.
          5    1    5    5  501    0  0.26162741827E+02 -0.86076116314E+02  0.20095530996E+03  0.22022423449E+03  0.47000000000E+01 0. -1.
        -13    1    6    6    0    0  0.35849754693E+02 -0.21354316885E+02  0.53042230674E+02  0.67488443425E+02  0.00000000000E+00 0.  1.
         14    1    6    6    0    0  0.96776322144E+01  0.56040285405E+02  0.73347596328E+02  0.92811852910E+02  0.00000000000E+00 0. -1.
         -5    1    3    3    0  503 -0.39542828303E+02 -0.42327781535E+02  0.48746794682E+02  0.75852596209E+02  0.47000000000E+01 0.  1.
         13    1    4    4    0    0  0.17308858436E+02  0.40514000162E+02  0.13972597614E+03  0.14650709606E+03  0.00000000000E+00 0. -1.
        -14    1    4    4    0    0 -0.49456158867E+02  0.53203929165E+02  0.82062104402E+02  0.10959360706E+03  0.00000000000E+00 0.  1.
</event>
<event>
12    1  0.8449700E-002  0.1823784E+03  0.7818608E-02  0.1165717E+00
         21   -1    0    0  501  502  0.00000000000E+00  0.00000000000E+00  0.20440650234E+03  0.20440650234E+03  0.00000000000E+00 0.  1.
         21   -1    0    0  502  503 -0.00000000000E+00 -0.00000000000E+00 -0.21685488438E+03  0.21685488438E+03  0.00000000000E+00 0.  1.
         -6    2    1    2    0  503 -0.11476392296E+02 -0.58540283519E+02 -0.11217776163E+03  0.21411615401E+03  0.17234617729E+03 0.  0.
        -24    2    3    3    0    0  0.46366844862E+02 -0.74171669995E+02 -0.95126777025E+02  0.15164210817E+03  0.79340433130E+02 0.  0.
          6    2    1    2  501    0  0.11476392296E+02  0.58540283519E+02  0.99729379595E+02  0.20714523272E+03  0.17147747931E+03 0.  0.
         24    2    5    5    0    0  0.69762018417E+02  0.12215710872E+02  0.63570847987E+02  0.12424342543E+03  0.79869977113E+02 0.  0.
          5    1    5    5  501    0 -0.58285626121E+02  0.46324572647E+02  0.36158531608E+02  0.82901807286E+02  0.47000000000E+01 0. -1.
        -11    1    6    6    0    0  0.46260644170E+02 -0.31648890970E+02  0.41825350153E+02  0.69936109515E+02  0.00000000000E+00 0.  1.
         12    1    6    6    0    0  0.23501374247E+02  0.43864601842E+02  0.21745497834E+02  0.54307315919E+02  0.00000000000E+00 0. -1.
         -5    1    3    3    0  503 -0.57843237158E+02  0.15631386476E+02 -0.17050984608E+02  0.62474045845E+02  0.47000000000E+01 0.  1.
         13    1    4    4    0    0  0.23288864766E+02 -0.41029156622E+02  0.11984668029E+01  0.47193211778E+02  0.00000000000E+00 0. -1.
        -14    1    4    4    0    0  0.23077980096E+02 -0.33142513373E+02 -0.96325243828E+02  0.10444889639E+03  0.00000000000E+00 0.  1.
</event>
<event>
12    1  0.8449700E-002  0.2489901E+03  0.7818608E-02  0.1114352E+00
         21   -1    0    0  501  502  0.00000000000E+00  0.00000000000E+00  0.17234107185E+03  0.17234107185E+03  0.00000000000E+00 0. -1.
         21   -1    0    0  502  503 -0.00000000000E+00 -0.00000000000E+00 -0.52238348778E+03  0.52238348778E+03  0.00000000000E+00 0.  1.
         -6    2    1    2    0  503 -0.18019401007E+03 -0.24331983933E+02 -0.37164195303E+03  0.44734084516E+03  0.17010045204E+03 0.  0.
        -24    2    3    3    0    0 -0.19022478326E+02 -0.71244564642E+01 -0.87681219252E+02  0.12034214489E+03  0.79885061594E+02 0.  0.
          6    2    1    2  501    0  0.18019401007E+03  0.24331983933E+02  0.21599537103E+02  0.24738371447E+03  0.16634372689E+03 0.  0.
         24    2    5    5    0    0  0.21028094827E+02 -0.13184942418E+02  0.81392303234E+01  0.83235677026E+02  0.79031053271E+02 0.  0.
          5    1    5    5  501    0  0.15916591525E+03  0.37516926351E+02  0.13460306779E+02  0.16414803745E+03  0.47000000000E+01 0. -1.
        -13    1    6    6    0    0 -0.75061938851E+01 -0.21209893565E+01  0.39000375096E+02  0.39772739409E+02  0.00000000000E+00 0.  1.
         14    1    6    6    0    0  0.28534288712E+02 -0.11063953061E+02 -0.30861144772E+02  0.43462937617E+02  0.00000000000E+00 0. -1.
         -5    1    3    3    0  503 -0.16117153175E+03 -0.17207527469E+02 -0.28396073378E+03  0.32699870027E+03  0.47000000000E+01 0.  1.
         13    1    4    4    0    0  0.20887272209E+02 -0.29563536473E+01 -0.75522877676E+02  0.78413794831E+02  0.00000000000E+00 0. -1.
        -14    1    4    4    0    0 -0.39909750535E+02 -0.41681028168E+01 -0.12158341575E+02  0.41928350060E+02  0.00000000000E+00 0.  1.
</event>
<event>
12    1  0.8449700E-002  0.2211565E+03  0.7818608E-02  0.1133499E+00
         21   -1    0    0  503  502  0.00000000000E+00  0.00000000000E+00  0.18389947438E+04  0.18389947438E+04  0.00000000000E+00 0. -1.
         21   -1    0    0  501  503 -0.00000000000E+00 -0.00000000000E+00 -0.50022933566E+02  0.50022933566E+02  0.00000000000E+00 0. -1.
          6    2    1    2  501    0 -0.98602229509E+02 -0.96563131821E+02  0.24119359858E+03  0.32551916956E+03  0.16953329958E+03 0.  0.
         24    2    3    3    0    0 -0.12034553650E+03 -0.30007767528E+02  0.17468231422E+03  0.22883293030E+03  0.80418187138E+02 0.  0.
         -6    2    1    2    0  502  0.98602229509E+02  0.96563131821E+02  0.15477782116E+04  0.15634985078E+04  0.17281016560E+03 0.  0.
        -24    2    5    5    0    0  0.11199660158E+03  0.11291099300E+03  0.10322317998E+04  0.10474976798E+04  0.80354025850E+02 0.  0.
          5    1    3    3  501    0  0.21743306991E+02 -0.66555364294E+02  0.66511284360E+02  0.96686239261E+02  0.47000000000E+01 0. -1.
        -11    1    4    4    0    0 -0.69666192843E+02 -0.26985268321E+01  0.15149917117E+03  0.16677127852E+03  0.00000000000E+00 0.  1.
         12    1    4    4    0    0 -0.50679343657E+02 -0.27309240696E+02  0.23183143047E+02  0.62061651786E+02  0.00000000000E+00 0. -1.
         -5    1    5    5    0  502 -0.13394372072E+02 -0.16347861180E+02  0.51554641180E+03  0.51600082799E+03  0.47000000000E+01 0.  1.
         11    1    6    6    0    0  0.77155085019E+02  0.11988104788E+03  0.83905579673E+03  0.85108107887E+03  0.00000000000E+00 0. -1.
        -12    1    6    6    0    0  0.34841516562E+02 -0.69700548808E+01  0.19317600312E+03  0.19641660093E+03  0.00000000000E+00 0.  1.
</event>
<event>
12    1  0.8449700E-002  0.2964608E+03  0.7818608E-02  0.1087060E+00
         21   -1    0    0  501  502  0.00000000000E+00  0.00000000000E+00  0.60957704684E+03  0.60957704684E+03  0.00000000000E+00 0.  1.
         21   -1    0    0  502  503 -0.00000000000E+00 -0.00000000000E+00 -0.14688136596E+03  0.14688136596E+03  0.00000000000E+00 0.  1.
         -6    2    1    2    0  503  0.12880399391E+03 -0.20417932943E+03  0.28383580728E+03  0.41022166772E+03  0.17157908895E+03 0.  0.
        -24    2    3    3    0    0  0.12225263523E+03 -0.85708738808E+02  0.10320537818E+03  0.19405589092E+03  0.68663265206E+02 0.  0.
          6    2    1    2  501    0 -0.12880399391E+03  0.20417932943E+03  0.17885987360E+03  0.34623674507E+03  0.17207371048E+03 0.  0.
         24    2    5    5    0    0 -0.55428786879E+02  0.89290985983E+02  0.16185539269E+03  0.20877949776E+03  0.79664797444E+02 0.  0.
          5    1    5    5  501    0 -0.73375207030E+02  0.11488834345E+03  0.17004480917E+02  0.13745724731E+03  0.47000000000E+01 0. -1.
        -13    1    6    6    0    0 -0.40203817667E+02  0.10350810507E+03  0.13562312191E+03  0.17528236068E+03  0.00000000000E+00 0.  1.
         14    1    6    6    0    0 -0.15224969212E+02 -0.14217119084E+02  0.26232270778E+02  0.33497137083E+02  0.00000000000E+00 0. -1.
         -5    1    3    3    0  503  0.65513586779E+01 -0.11847059062E+03  0.18063042910E+03  0.21616577680E+03  0.47000000000E+01 0.  1.
         11    1    4    4    0    0  0.35558532766E+02 -0.26153347887E+02 -0.34335975534E+01  0.44274105867E+02  0.00000000000E+00 0. -1.
        -12    1    4    4    0    0  0.86694102465E+02 -0.59555390921E+02  0.10663897573E+03  0.14978178506E+03  0.00000000000E+00 0.  1.
</event>
<event>
12    1  0.8449700E-002  0.1928800E+03  0.7818608E-02  0.1156076E+00
         21   -1    0    0  501  502  0.00000000000E+00  0.00000000000E+00  0.77491904297E+02  0.77491904297E+02  0.00000000000E+00 0. -1.
         21   -1    0    0  502  503 -0.00000000000E+00 -0.00000000000E+00 -0.69741961858E+03  0.69741961858E+03  0.00000000000E+00 0. -1.
         -6    2    1    2    0  503  0.52344499052E+02 -0.68704712200E+02 -0.52683084482E+03  0.56073930309E+03  0.17151543054E+03 0.  0.
        -24    2    3    3    0    0  0.89513223170E+02 -0.84886006770E+02 -0.35520319901E+03  0.38432647149E+03  0.79493854048E+02 0.  0.
          6    2    1    2  501    0 -0.52344499052E+02  0.68704712200E+02 -0.93096869464E+02  0.21417221979E+03  0.17245993322E+03 0.  0.
         24    2    5    5    0    0 -0.66374685586E+02  0.76622308677E+02 -0.15357982081E+02  0.13464260845E+03  0.87270770157E+02 0.  0.
          5    1    5    5  501    0  0.14030186533E+02 -0.79175964767E+01 -0.77738887383E+02  0.79529611339E+02  0.47000000000E+01 0. -1.
        -11    1    6    6    0    0 -0.48725600608E+02 -0.16389447521E+01 -0.23279242019E+02  0.54025858656E+02  0.00000000000E+00 0.  1.
         12    1    6    6    0    0 -0.17649084977E+02  0.78261253429E+02  0.79212599378E+01  0.80616749797E+02  0.00000000000E+00 0. -1.
         -5    1    3    3    0  503 -0.37168724118E+02  0.16181294570E+02 -0.17162764581E+03  0.17641283160E+03  0.47000000000E+01 0.  1.
         13    1    4    4    0    0  0.17865230689E+02 -0.59747618852E+02 -0.22617348936E+03  0.23461328120E+03  0.00000000000E+00 0. -1.
        -14    1    4    4    0    0  0.71647992481E+02 -0.25138387919E+02 -0.12902970965E+03  0.14971319029E+03  0.00000000000E+00 0.  1.
</event>
<event>
12    1  0.8449700E-002  0.2419976E+03  0.7818608E-02  0.1118524E+00
         21   -1    0    0  501  502  0.00000000000E+00  0.00000000000E+00  0.12178928328E+04  0.12178928328E+04  0.00000000000E+00 0.  1.
         21   -1    0    0  502  503 -0.00000000000E+00 -0.00000000000E+00 -0.53040623214E+02  0.53040623214E+02  0.00000000000E+00 0.  1.
         -6    2    1    2    0  503 -0.16351394200E+03 -0.48668563681E+02  0.38654575060E+03  0.45587285219E+03  0.17116366944E+03 0.  0.
        -24    2    3    3    0    0 -0.16203872710E+03 -0.28552957345E+02  0.21089471909E+03  0.27900513679E+03  0.79343956075E+02 0.  0.
          6    2    1    2  501    0  0.16351394200E+03  0.48668563681E+02  0.77830645900E+03  0.81506060384E+03  0.17163159818E+03 0.  0.
         24    2    5    5    0    0  0.14779330224E+03 -0.13692674888E+02  0.65103502478E+03  0.67238555151E+03  0.78901057360E+02 0.  0.
          5    1    5    5  501    0  0.15720639760E+02  0.62361238569E+02  0.12727143422E+03  0.14267505233E+03  0.47000000000E+01 0. -1.
        -11    1    6    6    0    0  0.73810324118E+02  0.55893790368E+01  0.47112188318E+03  0.47690149289E+03  0.00000000000E+00 0.  1.
         12    1    6    6    0    0  0.73982978118E+02 -0.19282053925E+02  0.17991314160E+03  0.19548405862E+03  0.00000000000E+00 0. -1.
         -5    1    3    3    0  503 -0.14752148985E+01 -0.20115606336E+02  0.17565103151E+03  0.17686771539E+03  0.47000000000E+01 0.  1.
         13    1    4    4    0    0 -0.40920243512E+02  0.30392369549E+00  0.11434845956E+03  0.12145010870E+03  0.00000000000E+00 0. -1.
        -14    1    4    4    0    0 -0.12111848359E+03 -0.28856881041E+02  0.96546259523E+02  0.15755502809E+03  0.00000000000E+00 0.  1.
</event>
<event>
12    1  0.8449700E-002  0.1903224E+03  0.7818608E-02  0.1158223E+00
         21   -1    0    0  503  502  0.00000000000E+00  0.00000000000E+00  0.49595789307E+03  0.49595789307E+03  0.00000000000E+00 0. -1.
         21   -1    0    0  501  503 -0.00000000000E+00 -0.00000000000E+00 -0.73338393189E+02  0.73338393189E+02  0.00000000000E+00 0. -1.
          6    2    1    2  501    0 -0.67707057390E+02  0.39659370628E+02  0.23223823209E+03  0.30026193155E+03  0.17339411696E+03 0.  0.
         24    2    3    3    0    0  0.87740666767E+01 -0.71624036466E+01  0.51722547286E+02  0.98644364497E+02  0.83229829251E+02 0.  0.
         -6    2    1    2    0  502  0.67707057390E+02 -0.39659370628E+02  0.19038126779E+03  0.26903435471E+03  0.17313967075E+03 0.  0.
        -24    2    5    5    0    0  0.55489080228E+02 -0.66745031384E+02  0.55390839998E+02  0.13073244734E+03  0.80553649165E+02 0.  0.
          5    1    3    3  501    0 -0.76481124067E+02  0.46821774274E+02  0.18051568480E+03  0.20161756705E+03  0.47000000000E+01 0. -1.
        -11    1    4    4    0    0  0.27841056741E+02 -0.40427525533E+01  0.67866679211E+02  0.73466689294E+02  0.00000000000E+00 0.  1.
         12    1    4    4    0    0 -0.19066990064E+02 -0.31196510933E+01 -0.16144131925E+02  0.25177675203E+02  0.00000000000E+00 0. -1.
         -5    1    5    5    0  502  0.12217977162E+02  0.27085660756E+02  0.13499042780E+03  0.13830190737E+03  0.47000000000E+01 0.  1.
         13    1    6    6    0    0  0.66880195571E+02 -0.47949753938E+02  0.66779314306E+02  0.10597932007E+03  0.00000000000E+00 0. -1.
        -14    1    6    6    0    0 -0.11391115343E+02 -0.18795277445E+02 -0.11388474308E+02  0.24753127278E+02  0.00000000000E+00 0.  1.
</event>
<event>
12    1  0.8449700E-002  0.2163896E+03  0.7818608E-02  0.1136745E+00
         21   -1    0    0  501  502  0.00000000000E+00  0.00000000000E+00  0.92170277564E+02  0.92170277564E+02  0.00000000000E+00 0. -1.
         21   -1    0    0  502  503 -0.00000000000E+00 -0.00000000000E+00 -0.57320079624E+03  0.57320079624E+03  0.00000000000E+00 0.  1.
         -6    2    1    2    0  503 -0.12846587304E+03  0.23727628544E+02 -0.35382325088E+03  0.41436078632E+03  0.17157356289E+03 0.  0.
        -24    2    3    3    0    0 -0.73469880529E+02  0.77007786652E+02 -0.26849390488E+03  0.29961532135E+03  0.79701576417E+02 0.  0.
          6    2    1    2  501    0  0.12846587304E+03 -0.23727628544E+02 -0.12720726780E+03  0.25101028749E+03  0.17250505659E+03 0.  0.
         24    2    5    5    0    0  0.74904727524E+02 -0.64753721884E+01  0.40693724297E+01  0.10810443412E+03  0.77571645806E+02 0.  0.
          5    1    5    5  501    0  0.53561145519E+02 -0.17252256356E+02 -0.13127664023E+03  0.14290585337E+03  0.47000000000E+01 0. -1.
        -11    1    6    6    0    0  0.48160735847E+02  0.13743556785E+02 -0.31546740120E+02  0.59190697264E+02  0.00000000000E+00 0.  1.
         12    1    6    6    0    0  0.26743991677E+02 -0.20218928973E+02  0.35616112549E+02  0.48913736851E+02  0.00000000000E+00 0. -1.
         -5    1    3    3    0  503 -0.54995992515E+02 -0.53280158108E+02 -0.85329346000E+02  0.11474546496E+03  0.47000000000E+01 0.  1.
         11    1    4    4    0    0 -0.84743277379E+01  0.40095394183E+02 -0.33222670203E+02  0.52756048759E+02  0.00000000000E+00 0. -1.
        -12    1    4    4    0    0 -0.64995552791E+02  0.36912392469E+02 -0.23527123467E+03  0.24685927259E+03  0.00000000000E+00 0.  1.
</event>
<event>
12    1  0.8449700E-002  0.1875945E+03  0.7818608E-02  0.1164129E+00
         21   -1    0    0  503  502  0.00000000000E+00  0.00000000000E+00  0.28786502970E+03  0.28786502970E+03  0.00000000000E+00 0. -1.
         21   -1    0    0  501  503 -0.00000000000E+00 -0.00000000000E+00 -0.19914343856E+03  0.19914343856E+03  0.00000000000E+00 0. -1.
          6    2    1    2  501    0  0.16381010157E+02  0.40531253477E+01 -0.11677033878E+03  0.20876642349E+03  0.17223049160E+03 0.  0.
         24    2    3    3    0    0  0.27223229417E+02 -0.55980428297E+02 -0.38639596470E+02  0.10952890954E+03  0.81416528030E+02 0.  0.
         -6    2    1    2    0  502 -0.16381010157E+02 -0.40531253477E+01  0.20549192992E+03  0.27824204477E+03  0.18683398218E+03 0.  0.
        -24    2    5    5    0    0  0.58479896175E+02  0.14301194430E+02  0.70599404594E+02  0.12281000258E+03  0.80458675017E+02 0.  0.
          5    1    3    3  501    0 -0.10842219260E+02  0.60033553644E+02 -0.78130742306E+02  0.99237513950E+02  0.47000000000E+01 0. -1.
        -13    1    4    4    0    0 -0.24082137972E+01  0.96611383169E+01 -0.36117782916E+02  0.37465068130E+02  0.00000000000E+00 0.  1.
         14    1    4    4    0    0  0.29631443214E+02 -0.65641566614E+02 -0.25218135542E+01  0.72063841405E+02  0.00000000000E+00 0. -1.
         -5    1    5    5    0  502 -0.74860906332E+02 -0.18354319777E+02  0.13489252533E+03  0.15543204219E+03  0.47000000000E+01 0.  1.
         13    1    6    6    0    0  0.25689627581E+00  0.37601393649E+02  0.29996459076E+02  0.48101126361E+02  0.00000000000E+00 0. -1.
        -14    1    6    6    0    0  0.58222999899E+02 -0.23300199220E+02  0.40602945518E+02  0.74708876217E+02  0.00000000000E+00 0.  1.
</event>
<event>
12    1  0.8449700E-002  0.3053613E+03  0.7818608E-02  0.1083042E+00
         21   -1    0    0  501  502  0.00000000000E+00  0.00000000000E+00  0.17810762873E+03  0.17810762873E+03  0.00000000000E+00 0.  1.
         21   -1    0    0  502  503 -0.00000000000E+00 -0.00000000000E+00 -0.51734644522E+03  0.51734644522E+03  0.00000000000E+00 0. -1.
         -6    2    1    2    0  503 -0.24429960557E+03 -0.63216939029E+02 -0.16630853871E+03  0.34771260528E+03  0.17195012987E+03 0.  0.
        -24    2    3    3    0    0 -0.15766398857E+03  0.16506429777E+02 -0.14204165409E+03  0.22741082909E+03  0.80059091751E+02 0.  0.
          6    2    1    2  501    0  0.24429960557E+03  0.63216939029E+02 -0.17293027778E+03  0.34774146866E+03  0.16534983941E+03 0.  0.
         24    2    5    5    0    0  0.42510471622E+02  0.70939892752E+00 -0.70070798213E+02  0.11273463964E+03  0.77405030640E+02 0.  0.
          5    1    5    5  501    0  0.20178913395E+03  0.62507540102E+02 -0.10285947956E+03  0.23500682902E+03  0.47000000000E+01 0. -1.
        -13    1    6    6    0    0  0.27852189477E+02  0.34711045015E+02 -0.16188821221E+02  0.47356932304E+02  0.00000000000E+00 0.  1.
         14    1    6    6    0    0  0.14658282145E+02 -0.34001646087E+02 -0.53881976992E+02  0.65377707338E+02  0.00000000000E+00 0. -1.
         -5    1    3    3    0  503 -0.86635617001E+02 -0.79723368806E+02 -0.24266884616E+02  0.12030177620E+03  0.47000000000E+01 0.  1.
         13    1    4    4    0    0 -0.32719035364E+02  0.37741721350E+02 -0.50826516403E+02  0.71262245090E+02  0.00000000000E+00 0. -1.
        -14    1    4    4    0    0 -0.12494495321E+03 -0.21235291573E+02 -0.91215137689E+02  0.15614858400E+03  0.00000000000E+00 0.  1.
</event>
<event>
12    1  0.8449700E-002  0.2684328E+03  0.7818608E-02  0.1102566E+00
         21   -1    0    0  501  502  0.00000000000E+00  0.00000000000E+00  0.27351509387E+02  0.27351509387E+02  0.00000000000E+00 0.  1.
         21   -1    0    0  502  503 -0.00000000000E+00 -0.00000000000E+00 -0.27230542831E+04  0.27230542831E+04  0.00000000000E+00 0. -1.
         -6    2    1    2    0  503  0.13557709469E+03  0.15362156216E+03 -0.16236033785E+04  0.16452120290E+04  0.16927479726E+03 0.  0.
        -24    2    3    3    0    0  0.12832426376E+03  0.53321365041E+02 -0.11629440670E+04  0.11736806681E+04  0.76007388484E+02 0.  0.
          6    2    1    2  501    0 -0.13557709469E+03 -0.15362156216E+03 -0.10720993953E+04  0.11051937635E+04  0.17342262971E+03 0.  0.
         24    2    5    5    0    0 -0.70500149694E+02 -0.47550051005E+02 -0.76354396553E+03  0.77245555184E+03  0.80354924090E+02 0.  0.
          5    1    5    5  501    0 -0.65076944997E+02 -0.10607151116E+03 -0.30855542977E+03  0.33273821165E+03  0.47000000000E+01 0. -1.
        -13    1    6    6    0    0 -0.35853503161E+02 -0.53793947987E+02 -0.26895981811E+03  0.27662003956E+03  0.00000000000E+00 0.  1.
         14    1    6    6    0    0 -0.34646646533E+02  0.62438969815E+01 -0.49458414742E+03  0.49583551229E+03  0.00000000000E+00 0. -1.
         -5    1    3    3    0  503  0.72528309284E+01  0.10030019712E+03 -0.46065931147E+03  0.47153136093E+03  0.47000000000E+01 0.  1.
         13    1    4    4    0    0  0.67654172738E+02  0.45004273970E+02 -0.39339966003E+03  0.40170357762E+03  0.00000000000E+00 0. -1.
        -14    1    4    4    0    0  0.60670091024E+02  0.83170910706E+01 -0.76954440695E+03  0.77197709048E+03  0.00000000000E+00 0.  1.
</event>
<event>
12    1  0.8449700E-002  0.2036531E+03  0.7818608E-02  0.1148442E+00
         21   -1    0    0  503  502  0.00000000000E+00  0.00000000000E+00  0.95044889853E+03  0.95044889853E+03  0.00000000000E+00 0.  1.
         21   -1    0    0  501  503 -0.00000000000E+00 -0.00000000000E+00 -0.83803982896E+02  0.83803982896E+02  0.00000000000E+00 0. -1.
          6    2    1    2  501    0 -0.39330694522E+02  0.91183881432E+02  0.63080477809E+02  0.20528340337E+03  0.16822819399E+03 0.  0.
         24    2    3    3    0    0 -0.47810486090E+01 -0.16946528146E+02  0.13505380316E+02  0.81325169273E+02  0.78239022347E+02 0.  0.
         -6    2    1    2    0  502  0.39330694522E+02 -0.91183881432E+02  0.80356443783E+03  0.82896947806E+03  0.17780097314E+03 0.  0.
        -24    2    5    5    0    0  0.39538442918E+02 -0.52997211417E+02  0.77297258554E+03  0.77981445439E+03  0.79069414950E+02 0.  0.
          5    1    3    3  501    0 -0.34549645913E+02  0.10813040958E+03  0.49575097492E+02  0.12395823409E+03  0.47000000000E+01 0. -1.
        -11    1    4    4    0    0 -0.28760163757E+02 -0.37540629498E+02  0.15192210385E+02  0.49671411685E+02  0.00000000000E+00 0.  1.
         12    1    4    4    0    0  0.23979115148E+02  0.20594101352E+02 -0.16868300684E+01  0.31653757588E+02  0.00000000000E+00 0. -1.
         -5    1    5    5    0  502 -0.20774839623E+00 -0.38186670016E+02  0.30591852284E+02  0.49155023675E+02  0.47000000000E+01 0.  1.
         11    1    6    6    0    0  0.41704339667E+02  0.75963675046E+01  0.33004908542E+03  0.33276020725E+03  0.00000000000E+00 0. -1.
        -12    1    6    6    0    0 -0.21658967483E+01 -0.60593578921E+02  0.44292350013E+03  0.44705424714E+03  0.00000000000E+00 0.  1.
</event>
<event>
12    1  0.8449700E-002  0.1887943E+03  0.7818608E-02  0.1160428E+00
         21   -1    0    0  501  502  0.00000000000E+00  0.00000000000E+00  0.46433537509E+03  0.46433537509E+03  0.00000000000E+00 0.  1.
         21   -1    0    0  502  503 -0.00000000000E+00 -0.00000000000E+00 -0.20219393143E+03  0.20219393143E+03  0.00000000000E+00 0.  1.
         -6    2    1    2    0  503  0.70631871753E+02  0.79473115663E+01  0.39565563217E+03  0.43839097706E+03  0.17490354038E+03 0.  0.
        -24    2    3    3    0    0  0.11065766434E+03  0.19717434535E+02  0.35113510541E+03  0.37719647429E+03  0.79670710172E+02 0.  0.
          6    2    1    2  501    0 -0.70631871753E+02 -0.79473115663E+01 -0.13351418850E+03  0.22813832946E+03  0.17078945450E+03 0.  0.
         24    2    5    5    0    0 -0.96237409070E+02 -0.36079970873E+02 -0.13725716414E+03  0.18962612454E+03  0.80963786958E+02 0.  0.
          5    1    5    5  501    0  0.25605537318E+02  0.28132659307E+02  0.37429756328E+01  0.38512204918E+02  0.47000000000E+01 0. -1.
        -11    1    6    6    0    0 -0.51687027143E+02  0.28989550580E+01 -0.11547888457E+03  0.12655167125E+03  0.00000000000E+00 0.  1.
         12    1    6    6    0    0 -0.44550381927E+02 -0.38978925931E+02 -0.21778279566E+02  0.63074453287E+02  0.00000000000E+00 0. -1.
         -5    1    3    3    0  503 -0.40025792592E+02 -0.11770122968E+02  0.44520526753E+02  0.61194502774E+02  0.47000000000E+01 0.  1.
         11    1    4    4    0    0 -0.39957945651E+01  0.20508702429E+02  0.33292651647E+02  0.39306156047E+02  0.00000000000E+00 0. -1.
        -12    1    4    4    0    0  0.11465345891E+03 -0.79126789454E+00  0.31784245377E+03  0.33789031824E+03  0.00000000000E+00 0.  1.
</event>
<event>
12    1  0.8449700E-002  0.1769475E+03  0.7818608E-02  0.1170916E+00
         21   -1    0    0  503  502  0.00000000000E+00  0.00000000000E+00  0.32924619212E+03  0.32924619212E+03  0.00000000000E+00 0. -1.
         21   -1    0    0  501  503 -0.00000000000E+00 -0.00000000000E+00 -0.98006934313E+02  0.98006934313E+02  0.00000000000E+00 0.  1.
          6    2    1    2  501    0  0.39115505035E+02 -0.86196938308E+01  0.77291751522E+02  0.19309177586E+03  0.17235456825E+03 0.  0.
         24    2    3    3    0    0  0.16278558336E+02 -0.64669303886E+02  0.76625202459E+02  0.13238247501E+03  0.84891623332E+02 0.  0.
         -6    2    1    2    0  502 -0.39115505035E+02  0.86196938308E+01  0.15394750629E+03  0.23416135057E+03  0.17183533267E+03 0.  0.
        -24    2    5    5    0    0  0.23801421775E+02 -0.37029117821E+02  0.37712278465E+02  0.94250407931E+02  0.74318639674E+02 0.  0.
          5    1    3    3  501    0  0.22836946699E+02  0.56049610055E+02  0.66654906244E+00  0.60709300848E+02  0.47000000000E+01 0. -1.
        -13    1    4    4    0    0 -0.28548894358E+02 -0.54250288758E+02  0.36656337141E+02  0.71427027462E+02  0.00000000000E+00 0.  1.
         14    1    4    4    0    0  0.44827452694E+02 -0.10419015127E+02  0.39968865318E+02  0.60955447551E+02  0.00000000000E+00 0. -1.
         -5    1    5    5    0  502 -0.62916926810E+02  0.45648811652E+02  0.11623522782E+03  0.13991094264E+03  0.47000000000E+01 0.  1.
         13    1    6    6    0    0 -0.83928057870E+01  0.10989555220E+01  0.43223878943E+02  0.44044870338E+02  0.00000000000E+00 0. -1.
        -14    1    6    6    0    0  0.32194227562E+02 -0.38128073343E+02 -0.55116004776E+01  0.50205537593E+02  0.00000000000E+00 0.  1.
</event>
<event>
12    1  0.8449700E-002  0.2334516E+03  0.7818608E-02  0.1124938E+00
         21   -1    0    0  501  502  0.00000000000E+00  0.00000000000E+00  0.13016516022E+04  0.13016516022E+04  0.00000000000E+00 0. -1.
         21   -1    0    0  502  503 -0.00000000000E+00 -0.00000000000E+00 -0.68225184662E+02  0.68225184662E+02  0.00000000000E+00 0. -1.
         -6    2    1    2    0  503 -0.11157724323E+02  0.15166129573E+03  0.10449575298E+04  0.10698431801E+04  0.17176305650E+03 0.  0.
        -24    2    3    3    0    0  0.60882657508E+02  0.55208410105E+02  0.49490147561E+03  0.50674751464E+03  0.71490604271E+02 0.  0.
          6    2    1    2  501    0  0.11157724323E+02 -0.15166129573E+03  0.18846888778E+03  0.30003360676E+03  0.17712707328E+03 0.  0.
         24    2    5    5    0    0  0.11523299243E+02 -0.17196354907E+03  0.20135147949E+03  0.27553123330E+03  0.75304671791E+02 0.  0.
          5    1    5    5  501    0 -0.36557492023E+00  0.20302253342E+02 -0.12882591718E+02  0.24502373460E+02  0.47000000000E+01 0. -1.
        -13    1    6    6    0    0  0.25485486558E+02 -0.13437983158E+03  0.10914767736E+03  0.17498761280E+03  0.00000000000E+00 0.  1.
         14    1    6    6    0    0 -0.13962187315E+02 -0.37583717493E+02  0.92203802132E+02  0.10054362050E+03  0.00000000000E+00 0. -1.
         -5    1    3    3    0  503 -0.72040381831E+02  0.96452885622E+02  0.55005605416E+03  0.56309566548E+03  0.47000000000E+01 0.  1.
         13    1    4    4    0    0  0.51193093228E+02  0.47089081953E+02  0.20325453065E+03  0.21482671775E+03  0.00000000000E+00 0. -1.
        -14    1    4    4    0    0  0.96895642798E+01  0.81193281520E+01  0.29164694496E+03  0.29192079688E+03  0.00000000000E+00 0.  1.
</event>
<event>
12    1  0.8449700E-002  0.2508395E+03  0.7818608E-02  0.1113017E+00
         21   -1    0    0  503  502  0.00000000000E+00  0.00000000000E+00  0.83880702710E+02  0.83880702710E+02  0.00000000000E+00 0.  1.
         21   -1    0    0  501  503 -0.00000000000E+00 -0.00000000000E+00 -0.77957607818E+03  0.77957607818E+03  0.00000000000E+00 0. -1.
          6    2    1    2  501    0  0.23048235848E+01  0.17964833108E+03 -0.25662694583E+03  0.35778739746E+03  0.17284558827E+03 0.  0.
         24    2    3    3    0    0  0.32346496630E+02  0.12787168460E+03 -0.25467700744E+03  0.29771065071E+03  0.79836018564E+02 0.  0.
         -6    2    1    2    0  502 -0.23048235848E+01 -0.17964833108E+03 -0.43906842963E+03  0.50566938342E+03  0.17504743459E+03 0.  0.
        -24    2    5    5    0    0  0.42988016309E+02 -0.14093816618E+03 -0.21403423441E+03  0.27283382507E+03  0.83163131083E+02 0.  0.
          5    1    3    3  501    0 -0.30041673045E+02  0.51776646487E+02 -0.19499383903E+01  0.60076746754E+02  0.47000000000E+01 0. -1.
        -11    1    4    4    0    0  0.38891181500E+01  0.66402701865E+02 -0.53269910000E+02  0.85218116422E+02  0.00000000000E+00 0.  1.
         12    1    4    4    0    0  0.28457378480E+02  0.61468982732E+02 -0.20140709744E+03  0.21249253429E+03  0.00000000000E+00 0. -1.
         -5    1    5    5    0  502 -0.45292839893E+02 -0.38710164903E+02 -0.22503419523E+03  0.23283555835E+03  0.47000000000E+01 0.  1.
         13    1    6    6    0    0  0.66937757530E+02 -0.98543722207E+02 -0.16699875029E+03  0.20513437344E+03  0.00000000000E+00 0. -1.
        -14    1    6    6    0    0 -0.23949741222E+02 -0.42394443975E+02 -0.47035484119E+02  0.67699451629E+02  0.00000000000E+00 0.  1.
</event>
<event>
12    1  0.8449700E-002  0.2506111E+03  0.7818608E-02  0.1112955E+00
         21   -1    0    0  501  502  0.00000000000E+00  0.00000000000E+00  0.11368885440E+04  0.11368885440E+04  0.00000000000E+00 0.  1.
         21   -1    0    0  502  503 -0.00000000000E+00 -0.00000000000E+00 -0.11904562364E+03  0.11904562364E+03  0.00000000000E+00 0.  1.
         -6    2    1    2    0  503  0.13449072505E+03 -0.12146901803E+03  0.48907121592E+02  0.25511326181E+03  0.17276687282E+03 0.  0.
        -24    2    3    3    0    0  0.11558789613E+03 -0.14322418273E+03  0.76987214857E+02  0.21460171074E+03  0.79076764925E+02 0.  0.
          6    2    1    2  501    0 -0.13449072505E+03  0.12146901803E+03  0.96893579879E+03  0.10008209059E+04  0.17309946837E+03 0.  0.
         24    2    5    5    0    0 -0.78508553894E+02  0.75958680477E+02  0.85662637226E+03  0.86725185406E+03  0.79898201073E+02 0.  0.
          5    1    5    5  501    0 -0.55982171152E+02  0.45510337549E+02  0.11230942653E+03  0.13356905180E+03  0.47000000000E+01 0. -1.
        -13    1    6    6    0    0 -0.60643713202E+02  0.82282705367E+02  0.51192869964E+03  0.52203361680E+03  0.00000000000E+00 0.  1.
         14    1    6    6    0    0 -0.17864840691E+02 -0.63240248895E+01  0.34469767262E+03  0.34521823725E+03  0.00000000000E+00 0. -1.
         -5    1    3    3    0  503  0.18902828914E+02  0.21755164700E+02 -0.28080093266E+02  0.40511551067E+02  0.47000000000E+01 0.  1.
         11    1    4    4    0    0  0.95733867628E+02 -0.60385968658E+02  0.29052506030E+02  0.11685669313E+03  0.00000000000E+00 0. -1.
        -12    1    4    4    0    0  0.19854028504E+02 -0.82838214068E+02  0.47934708827E+02  0.97745017613E+02  0.00000000000E+00 0.  1.
</event>
<event>
12    1  0.8449700E-002  0.2220079E+03  0.7818608E-02  0.1132596E+00
         21   -1    0    0  501  502  0.00000000000E+00  0.00000000000E+00  0.50008938156E+03  0.50008938156E+03  0.00000000000E+00 0. -1.
         21   -1    0    0  502  503 -0.00000000000E+00 -0.00000000000E+00 -0.10189886843E+03  0.10189886843E+03  0.00000000000E+00 0.  1.
         -6    2    1    2    0  503  0.91349213594E+02  0.10704414888E+03  0.14126022896E+03  0.26313862965E+03  0.17171009723E+03 0.  0.
        -24    2    3    3    0    0  0.59333156711E+02  0.12520630788E+03  0.15519720953E+03  0.22349999515E+03  0.81664135146E+02 0.  0.
          6    2    1    2  501    0 -0.91349213594E+02 -0.10704414888E+03  0.25693028417E+03  0.33884962035E+03  0.17030198370E+03 0.  0.
         24    2    5    5    0    0 -0.12045255262E+03 -0.60774498582E+02  0.14991540414E+03  0.21859090162E+03  0.84291142848E+02 0.  0.
          5    1    5    5  501    0  0.29103339025E+02 -0.46269650301E+02  0.10701488003E+03  0.12025871873E+03  0.47000000000E+01 0. -1.
        -13    1    6    6    0    0 -0.71906958782E+02 -0.33545522595E+02  0.27263147674E+02  0.83899892899E+02  0.00000000000E+00 0.  1.
         14    1    6    6    0    0 -0.48545593837E+02 -0.27228975986E+02  0.12265225646E+03  0.13469100872E+03  0.00000000000E+00 0. -1.
         -5    1    3    3    0  503  0.32016056883E+02 -0.18162158993E+02 -0.13936980565E+02  0.39638634498E+02  0.47000000000E+01 0.  1.
         13    1    4    4    0    0  0.18409146284E+02  0.11572984404E+03  0.99440230678E+02  0.15369011987E+03  0.00000000000E+00 0. -1.
        -14    1    4    4    0    0  0.40924010426E+02  0.94764638386E+01  0.55756978849E+02  0.69809875280E+02  0.00000000000E+00 0.  1.
</event>
<event>
12    1  0.8449700E-002  0.2136278E+03  0.7818608E-02  0.1138945E+00
         21   -1    0    0  501  502  0.00000000000E+00  0.00000000000E+00  0.75126021937E+02  0.75126021937E+02  0.00000000000E+00 0. -1.
         21   -1    0    0  502  503 -0.00000000000E+00 -0.00000000000E+00 -0.66780369656E+03  0.66780369656E+03  0.00000000000E+00 0. -1.
         -6    2    1    2    0  503 -0.46420234589E+02  0.11513974250E+03 -0.41164800274E+03  0.46377893652E+03  0.17385288412E+03 0.  0.
        -24    2    3    3    0    0 -0.87106950243E+02  0.90170041050E+02 -0.21476530078E+03  0.26113692915E+03  0.79687541452E+02 0.  0.
          6    2    1    2  501    0  0.46420234589E+02 -0.11513974250E+03 -0.18102967188E+03  0.27915078197E+03  0.17245700476E+03 0.  0.
         24    2    5    5    0    0 -0.12020176414E+02  0.10112979315E+01 -0.56592693008E+02  0.99114681307E+02  0.80470365875E+02 0.  0.
          5    1    5    5  501    0  0.58440411003E+02 -0.11615104043E+03 -0.12443697888E+03  0.18003610067E+03  0.47000000000E+01 0. -1.
        -13    1    6    6    0    0 -0.39363001910E+02 -0.22180845832E+02 -0.27075983778E+02  0.52673947438E+02  0.00000000000E+00 0.  1.
         14    1    6    6    0    0  0.27342825496E+02  0.23192143763E+02 -0.29516709230E+02  0.46440733868E+02  0.00000000000E+00 0. -1.
         -5    1    3    3    0  503  0.40686715654E+02  0.24969701453E+02 -0.19688270195E+03  0.20264200737E+03  0.47000000000E+01 0.  1.
         13    1    4    4    0    0 -0.46387789119E+02  0.59625667857E+02 -0.19012669130E+03  0.20458544912E+03  0.00000000000E+00 0. -1.
        -14    1    4    4    0    0 -0.40719161124E+02  0.30544373192E+02 -0.24638609480E+02  0.56551480029E+02  0.00000000000E+00 0.  1.
</event>
<event>
12    1  0.8449700E-002  0.2587317E+03  0.7818608E-02  0.1108792E+00
         21   -1    0    0  501  502  0.00000000000E+00  0.00000000000E+00  0.12720515281E+03  0.12720515281E+03  0.00000000000E+00 0.  1.
         21   -1    0    0  502  503 -0.00000000000E+00 -0.00000000000E+00 -0.51613279183E+03  0.51613279183E+03  0.00000000000E+00 0.  1.
         -6    2    1    2    0  503 -0.16529588880E+03 -0.85062458381E+02 -0.17887423653E+03  0.31454423212E+03  0.17995479650E+03 0.  0.
        -24    2    3    3    0    0 -0.74852057701E+02  0.18013837171E+02 -0.35589327145E+02  0.11615707389E+03  0.79363321109E+02 0.  0.
          6    2    1    2  501    0  0.16529588880E+03  0.85062458381E+02 -0.21005340248E+03  0.32879371253E+03  0.17153577127E+03 0.  0.
         24    2    5    5    0    0  0.15511212752E+03  0.74584166404E+01 -0.13489505440E+03  0.22017988480E+03  0.78530923119E+02 0.  0.
          5    1    5    5  501    0  0.10183761281E+02  0.77604041741E+02 -0.75158348080E+02  0.10861382773E+03  0.47000000000E+01 0. -1.
        -11    1    6    6    0    0  0.12239818742E+03  0.27849364813E+02 -0.13100339280E+03  0.18143536681E+03  0.00000000000E+00 0.  1.
         12    1    6    6    0    0  0.32713940094E+02 -0.20390948172E+02 -0.38916615982E+01  0.38744517984E+02  0.00000000000E+00 0. -1.
         -5    1    3    3    0  503 -0.90443831098E+02 -0.10307629555E+03 -0.14328490939E+03  0.19838715822E+03  0.47000000000E+01 0.  1.
         13    1    4    4    0    0 -0.14545488252E+02  0.11617566515E+01 -0.49845839693E+02  0.51937738127E+02  0.00000000000E+00 0. -1.
        -14    1    4    4    0    0 -0.60306569448E+02  0.16852080519E+02  0.14256512548E+02  0.64219335768E+02  0.00000000000E+00 0.  1.
</event>
<event>
12    1  0.8449700E-002  0.2115190E+03  0.7818608E-02  0.1140831E+00
         21   -1    0    0  501  502  0.00000000000E+00  0.00000000000E+00  0.29812031557E+03  0.29812031557E+03  0.00000000000E+00 0.  1.
         21   -1    0    0  502  503 -0.00000000000E+00 -0.00000000000E+00 -0.15716302973E+03  0.15716302973E+03  0.00000000000E+00 0.  1.
         -6    2    1    2    0  503 -0.11536352061E+03 -0.25573547457E+02  0.17151419762E+02  0.21221322831E+03  0.17543527255E+03 0.  0.
        -24    2    3    3    0    0  0.12742063067E+02 -0.13352882753E+02 -0.19165899504E+02  0.78417029217E+02  0.73764755259E+02 0.  0.
          6    2    1    2  501    0  0.11536352061E+03  0.25573547457E+02  0.12380586608E+03  0.24307011699E+03  0.17260486981E+03 0.  0.
         24    2    5    5    0    0  0.11526452540E+03 -0.41293084244E+02  0.77261540139E+02  0.16146361901E+03  0.71485138720E+02 0.  0.
          5    1    5    5  501    0  0.98995205670E-01  0.66866631701E+02  0.46544325942E+02  0.81606497979E+02  0.47000000000E+01 0. -1.
        -11    1    6    6    0    0  0.72862693008E+02  0.30136630176E+01  0.67490506201E+02  0.99363084818E+02  0.00000000000E+00 0.  1.
         12    1    6    6    0    0  0.42401832392E+02 -0.44306747262E+02  0.97710339385E+01  0.62100534196E+02  0.00000000000E+00 0. -1.
         -5    1    3    3    0  503 -0.12810558367E+03 -0.12220664703E+02  0.36317319266E+02  0.13379619910E+03  0.47000000000E+01 0.  1.
         13    1    4    4    0    0  0.23575615592E+02  0.19553019841E+02 -0.29233310295E+02  0.42340484955E+02  0.00000000000E+00 0. -1.
        -14    1    4    4    0    0 -0.10833552525E+02 -0.32905902594E+02  0.10067410790E+02  0.36076544262E+02  0.00000000000E+00 0.  1.
</event>
<event>
12    1  0.8449700E-002  0.2065745E+03  0.7818608E-02  0.1145563E+00
         21   -1    0    0  503  502  0.00000000000E+00  0.00000000000E+00  0.30173157609E+03  0.30173157609E+03  0.00000000000E+00 0. -1.
         21   -1    0    0  501  503 -0.00000000000E+00 -0.00000000000E+00 -0.22756572795E+03  0.22756572795E+03  0.00000000000E+00 0. -1.
          6    2    1    2  501    0 -0.80406222513E+02  0.81134259955E+02 -0.12994022992E+03  0.23889706355E+03  0.16474044696E+03 0.  0.
         24    2    3    3    0    0 -0.10797745300E+03  0.50695001972E+02 -0.56377257125E+02  0.15451506225E+03  0.80420120353E+02 0.  0.
         -6    2    1    2    0  502  0.80406222513E+02 -0.81134259955E+02  0.20410607806E+03  0.29040024049E+03  0.17211937665E+03 0.  0.
        -24    2    5    5    0    0  0.38527674737E+02  0.25151820956E+02  0.98467554730E+02  0.13473350875E+03  0.79625769871E+02 0.  0.
          5    1    3    3  501    0  0.27571230492E+02  0.30439257983E+02 -0.73562972795E+02  0.84382001302E+02  0.47000000000E+01 0. -1.
        -11    1    4    4    0    0 -0.15792188545E+02  0.27955381153E+02  0.15283236690E+02  0.35559441478E+02  0.00000000000E+00 0.  1.
         12    1    4    4    0    0 -0.92185264460E+02  0.22739620818E+02 -0.71660493815E+02  0.11895562077E+03  0.00000000000E+00 0. -1.
         -5    1    5    5    0  502  0.41878547776E+02 -0.10628608091E+03  0.10563852333E+03  0.15566673174E+03  0.47000000000E+01 0.  1.
         11    1    6    6    0    0 -0.45472248747E+00 -0.24922569081E+02  0.46302176768E+02  0.52585480844E+02  0.00000000000E+00 0. -1.
        -12    1    6    6    0    0  0.38982397224E+02  0.50074390037E+02  0.52165377962E+02  0.82148027906E+02  0.00000000000E+00 0.  1.
</event>
<event>
12    1  0.8449700E-002  0.1756663E+03  0.7818608E-02  0.1172350E+00
         21   -1    0    0  503  502  0.00000000000E+00  0.00000000000E+00  0.50016274527E+02  0.50016274527E+02  0.00000000000E+00 0.  1.
         21   -1    0    0  501  503 -0.00000000000E+00 -0.00000000000E+00 -0.91554959785E+03  0.91554959785E+03  0.00000000000E+00 0.  1.
          6    2    1    2  501    0  0.14677592336E+02 -0.30232511665E+02 -0.15617007313E+03  0.23504838124E+03  0.17242161496E+03 0.  0.
         24    2    3    3    0    0 -0.44489595929E+02 -0.35274529115E+02 -0.44865736204E+02  0.10880685272E+03  0.81255032844E+02 0.  0.
         -6    2    1    2    0  502 -0.14677592336E+02  0.30232511665E+02 -0.70936325020E+03  0.73051749113E+03  0.17126046726E+03 0.  0.
        -24    2    5    5    0    0 -0.39561878608E+02  0.61964956794E+02 -0.29816509289E+03  0.31731997136E+03  0.79904589948E+02 0.  0.
          5    1    3    3  501    0  0.59167188265E+02  0.50420174491E+01 -0.11130433692E+03  0.12624152853E+03  0.47000000000E+01 0. -1.
        -13    1    4    4    0    0 -0.43773250590E+02 -0.19773901538E+02  0.12292034588E+02  0.49580225530E+02  0.00000000000E+00 0.  1.
         14    1    4    4    0    0 -0.71634533902E+00 -0.15500627576E+02 -0.57157770792E+02  0.59226627186E+02  0.00000000000E+00 0. -1.
         -5    1    5    5    0  502  0.24884286272E+02 -0.31732445129E+02 -0.41119815730E+03  0.41319751977E+03  0.47000000000E+01 0.  1.
         11    1    6    6    0    0 -0.49101138290E+01  0.94029996249E+01  0.18522674888E+01  0.10768310666E+02  0.00000000000E+00 0. -1.
        -12    1    6    6    0    0 -0.34651764779E+02  0.52561957169E+02 -0.30001736038E+03  0.30655166070E+03  0.00000000000E+00 0.  1.
</event>
<event>
12    1  0.8449700E-002  0.1752536E+03  0.7818608E-02  0.1172536E+00
         21   -1    0    0  501  502  0.00000000000E+00  0.00000000000E+00  0.23299725576E+02  0.23299725576E+02  0.00000000000E+00 0.  1.
         21   -1    0    0  502  503 -0.00000000000E+00 -0.00000000000E+00 -0.16484267612E+04  0.16484267612E+04  0.00000000000E+00 0.  1.
         -6    2    1    2    0  503 -0.10223221128E+02 -0.34737472222E+02 -0.11872385503E+04  0.12000696720E+04  0.17123269527E+03 0.  0.
        -24    2    3    3    0    0 -0.22858154588E+02 -0.14297172069E+02 -0.30787985120E+03  0.32037014419E+03  0.84380816263E+02 0.  0.
          6    2    1    2  501    0  0.10223221128E+02  0.34737472222E+02 -0.43788848526E+03  0.47165681479E+03  0.17147191952E+03 0.  0.
         24    2    5    5    0    0  0.49713028766E+02 -0.17889705032E+02 -0.15751324938E+03  0.18362656015E+03  0.78210377100E+02 0.  0.
          5    1    5    5  501    0 -0.39489807639E+02  0.52627177254E+02 -0.28037523588E+03  0.28803025464E+03  0.47000000000E+01 0. -1.
        -13    1    6    6    0    0  0.22238614579E+02  0.29826653164E+02 -0.45198097162E+02  0.58541038635E+02  0.00000000000E+00 0.  1.
         14    1    6    6    0    0  0.27474414188E+02 -0.47716358196E+02 -0.11231515221E+03  0.12508552151E+03  0.00000000000E+00 0. -1.
         -5    1    3    3    0  503  0.12634933460E+02 -0.20440300152E+02 -0.87935869914E+03  0.87969952778E+03  0.47000000000E+01 0.  1.
         11    1    4    4    0    0  0.21154953606E+02  0.22643543110E+02 -0.11641996241E+03  0.12047352304E+03  0.00000000000E+00 0. -1.
        -12    1    4    4    0    0 -0.44013108195E+02 -0.36940715179E+02 -0.19145988879E+03  0.19989662115E+03  0.00000000000E+00 0.  1.
</event>
<event>
12    1  0.8449700E-002  0.1850215E+03  0.7818608E-02  0.1163354E+00
         21   -1    0    0  501  502  0.00000000000E+00  0.00000000000E+00  0.66372317621E+02  0.66372317621E+02  0.00000000000E+00 0.  1.
         21   -1    0    0  502  503 -0.00000000000E+00 -0.00000000000E+00 -0.72004524068E+03  0.72004524068E+03  0.00000000000E+00 0.  1.
         -6    2    1    2    0  503  0.52911281827E+02  0.37333936928E+02 -0.53736101933E+03  0.56787373292E+03  0.17184378035E+03 0.  0.
        -24    2    3    3    0    0  0.98902843103E+01 -0.77766463114E+01 -0.11359864143E+03  0.13952526044E+03  0.80027201715E+02 0.  0.
          6    2    1    2  501    0 -0.52911281827E+02 -0.37333936928E+02 -0.11631190373E+03  0.21854382538E+03  0.17331912207E+03 0.  0.
         24    2    5    5    0    0 -0.52178568945E+02 -0.66784191853E+02 -0.19383906370E+02  0.11712892976E+03  0.78490247940E+02 0.  0.
          5    1    5    5  501    0 -0.73271288220E+00  0.29450254926E+02 -0.96927997356E+02  0.10141489563E+03  0.47000000000E+01 0. -1.
        -13    1    6    6    0    0 -0.66675563476E+02 -0.26604651457E+02 -0.46253521863E+01  0.71936306041E+02  0.00000000000E+00 0.  1.
         14    1    6    6    0    0  0.14496994531E+02 -0.40179540396E+02 -0.14758554184E+02  0.45192623718E+02  0.00000000000E+00 0. -1.
         -5    1    3    3    0  503  0.43020997517E+02  0.45110583239E+02 -0.42376237790E+03  0.42834847247E+03  0.47000000000E+01 0.  1.
         11    1    4    4    0    0 -0.37421164722E+00 -0.38254789012E+02 -0.26121924610E+02  0.46324117499E+02  0.00000000000E+00 0. -1.
        -12    1    4    4    0    0  0.10264495958E+02  0.30478142701E+02 -0.87476716823E+02  0.93201142943E+02  0.00000000000E+00 0.  1.
</event>
<event>
12    1  0.8449700E-002  0.1791375E+03  0.7818608E-02  0.1168910E+00
         21   -1    0    0  501  502  0.00000000000E+00  0.00000000000E+00  0.28707019422E+03  0.28707019422E+03  0.00000000000E+00 0. -1.
         21   -1    0    0  502  503 -0.00000000000E+00 -0.00000000000E+00 -0.14065081184E+03  0.14065081184E+03  0.00000000000E+00 0. -1.
         -6    2    1    2    0  503  0.15942133697E+02  0.47796582801E+02 -0.24999917021E+02  0.17977987649E+03  0.17075462859E+03 0.  0.
        -24    2    3    3    0    0  0.30615012375E+01  0.89620917739E+02  0.16685060010E+02  0.11915881583E+03  0.76675618528E+02 0.  0.
          6    2    1    2  501    0 -0.15942133697E+02 -0.47796582801E+02  0.17141929940E+03  0.24794112957E+03  0.17190567928E+03 0.  0.
         24    2    5    5    0    0 -0.52530427588E+02 -0.17653724515E+02  0.34851360367E+02  0.10330300483E+03  0.79911161143E+02 0.  0.
          5    1    5    5  501    0  0.36588293891E+02 -0.30142858286E+02  0.13656793904E+03  0.14463812474E+03  0.47000000000E+01 0. -1.
        -11    1    6    6    0    0 -0.64624032093E+02 -0.30258995909E+01  0.47704053605E+02  0.80380957463E+02  0.00000000000E+00 0.  1.
         12    1    6    6    0    0  0.12093604505E+02 -0.14627824924E+02 -0.12852693238E+02  0.22922047365E+02  0.00000000000E+00 0. -1.
         -5    1    3    3    0  503  0.12880632459E+02 -0.41824334938E+02 -0.41684977031E+02  0.60621060661E+02  0.47000000000E+01 0.  1.
         13    1    4    4    0    0 -0.76476558326E+01  0.75650745261E+02 -0.19867116990E+02  0.78588957467E+02  0.00000000000E+00 0. -1.
        -14    1    4    4    0    0  0.10709157070E+02  0.13970172478E+02  0.36552177001E+02  0.40569858364E+02  0.00000000000E+00 0.  1.
</event>
<event>
12    1  0.8449700E-002  0.2484585E+03  0.7818608E-02  0.1114350E+00
         21   -1    0    0  501  502  0.00000000000E+00  0.00000000000E+00  0.13283660428E+04  0.13283660428E+04  0.00000000000E+00 0.  1.
         21   -1    0    0  502  503 -0.00000000000E+00 -0.00000000000E+00 -0.47016206401E+02  0.47016206401E+02  0.00000000000E+00 0. -1.
         -6    2    1    2    0  503  0.37005389470E+02  0.17703730788E+03  0.72036992649E+03  0.76201342811E+03  0.17035265303E+03 0.  0.
        -24    2    3    3    0    0  0.85339375810E+02  0.87002221209E+02  0.44584278921E+03  0.46904631362E+03  0.79852714867E+02 0.  0.
          6    2    1    2  501    0 -0.37005389470E+02 -0.17703730788E+03  0.56097990990E+03  0.61336882108E+03  0.16973875260E+03 0.  0.
         24    2    5    5    0    0 -0.58093456154E+02 -0.13962998940E+03  0.27127476366E+03  0.32046068568E+03  0.78953594435E+02 0.  0.
          5    1    5    5  501    0  0.21088066685E+02 -0.37407318479E+02  0.28970514624E+03  0.29290813541E+03  0.47000000000E+01 0. -1.
        -11    1    6    6    0    0  0.97896277314E+01 -0.22925073323E+02  0.96181594489E+02  0.99359422887E+02  0.00000000000E+00 0.  1.
         12    1    6    6    0    0 -0.67883083886E+02 -0.11670491608E+03  0.17509316918E+03  0.22110126279E+03  0.00000000000E+00 0. -1.
         -5    1    3    3    0  503 -0.48333986340E+02  0.90035086674E+02  0.27452713728E+03  0.29296711449E+03  0.47000000000E+01 0.  1.
         11    1    4    4    0    0  0.64504698290E+02  0.13653748156E+02  0.15643297047E+03  0.16976028744E+03  0.00000000000E+00 0. -1.
        -12    1    4    4    0    0  0.20834677520E+02  0.73348473053E+02  0.28940981874E+03  0.29928602618E+03  0.00000000000E+00 0.  1.
</event>
<event>
12    1  0.8449700E-002  0.2966849E+03  0.7818608E-02  0.1086961E+00
         21   -1    0    0  501  502  0.00000000000E+00  0.00000000000E+00  0.21899006716E+03  0.21899006716E+03  0.00000000000E+00 0.  1.
         21   -1    0    0  502  503 -0.00000000000E+00 -0.00000000000E+00 -0.55683396838E+03  0.55683396838E+03  0.00000000000E+00 0. -1.
         -6    2    1    2    0  503 -0.10459128735E+03 -0.21701697748E+03 -0.37378708902E+03  0.47696986173E+03  0.17247537556E+03 0.  0.
        -24    2    3    3    0    0  0.70611543087E+01 -0.10315911366E+03 -0.11876508956E+03  0.17615731031E+03  0.78959412657E+02 0.  0.
          6    2    1    2  501    0  0.10459128735E+03  0.21701697748E+03  0.35943187802E+02  0.29885417381E+03  0.17316523482E+03 0.  0.
         24    2    5    5    0    0  0.10858939010E+03  0.80775328273E+02 -0.25141375578E+01  0.15715439372E+03  0.79842803537E+02 0.  0.
          5    1    5    5  501    0 -0.39981027550E+01  0.13624164921E+03  0.38457325360E+02  0.14169978010E+03  0.47000000000E+01 0. -1.
        -13    1    6    6    0    0  0.64276410065E+02  0.62462244514E+02  0.35057520012E+02  0.96239381700E+02  0.00000000000E+00 0.  1.
         14    1    6    6    0    0  0.44312980036E+02  0.18313083759E+02 -0.37571657570E+02  0.60915012017E+02  0.00000000000E+00 0. -1.
         -5    1    3    3    0  503 -0.11165244165E+03 -0.11385786383E+03 -0.25502199946E+03  0.30081255142E+03  0.47000000000E+01 0.  1.
         11    1    4    4    0    0 -0.17725479255E+02 -0.50648598202E+02 -0.10275712228E+03  0.11592454138E+03  0.00000000000E+00 0. -1.
        -12    1    4    4    0    0  0.24786633564E+02 -0.52510515454E+02 -0.16007967279E+02  0.60232768931E+02  0.00000000000E+00 0.  1.
</event>
<event>
12    1  0.8449700E-002  0.1797567E+03  0.7818608E-02  0.1168212E+00
         21   -1    0    0  501  502  0.00000000000E+00  0.00000000000E+00  0.23249891888E+03  0.23249891888E+03  0.00000000000E+00 0.  1.
         21   -1    0    0  502  503 -0.00000000000E+00 -0.00000000000E+00 -0.13863200204E+03  0.13863200204E+03  0.00000000000E+00 0.  1.
         -6    2    1    2    0  503  0.41177025546E+02  0.19777415817E+02  0.39892721448E+02  0.18413009744E+03  0.17385560086E+03 0.  0.
        -24    2    3    3    0    0 -0.22762215363E+02  0.44344963898E+02  0.61287732458E+02  0.11221606930E+03  0.79697338656E+02 0.  0.
          6    2    1    2  501    0 -0.41177025546E+02 -0.19777415817E+02  0.53974195392E+02  0.18700082348E+03  0.17311672537E+03 0.  0.
         24    2    5    5    0    0 -0.45604085633E+02 -0.17028357095E+02  0.10202572766E+03  0.13843956383E+03  0.79915994380E+02 0.  0.
          5    1    5    5  501    0  0.44270600879E+01 -0.27490587213E+01 -0.48051532269E+02  0.48561259644E+02  0.47000000000E+01 0. -1.
        -13    1    6    6    0    0 -0.17222168164E+02 -0.37419255178E+02  0.13633954030E+02  0.43389957788E+02  0.00000000000E+00 0.  1.
         14    1    6    6    0    0 -0.28381917469E+02  0.20390898082E+02  0.88391773630E+02  0.95049606045E+02  0.00000000000E+00 0. -1.
         -5    1    3    3    0  503  0.63939240908E+02 -0.24567548082E+02 -0.21395011010E+02  0.71914028136E+02  0.47000000000E+01 0.  1.
         11    1    4    4    0    0 -0.28149715992E+02  0.41226646725E+02  0.78994991428E+02  0.93446517224E+02  0.00000000000E+00 0. -1.
        -12    1    4    4    0    0  0.53875006296E+01  0.31183171735E+01 -0.17707258970E+02  0.18769552080E+02  0.00000000000E+00 0.  1.
</event>
<event>
12    1  0.8449700E-002  0.1831983E+03  0.7818608E-02  0.1165791E+00
         21   -1    0    0  501  502  0.00000000000E+00  0.00000000000E+00  0.24107355727E+03  0.24107355727E+03  0.00000000000E+00 0. -1.
         21   -1    0    0  502  503 -0.00000000000E+00 -0.00000000000E+00 -0.14203558313E+03  0.14203558313E+03  0.00000000000E+00 0. -1.
         -6    2    1    2    0  503 -0.58743806124E+02  0.75042885674E+01  0.91798844178E+01  0.17905985397E+03  0.16873355304E+03 0.  0.
        -24    2    3    3    0    0 -0.80397772012E+02 -0.44120296956E+02 -0.25187178452E+01  0.12167571536E+03  0.79926425050E+02 0.  0.
          6    2    1    2  501    0  0.58743806124E+02 -0.75042885674E+01  0.89858089728E+02  0.20404928643E+03  0.17336229665E+03 0.  0.
         24    2    5    5    0    0  0.31060526722E+02  0.60881681583E+02  0.32272644633E+02  0.11034134462E+03  0.80388763318E+02 0.  0.
          5    1    5    5  501    0  0.27683279403E+02 -0.68385970150E+02  0.57585445095E+02  0.93707941812E+02  0.47000000000E+01 0. -1.
        -13    1    6    6    0    0  0.52801052747E+02  0.33134033177E+02 -0.31302090341E+00  0.62337094156E+02  0.00000000000E+00 0.  1.
         14    1    6    6    0    0 -0.21740526025E+02  0.27747648406E+02  0.32585665537E+02  0.48004250462E+02  0.00000000000E+00 0. -1.
         -5    1    3    3    0  503  0.21653965888E+02  0.51624585523E+02  0.11698602263E+02  0.57384138610E+02  0.47000000000E+01 0.  1.
         13    1    4    4    0    0 -0.48563234326E+02  0.27475796637E+01 -0.31586626126E+02  0.57996998820E+02  0.00000000000E+00 0. -1.
        -14    1    4    4    0    0 -0.31834537687E+02 -0.46867876620E+02  0.29067908280E+02  0.63678716541E+02  0.00000000000E+00 0.  1.
</event>
<event>
12    1  0.8449700E-002  0.1830624E+03  0.7818608E-02  0.1164884E+00
         21   -1    0    0  503  502  0.00000000000E+00  0.00000000000E+00  0.30028906354E+03  0.30028906354E+03  0.00000000000E+00 0.  1.
         21   -1    0    0  501  503 -0.00000000000E+00 -0.00000000000E+00 -0.18163879187E+03  0.18163879187E+03  0.00000000000E+00 0.  1.
          6    2    1    2  501    0 -0.50788160882E+02 -0.37629526482E+02 -0.90335200639E+02  0.20413792637E+03  0.17180345154E+03 0.  0.
         24    2    3    3    0    0 -0.62398710480E+02 -0.40028007427E+02  0.41240945188E+01  0.10882157933E+03  0.79556819463E+02 0.  0.
         -6    2    1    2    0  502  0.50788160882E+02  0.37629526482E+02  0.20898547231E+03  0.27778992904E+03  0.17174661129E+03 0.  0.
        -24    2    5    5    0    0 -0.10202860204E+02  0.75849744161E+02  0.14285624739E+03  0.17993363603E+03  0.78172398660E+02 0.  0.
          5    1    3    3  501    0  0.11610549599E+02  0.23984809454E+01 -0.94459295158E+02  0.95316347048E+02  0.47000000000E+01 0. -1.
        -11    1    4    4    0    0 -0.80773600807E+02 -0.33368662935E+02 -0.43861322219E+01  0.87504745067E+02  0.00000000000E+00 0.  1.
         12    1    4    4    0    0  0.18374890327E+02 -0.66593444923E+01  0.85102267408E+01  0.21316834258E+02  0.00000000000E+00 0. -1.
         -5    1    5    5    0  502  0.60991021086E+02 -0.38220217679E+02  0.66129224920E+02  0.97856293007E+02  0.47000000000E+01 0.  1.
         13    1    6    6    0    0  0.49961563609E+01 -0.30061801377E+01 -0.74848689037E+01  0.94879902987E+01  0.00000000000E+00 0. -1.
        -14    1    6    6    0    0 -0.15199016565E+02  0.78855924298E+02  0.15034111629E+03  0.17044564573E+03  0.00000000000E+00 0.  1.
</event>
<event>
12    1  0.8449700E-002  0.1727130E+03  0.7818608E-02  0.1175776E+00
         21   -1    0    0  501  502  0.00000000000E+00  0.00000000000E+00  0.31112087727E+02  0.31112087727E+02  0.00000000000E+00 0. -1.
         21   -1    0    0  502  503 -0.00000000000E+00 -0.00000000000E+00 -0.97887792004E+03  0.97887792004E+03  0.00000000000E+00 0. -1.
         -6    2    1    2    0  503  0.12942178558E+02  0.16243978764E+02 -0.57412395313E+03  0.59953989534E+03  0.17145963293E+03 0.  0.
        -24    2    3    3    0    0  0.34919530804E+02  0.68121627596E+02 -0.44755935432E+03  0.46092177918E+03  0.79243807946E+02 0.  0.
          6    2    1    2  501    0 -0.12942178558E+02 -0.16243978764E+02 -0.37364187919E+03  0.41045011243E+03  0.16861101410E+03 0.  0.
         24    2    5    5    0    0 -0.47245844456E+02  0.35682516602E+02 -0.26630281473E+03  0.28628543478E+03  0.86814452869E+02 0.  0.
          5    1    5    5  501    0  0.34303665898E+02 -0.51926495365E+02 -0.10733906446E+03  0.12416467764E+03  0.47000000000E+01 0. -1.
        -11    1    6    6    0    0 -0.94666508552E+01 -0.25529963595E+02 -0.36827813577E+02  0.45800484412E+02  0.00000000000E+00 0.  1.
         12    1    6    6    0    0 -0.37779193601E+02  0.61212480197E+02 -0.22947500115E+03  0.24048495037E+03  0.00000000000E+00 0. -1.
         -5    1    3    3    0  503 -0.21977352246E+02 -0.51877648832E+02 -0.12656459880E+03  0.13861811617E+03  0.47000000000E+01 0.  1.
         11    1    4    4    0    0  0.55178222937E+02  0.23809997957E+02 -0.28250217212E+03  0.28882352664E+03  0.00000000000E+00 0. -1.
        -12    1    4    4    0    0 -0.20258692133E+02  0.44311629639E+02 -0.16505718221E+03  0.17209825254E+03  0.00000000000E+00 0.  1.
</event>
<event>
12    1  0.8449700E-002  0.1987537E+03  0.7818608E-02  0.1151432E+00
         21   -1    0    0  501  502  0.00000000000E+00  0.00000000000E+00  0.56164391155E+03  0.56164391155E+03  0.00000000000E+00 0. -1.
         21   -1    0    0  502  503 -0.00000000000E+00 -0.00000000000E+00 -0.85182662605E+02  0.85182662605E+02  0.00000000000E+00 0. -1.
         -6    2    1    2    0  503  0.65591227446E+02 -0.64300055691E+02  0.97060646264E+02  0.21851845269E+03  0.17289545637E+03 0.  0.
        -24    2    3    3    0    0  0.85664235032E+02 -0.94943126655E+02  0.10226011037E+03  0.18122169869E+03  0.77663475594E+02 0.  0.
          6    2    1    2  501    0 -0.65591227446E+02  0.64300055691E+02  0.37940060268E+03  0.42830812146E+03  0.17625641355E+03 0.  0.
         24    2    5    5    0    0 -0.72626569256E+02 -0.14463996407E+02  0.14953049681E+03  0.18517106647E+03  0.80281558457E+02 0.  0.
          5    1    5    5  501    0  0.70353418099E+01  0.78764052098E+02  0.22987010587E+03  0.24313705499E+03  0.47000000000E+01 0. -1.
        -13    1    6    6    0    0 -0.17491965478E+02 -0.23790603114E+02  0.46742541136E+01  0.29896660421E+02  0.00000000000E+00 0.  1.
         14    1    6    6    0    0 -0.55134603777E+02  0.93266067073E+01  0.14485624270E+03  0.15527440605E+03  0.00000000000E+00 0. -1.
         -5    1    3    3    0  503 -0.20073007586E+02  0.30643070964E+02 -0.51994641095E+01  0.37296753996E+02  0.47000000000E+01 0.  1.
         13    1    4    4    0    0  0.58655797842E+02 -0.27901486112E+02  0.12783973481E+02  0.66199890677E+02  0.00000000000E+00 0. -1.
        -14    1    4    4    0    0  0.27008437190E+02 -0.67041640543E+02  0.89476136893E+02  0.11502180802E+03  0.00000000000E+00 0.  1.
</event>
<event>
12    1  0.8449700E-002  0.1754222E+03  0.7818608E-02  0.1172945E+00
         21   -1    0    0  501  502  0.00000000000E+00  0.00000000000E+00  0.69040311611E+03  0.69040311611E+03  0.00000000000E+00 0. -1.
         21   -1    0    0  502  503 -0.00000000000E+00 -0.00000000000E+00 -0.45433764220E+02  0.45433764220E+02  0.00000000000E+00 0. -1.
         -6    2    1    2    0  503  0.22446987095E+02 -0.27519698781E+02  0.25335780050E+03  0.30673017074E+03  0.16920999237E+03 0.  0.
        -24    2    3    3    0    0 -0.44705086721E+02 -0.40246488702E+01  0.90410302506E+02  0.12886675266E+03  0.80111638135E+02 0.  0.
          6    2    1    2  501    0 -0.22446987095E+02  0.27519698781E+02  0.39161155139E+03  0.42910670959E+03  0.17178987160E+03 0.  0.
         24    2    5    5    0    0  0.23498231931E+02  0.67081031363E+02  0.18521422752E+03  0.21393699172E+03  0.80079302437E+02 0.  0.
          5    1    5    5  501    0 -0.45945219027E+02 -0.39561332582E+02  0.20639732387E+03  0.21516971787E+03  0.47000000000E+01 0. -1.
        -13    1    6    6    0    0 -0.73602162501E+01  0.74852263816E+02  0.13273671777E+03  0.15256497116E+03  0.00000000000E+00 0.  1.
         14    1    6    6    0    0  0.30858448181E+02 -0.77712324529E+01  0.52477509753E+02  0.61372020562E+02  0.00000000000E+00 0. -1.
         -5    1    3    3    0  503  0.67152073817E+02 -0.23495049911E+02  0.16294749799E+03  0.17786341808E+03  0.47000000000E+01 0.  1.
         11    1    4    4    0    0  0.50104742125E+01  0.29994495729E+01 -0.12812384177E+02  0.14080438128E+02  0.00000000000E+00 0. -1.
        -12    1    4    4    0    0 -0.49715560934E+02 -0.70240984431E+01  0.10322268668E+03  0.11478631453E+03  0.00000000000E+00 0.  1.
</event>
<event>
12    1  0.8449700E-002  0.2613514E+03  0.7818608E-02  0.1106766E+00
         21   -1    0    0  501  502  0.00000000000E+00  0.00000000000E+00  0.16406163276E+04  0.16406163276E+04  0.00000000000E+00 0.  1.
         21   -1    0    0  502  503 -0.00000000000E+00 -0.00000000000E+00 -0.58591137234E+02  0.58591137234E+02  0.00000000000E+00 0. -1.
         -6    2    1    2    0  503  0.19213833426E+03 -0.17440502421E+02  0.32474477854E+03  0.41505069373E+03  0.17200754797E+03 0.  0.
        -24    2    3    3    0    0  0.20240554204E+03 -0.46850443327E+02  0.25492106054E+03  0.33844911558E+03  0.80000557774E+02 0.  0.
          6    2    1    2  501    0 -0.19213833426E+03  0.17440502421E+02  0.12572804118E+04  0.12841567711E+04  0.17630447580E+03 0.  0.
         24    2    5    5    0    0 -0.16851397212E+03 -0.46770839483E+02  0.87076559884E+03  0.89160486680E+03  0.78371169107E+02 0.  0.
          5    1    5    5  501    0 -0.23624362146E+02  0.64211341905E+02  0.38651481294E+03  0.39255190426E+03  0.47000000000E+01 0. -1.
        -11    1    6    6    0    0 -0.70159181667E+02 -0.20208401106E+00  0.50941462068E+03  0.51422330496E+03  0.00000000000E+00 0.  1.
         12    1    6    6    0    0 -0.98354790449E+02 -0.46568755472E+02  0.36135097817E+03  0.37738156184E+03  0.00000000000E+00 0. -1.
         -5    1    3    3    0  503 -0.10267207774E+02  0.29409940906E+02  0.69823717999E+02  0.76601578148E+02  0.47000000000E+01 0.  1.
         11    1    4    4    0    0  0.53698505430E+02 -0.48957047592E+02  0.67397102041E+02  0.99109491765E+02  0.00000000000E+00 0. -1.
        -12    1    4    4    0    0  0.14870703661E+03  0.21066042646E+01  0.18752395850E+03  0.23933962381E+03  0.00000000000E+00 0.  1.
</event>
<event>
12    1  0.8449700E-002  0.2075740E+03  0.7818608E-02  0.1144371E+00
         21   -1    0    0  503  502  0.00000000000E+00  0.00000000000E+00  0.59711489908E+03  0.59711489908E+03  0.00000000000E+00 0.  1.
         21   -1    0    0  501  503 -0.00000000000E+00 -0.00000000000E+00 -0.83607148969E+02  0.83607148969E+02  0.00000000000E+00 0.  1.
          6    2    1    2  501    0  0.10047935085E+03 -0.53157592245E+02  0.12518216506E+03  0.24239952420E+03  0.17368110237E+03 0.  0.
         24    2    3    3    0    0  0.82233504055E+02  0.20085808920E+02  0.28836813556E+02  0.11991677645E+03  0.79891692610E+02 0.  0.
         -6    2    1    2    0  502 -0.10047935085E+03  0.53157592245E+02  0.38832558505E+03  0.43832252385E+03  0.16854686396E+03 0.  0.
        -24    2    5    5    0    0 -0.41748593673E+02  0.30465006092E+02  0.77153212578E+02  0.12080938917E+03  0.77273725359E+02 0.  0.
          5    1    3    3  501    0  0.18245846800E+02 -0.73243401165E+02  0.96345351505E+02  0.12248274775E+03  0.47000000000E+01 0. -1.
        -13    1    4    4    0    0  0.24791031591E+02 -0.30241313323E+02  0.26986288129E+01  0.39197128419E+02  0.00000000000E+00 0.  1.
         14    1    4    4    0    0  0.57442472464E+02  0.50327122243E+02  0.26138184743E+02  0.80719648028E+02  0.00000000000E+00 0. -1.
         -5    1    5    5    0  502 -0.58730757182E+02  0.22692586153E+02  0.31117237247E+03  0.31751313468E+03  0.47000000000E+01 0.  1.
         11    1    6    6    0    0 -0.50177074615E+02  0.90221843536E+00  0.16529796697E+02  0.52837363615E+02  0.00000000000E+00 0. -1.
        -12    1    6    6    0    0  0.84284809416E+01  0.29562787656E+02  0.60623415881E+02  0.67972025556E+02  0.00000000000E+00 0.  1.
</event>
<event>
12    1  0.8449700E-002  0.3340736E+03  0.7818608E-02  0.1069389E+00
         21   -1    0    0  501  502  0.00000000000E+00  0.00000000000E+00  0.55650808696E+03  0.55650808696E+03  0.00000000000E+00 0.  1.
         21   -1    0    0  502  503 -0.00000000000E+00 -0.00000000000E+00 -0.20612985590E+03  0.20612985590E+03  0.00000000000E+00 0. -1.
         -6    2    1    2    0  503 -0.87869530910E+02 -0.27219934933E+03  0.11127281778E+03  0.35211758778E+03  0.17260247798E+03 0.  0.
        -24    2    3    3    0    0 -0.86726082495E+02 -0.23077745009E+03  0.30672419762E+02  0.26136740666E+03  0.81194082768E+02 0.  0.
          6    2    1    2  501    0  0.87869530910E+02  0.27219934933E+03  0.23910541328E+03  0.41052035508E+03  0.17187793062E+03 0.  0.
         24    2    5    5    0    0  0.11342406096E+03  0.22359628973E+03  0.14328760406E+03  0.29998332973E+03  0.81230180670E+02 0.  0.
          5    1    5    5  501    0 -0.25554530052E+02  0.48603059602E+02  0.95817809227E+02  0.11053702535E+03  0.47000000000E+01 0. -1.
        -13    1    6    6    0    0  0.65722223185E+02  0.55349054261E+02  0.68047543135E+02  0.10960564107E+03  0.00000000000E+00 0.  1.
         14    1    6    6    0    0  0.47701837777E+02  0.16824723547E+03  0.75240060923E+02  0.19037768866E+03  0.00000000000E+00 0. -1.
         -5    1    3    3    0  503 -0.11434484144E+01 -0.41421899248E+02  0.80600398020E+02  0.90750181116E+02  0.47000000000E+01 0.  1.
         11    1    4    4    0    0 -0.64566975457E+02 -0.72947211660E+02 -0.67618545439E+01  0.97651997858E+02  0.00000000000E+00 0. -1.
        -12    1    4    4    0    0 -0.22159107038E+02 -0.15783023843E+03  0.37434274306E+02  0.16371540880E+03  0.00000000000E+00 0.  1.
</event>
<event>
12    1  0.8449700E-002  0.2535011E+03  0.7818608E-02  0.1111293E+00
         21   -1    0    0  503  502  0.00000000000E+00  0.00000000000E+00  0.25099966336E+03  0.25099966336E+03  0.00000000000E+00 0. -1.
         21   -1    0    0  501  503 -0.00000000000E+00 -0.00000000000E+00 -0.30274956172E+03  0.30274956172E+03  0.00000000000E+00 0. -1.
          6    2    1    2  501    0  0.89801984767E+02  0.16234958082E+03 -0.13604943338E+03  0.28770164359E+03  0.17274549066E+03 0.  0.
         24    2    3    3    0    0  0.54546938385E+02  0.11290099501E+03 -0.15277905132E+02  0.15243918402E+03  0.85336318632E+02 0.  0.
         -6    2    1    2    0  502 -0.89801984767E+02 -0.16234958082E+03  0.84299535020E+02  0.26604758149E+03  0.17103543829E+03 0.  0.
        -24    2    5    5    0    0  0.47931947393E+01 -0.80908693443E+02  0.83554264050E+02  0.14113356486E+03  0.79800856496E+02 0.  0.
          5    1    3    3  501    0  0.35255046382E+02  0.49448585808E+02 -0.12077152825E+03  0.13526245958E+03  0.47000000000E+01 0. -1.
        -11    1    4    4    0    0 -0.84773340595E+01 -0.75928725758E+00 -0.20679643384E+02  0.22362677845E+02  0.00000000000E+00 0.  1.
         12    1    4    4    0    0  0.63024272444E+02  0.11366028227E+03  0.54017382522E+01  0.13007650617E+03  0.00000000000E+00 0. -1.
         -5    1    5    5    0  502 -0.94595179506E+02 -0.81440887374E+02  0.74527097000E+00  0.12491401663E+03  0.47000000000E+01 0.  1.
         11    1    6    6    0    0  0.12624907323E+01 -0.56178585182E+02  0.24246457624E+01  0.56245055098E+02  0.00000000000E+00 0. -1.
        -12    1    6    6    0    0  0.35307040070E+01 -0.24730108261E+02  0.81129618287E+02  0.84888509757E+02  0.00000000000E+00 0.  1.
</event>
<event>
12    1  0.8449700E-002  0.1855315E+03  0.7818608E-02  0.1162967E+00
         21   -1    0    0  501  502  0.00000000000E+00  0.00000000000E+00  0.89023556841E+02  0.89023556841E+02  0.00000000000E+00 0.  1.
         21   -1    0    0  502  503 -0.00000000000E+00 -0.00000000000E+00 -0.39827656411E+03  0.39827656411E+03  0.00000000000E+00 0. -1.
         -6    2    1    2    0  503 -0.64211581858E+02 -0.20653769551E+02 -0.10619133146E+03  0.21224378764E+03  0.17094186460E+03 0.  0.
        -24    2    3    3    0    0  0.22291272619E+02  0.17873188217E+02 -0.68954467806E+02  0.11038239003E+03  0.81321594347E+02 0.  0.
          6    2    1    2  501    0  0.64211581858E+02  0.20653769551E+02 -0.20306167580E+03  0.27505633331E+03  0.17283586685E+03 0.  0.
         24    2    5    5    0    0  0.13811554518E+02  0.30052261875E+02 -0.27356548547E+02  0.91963798893E+02  0.81333031890E+02 0.  0.
          5    1    5    5  501    0  0.50400027340E+02 -0.93984923239E+01 -0.17570512725E+03  0.18309253441E+03  0.47000000000E+01 0. -1.
        -11    1    6    6    0    0  0.10903961282E+02 -0.26961821656E+02 -0.17752894803E+02  0.34073471683E+02  0.00000000000E+00 0.  1.
         12    1    6    6    0    0  0.29075932359E+01  0.57014083531E+02 -0.96036537441E+01  0.57890327210E+02  0.00000000000E+00 0. -1.
         -5    1    3    3    0  503 -0.86502854477E+02 -0.38526957768E+02 -0.37236863659E+02  0.10186139761E+03  0.47000000000E+01 0.  1.
         13    1    4    4    0    0 -0.86659789921E+01 -0.21301508783E+02 -0.53310210293E+02  0.58058866591E+02  0.00000000000E+00 0. -1.
        -14    1    4    4    0    0  0.30957251612E+02  0.39174697000E+02 -0.15644257513E+02  0.52323523443E+02  0.00000000000E+00 0.  1.
</event>
<event>
12    1  0.8449700E-002  0.2039827E+03  0.7818608E-02  0.1148882E+00
         21   -1    0    0  501  502  0.00000000000E+00  0.00000000000E+00  0.10502515993E+03  0.10502515993E+03  0.00000000000E+00 0.  1.
         21   -1    0    0  502  503 -0.00000000000E+00 -0.00000000000E+00 -0.55128557249E+03  0.55128557249E+03  0.00000000000E+00 0.  1.
         -6    2    1    2    0  503  0.10788601914E+03  0.13481394981E+02 -0.41361312387E+03  0.46117756339E+03  0.17259138913E+03 0.  0.
        -24    2    3    3    0    0  0.13577161543E+03  0.35600566315E+02 -0.37504529002E+03  0.40848570417E+03  0.80624246112E+02 0.  0.
          6    2    1    2  501    0 -0.10788601914E+03 -0.13481394981E+02 -0.32647288696E+02  0.19513316904E+03  0.15871347473E+03 0.  0.
         24    2    5    5    0    0 -0.41006997586E+02 -0.40541278910E+02  0.25744372450E+02  0.10219923049E+03  0.80353847782E+02 0.  0.
          5    1    5    5  501    0 -0.66879021554E+02  0.27059883928E+02 -0.58391661146E+02  0.92933938545E+02  0.47000000000E+01 0. -1.
        -11    1    6    6    0    0 -0.58369431211E+02 -0.16231498101E+02  0.36168580610E+02  0.70559324358E+02  0.00000000000E+00 0.  1.
         12    1    6    6    0    0  0.17362433624E+02 -0.24309780809E+02 -0.10424208160E+02  0.31639906133E+02  0.00000000000E+00 0. -1.
         -5    1    3    3    0  503 -0.27885596290E+02 -0.22119171334E+02 -0.38567833844E+02  0.52691859223E+02  0.47000000000E+01 0.  1.
         13    1    4    4    0    0  0.24030760830E+02 -0.24636085879E+02 -0.93974772391E+02  0.10007832952E+03  0.00000000000E+00 0. -1.
        -14    1    4    4    0    0  0.11174085460E+03  0.60236652194E+02 -0.28107051763E+03  0.30840737465E+03  0.00000000000E+00 0.  1.
</event>
<event>
12    1  0.8449700E-002  0.2333244E+03  0.7818608E-02  0.1124705E+00
         21   -1    0    0  503  502  0.00000000000E+00  0.00000000000E+00  0.43226752046E+03  0.43226752046E+03  0.00000000000E+00 0. -1.
         21   -1    0    0  501  503 -0.00000000000E+00 -0.00000000000E+00 -0.12586815730E+03  0.12586815730E+03  0.00000000000E+00 0. -1.
          6    2    1    2  501    0 -0.44690594738E+02 -0.15073534219E+03  0.12620511815E+03  0.26333022244E+03  0.16940094912E+03 0.  0.
         24    2    3    3    0    0  0.27540713502E+02 -0.80422581577E+02  0.22347440016E+02  0.11852085292E+03  0.79507873657E+02 0.  0.
         -6    2    1    2    0  502  0.44690594738E+02  0.15073534219E+03  0.18019424501E+03  0.29480545532E+03  0.17240039998E+03 0.  0.
        -24    2    5    5    0    0  0.52743299884E+02  0.17906234079E+03  0.16515955477E+03  0.26140789821E+03  0.78811377006E+02 0.  0.
          5    1    3    3  501    0 -0.72231308240E+02 -0.70312760609E+02  0.10385767813E+03  0.14480936952E+03  0.47000000000E+01 0. -1.
        -13    1    4    4    0    0 -0.57254797170E+01  0.14606248916E+02  0.38271934546E+01  0.16148406582E+02  0.00000000000E+00 0.  1.
         14    1    4    4    0    0  0.33266193219E+02 -0.95028830493E+02  0.18520246562E+02  0.10237244634E+03  0.00000000000E+00 0. -1.
         -5    1    5    5    0  502 -0.80527051462E+01 -0.28326998607E+02  0.15034690240E+02  0.33397557109E+02  0.47000000000E+01 0.  1.
         11    1    6    6    0    0  0.13035929846E+02  0.12763126815E+03  0.69908451384E+02  0.14610567289E+03  0.00000000000E+00 0. -1.
        -12    1    6    6    0    0  0.39707370038E+02  0.51431072641E+02  0.95251103383E+02  0.11530222532E+03  0.00000000000E+00 0.  1.
</event>
<event>
12    1  0.8449700E-002  0.2069460E+03  0.7818608E-02  0.1144356E+00
         21   -1    0    0  503  502  0.00000000000E+00  0.00000000000E+00  0.13315158218E+03  0.13315158218E+03  0.00000000000E+00 0.  1.
         21   -1    0    0  501  503 -0.00000000000E+00 -0.00000000000E+00 -0.36098566758E+03  0.36098566758E+03  0.00000000000E+00 0.  1.
          6    2    1    2  501    0  0.81159814615E+02  0.81318037685E+02 -0.19862307176E+03  0.28684105037E+03  0.17212531709E+03 0.  0.
         24    2    3    3    0    0  0.20834053979E+02  0.10543333126E+03 -0.81692903152E+02  0.15299225840E+03  0.71990663017E+02 0.  0.
         -6    2    1    2    0  502 -0.81159814615E+02 -0.81318037685E+02 -0.29211013641E+02  0.20729619939E+03  0.17005555623E+03 0.  0.
        -24    2    5    5    0    0 -0.18233364624E+02 -0.14160995955E+02 -0.66299784980E+02  0.10796104287E+03  0.82017899856E+02 0.  0.
          5    1    3    3  501    0  0.60325760637E+02 -0.24115293570E+02 -0.11693016861E+03  0.13384879197E+03  0.47000000000E+01 0. -1.
        -11    1    4    4    0    0  0.14583973473E+02  0.60341123509E+02 -0.30862820212E+01  0.62155197734E+02  0.00000000000E+00 0.  1.
         12    1    4    4    0    0  0.62500805057E+01  0.45092207746E+02 -0.78606621131E+02  0.90837060671E+02  0.00000000000E+00 0. -1.
         -5    1    5    5    0  502 -0.62926449991E+02 -0.67157041729E+02  0.37088771339E+02  0.99335156525E+02  0.47000000000E+01 0.  1.
         11    1    6    6    0    0 -0.42799375374E+02  0.13556100550E+01 -0.90600321267E+01  0.43768806165E+02  0.00000000000E+00 0. -1.
        -12    1    6    6    0    0  0.24566010749E+02 -0.15516606010E+02 -0.57239752853E+02  0.64192236703E+02  0.00000000000E+00 0.  1.
</event>
<event>
12    1  0.8449700E-002  0.2511150E+03  0.7818608E-02  0.1112831E+00
         21   -1    0    0  503  502  0.00000000000E+00  0.00000000000E+00  0.20964531306E+03  0.20964531306E+03  0.00000000000E+00 0.  1.
         21   -1    0    0  501  503 -0.00000000000E+00 -0.00000000000E+00 -0.51105254640E+03  0.51105254640E+03  0.00000000000E+00 0.  1.
          6    2    1    2  501    0 -0.18088935546E+03  0.26701923332E+02 -0.38305272823E+03  0.45802637215E+03  0.17211860258E+03 0.  0.
         24    2    3    3    0    0 -0.15881868203E+03  0.36046622127E+02 -0.39204860782E+03  0.43199842812E+03  0.79986238029E+02 0.  0.
         -6    2    1    2    0  502  0.18088935546E+03 -0.26701923332E+02  0.81645494888E+02  0.26267148731E+03  0.16998932845E+03 0.  0.
        -24    2    5    5    0    0  0.89840956951E+02 -0.77358297962E+02  0.27707197301E+02  0.14525211452E+03  0.79213535337E+02 0.  0.
          5    1    3    3  501    0 -0.22070673427E+02 -0.93446987952E+01  0.89958795894E+01  0.26027944035E+02  0.47000000000E+01 0. -1.
        -11    1    4    4    0    0 -0.24863806055E+02 -0.23655602243E+02 -0.62842251820E+02  0.71602688378E+02  0.00000000000E+00 0.  1.
         12    1    4    4    0    0 -0.13395487597E+03  0.59702224371E+02 -0.32920635600E+03  0.36039573974E+03  0.00000000000E+00 0. -1.
         -5    1    5    5    0  502  0.91048398504E+02  0.50656374630E+02  0.53938297587E+02  0.11741937279E+03  0.47000000000E+01 0.  1.
         13    1    6    6    0    0  0.20822603680E+02 -0.39751267497E+02  0.46305981693E+02  0.64482462982E+02  0.00000000000E+00 0. -1.
        -14    1    6    6    0    0  0.69018353271E+02 -0.37607030465E+02 -0.18598784392E+02  0.80769651537E+02  0.00000000000E+00 0.  1.
</event>
<event>
12    1  0.8449700E-002  0.1909038E+03  0.7818608E-02  0.1157845E+00
         21   -1    0    0  503  502  0.00000000000E+00  0.00000000000E+00  0.21105887122E+03  0.21105887122E+03  0.00000000000E+00 0.  1.
         21   -1    0    0  501  503 -0.00000000000E+00 -0.00000000000E+00 -0.25196730440E+03  0.25196730440E+03  0.00000000000E+00 0. -1.
          6    2    1    2  501    0  0.64420437148E+01 -0.82013379899E+02 -0.15094167474E+03  0.24268193259E+03  0.17129926101E+03 0.  0.
         24    2    3    3    0    0  0.10216236196E+02 -0.11322790165E+03 -0.70941012786E+02  0.15659600570E+03  0.81023160336E+02 0.  0.
         -6    2    1    2    0  502 -0.64420437148E+01  0.82013379899E+02  0.11003324155E+03  0.22034424303E+03  0.17226890834E+03 0.  0.
        -24    2    5    5    0    0  0.19883547879E+02  0.10467466368E+03  0.32919159963E+02  0.13563744203E+03  0.77212070925E+02 0.  0.
          5    1    3    3  501    0 -0.37741924808E+01  0.31214521749E+02 -0.80000661952E+02  0.86085926897E+02  0.47000000000E+01 0. -1.
        -11    1    4    4    0    0 -0.22898730157E+02 -0.64211193917E+02 -0.69602395274E+02  0.97426498936E+02  0.00000000000E+00 0.  1.
         12    1    4    4    0    0  0.33114966352E+02 -0.49016707731E+02 -0.13386175127E+01  0.59169506759E+02  0.00000000000E+00 0. -1.
         -5    1    5    5    0  502 -0.26325591594E+02 -0.22661283780E+02  0.77114081589E+02  0.84706800994E+02  0.47000000000E+01 0.  1.
         13    1    6    6    0    0 -0.27592651781E+02  0.31941638003E+02 -0.14346795166E+01  0.42233647438E+02  0.00000000000E+00 0. -1.
        -14    1    6    6    0    0  0.47476199659E+02  0.72733025676E+02  0.34353839480E+02  0.93403794597E+02  0.00000000000E+00 0.  1.
</event>
<event>
12    1  0.8449700E-002  0.2529031E+03  0.7818608E-02  0.1112909E+00
         21   -1    0    0  503  502  0.00000000000E+00  0.00000000000E+00  0.17504751830E+04  0.17504751830E+04  0.00000000000E+00 0.  1.
         21   -1    0    0  501  503 -0.00000000000E+00 -0.00000000000E+00 -0.16049622112E+03  0.16049622112E+03  0.00000000000E+00 0.  1.
          6    2    1    2  501    0 -0.15108269565E+03 -0.73001406499E+02 -0.52190744284E+02  0.24944159471E+03  0.17703685805E+03 0.  0.
         24    2    3    3    0    0 -0.17481937615E+03 -0.80297037388E+02 -0.22828008802E+02  0.21069993153E+03  0.82848745742E+02 0.  0.
         -6    2    1    2    0  502  0.15108269565E+03  0.73001406499E+02  0.16421697061E+04  0.16615298094E+04  0.18922150359E+03 0.  0.
        -24    2    5    5    0    0  0.30308119268E+02 -0.27000239735E+02  0.78774042627E+03  0.79281909122E+03  0.79872004991E+02 0.  0.
          5    1    3    3  501    0  0.23736680500E+02  0.72956308883E+01 -0.29362735482E+02  0.38741663183E+02  0.47000000000E+01 0. -1.
        -11    1    4    4    0    0 -0.48000354230E+02  0.14773286334E+02 -0.13107975945E+02  0.51904749577E+02  0.00000000000E+00 0.  1.
         12    1    4    4    0    0 -0.12681902192E+03 -0.95070323721E+02 -0.97200328564E+01  0.15879518195E+03  0.00000000000E+00 0. -1.
         -5    1    5    5    0  502  0.12077457638E+03  0.10000164623E+03  0.85442927985E+03  0.86871071814E+03  0.47000000000E+01 0.  1.
         13    1    6    6    0    0 -0.25595690696E+01  0.44289298803E+01  0.15933073368E+01  0.53577459791E+01  0.00000000000E+00 0. -1.
        -14    1    6    6    0    0  0.32867688338E+02 -0.31429169616E+02  0.78614711894E+03  0.78746134524E+03  0.00000000000E+00 0.  1.
</event>
<event>
12    1  0.8449700E-002  0.5592293E+03  0.7818608E-02  0.9993894E-01
         21   -1    0    0  501  502  0.00000000000E+00  0.00000000000E+00  0.12060712290E+04  0.12060712290E+04  0.00000000000E+00 0. -1.
         21   -1    0    0  502  503 -0.00000000000E+00 -0.00000000000E+00 -0.37577539711E+03  0.37577539711E+03  0.00000000000E+00 0. -1.
         -6    2    1    2    0  503  0.53051017451E+03  0.30025810624E+02 -0.25374812815E+02  0.55963839595E+03  0.17380638234E+03 0.  0.
        -24    2    3    3    0    0  0.23607738956E+03 -0.16082490884E+02 -0.71590099969E+02  0.25801846444E+03  0.73872898983E+02 0.  0.
          6    2    1    2  501    0 -0.53051017451E+03 -0.30025810624E+02  0.85567064474E+03  0.10222082302E+04  0.17434109964E+03 0.  0.
         24    2    5    5    0    0 -0.19248591211E+03 -0.66423689726E+02  0.31893798964E+03  0.38684279154E+03  0.80392606698E+02 0.  0.
          5    1    5    5  501    0 -0.33802426240E+03  0.36397879103E+02  0.53673265510E+03  0.63536543865E+03  0.47000000000E+01 0. -1.
        -11    1    6    6    0    0 -0.10042245624E+03 -0.57111219736E+02  0.11555535326E+03  0.16339951286E+03  0.00000000000E+00 0.  1.
         12    1    6    6    0    0 -0.92063455873E+02 -0.93124699906E+01  0.20338263638E+03  0.22344327868E+03  0.00000000000E+00 0. -1.
         -5    1    3    3    0  503  0.29443278494E+03  0.46108301508E+02  0.46215287154E+02  0.30161993151E+03  0.47000000000E+01 0.  1.
         13    1    4    4    0    0  0.21070825825E+03 -0.11062827061E+02 -0.36035569693E+02  0.21405354125E+03  0.00000000000E+00 0. -1.
        -14    1    4    4    0    0  0.25369131314E+02 -0.50196638228E+01 -0.35554530277E+02  0.43964923197E+02  0.00000000000E+00 0.  1.
</event>
<event>
12    1  0.8449700E-002  0.2381661E+03  0.7818608E-02  0.1122068E+00
         21   -1    0    0  501  502  0.00000000000E+00  0.00000000000E+00  0.19255076479E+03  0.19255076479E+03  0.00000000000E+00 0. -1.
         21   -1    0    0  502  503 -0.00000000000E+00 -0.00000000000E+00 -0.29897687450E+03  0.29897687450E+03  0.00000000000E+00 0.  1.
         -6    2    1    2    0  503  0.11003694576E+03  0.12220283786E+03 -0.47769170692E+01  0.23821395990E+03  0.17228293223E+03 0.  0.
        -24    2    3    3    0    0  0.60734253968E+02  0.44420228357E+01 -0.37664942405E+02  0.10629702701E+03  0.78562261244E+02 0.  0.
          6    2    1    2  501    0 -0.11003694576E+03 -0.12220283786E+03 -0.10164919264E+03  0.25331367940E+03  0.16368750347E+03 0.  0.
         24    2    5    5    0    0 -0.21444797804E+02 -0.33905242513E+02  0.24022655282E+01  0.90544425637E+02  0.81136165251E+02 0.  0.
          5    1    5    5  501    0 -0.88592147959E+02 -0.88297595344E+02 -0.10405145816E+03  0.16276925376E+03  0.47000000000E+01 0. -1.
        -11    1    6    6    0    0 -0.15953143556E+02 -0.30442875671E+02 -0.37064377323E+02  0.50547398892E+02  0.00000000000E+00 0.  1.
         12    1    6    6    0    0 -0.54916542479E+01 -0.34623668421E+01  0.39466642851E+02  0.39997026745E+02  0.00000000000E+00 0. -1.
         -5    1    3    3    0  503  0.49302691795E+02  0.11776081502E+03  0.32888025335E+02  0.13191693289E+03  0.47000000000E+01 0.  1.
         13    1    4    4    0    0  0.32907316090E+02  0.34217972544E+02  0.44617554162E+01  0.47682998633E+02  0.00000000000E+00 0. -1.
        -14    1    4    4    0    0  0.27826937879E+02 -0.29775949708E+02 -0.42126697821E+02  0.58614028372E+02  0.00000000000E+00 0.  1.
</event>
<event>
12    1  0.8449700E-002  0.4436324E+03  0.7818608E-02  0.1029698E+00
         21   -1    0    0  503  502  0.00000000000E+00  0.00000000000E+00  0.40476065018E+03  0.40476065018E+03  0.00000000000E+00 0. -1.
         21   -1    0    0  501  503 -0.00000000000E+00 -0.00000000000E+00 -0.49230568830E+03  0.49230568830E+03  0.00000000000E+00 0.  1.
          6    2    1    2  501    0 -0.15216910187E+03 -0.37972463163E+03 -0.96957362181E+02  0.45333410184E+03  0.16960202351E+03 0.  0.
         24    2    3    3    0    0 -0.16895859635E+03 -0.25541268880E+03 -0.57785496445E+02  0.32183554169E+03  0.80351125804E+02 0.  0.
         -6    2    1    2    0  502  0.15216910187E+03  0.37972463163E+03  0.94123240664E+01  0.44373223664E+03  0.17164927776E+03 0.  0.
        -24    2    5    5    0    0  0.12168216571E+03  0.21976036871E+03 -0.51884993176E+02  0.26967055277E+03  0.83240527444E+02 0.  0.
          5    1    3    3  501    0  0.16789494479E+02 -0.12431194284E+03 -0.39171865736E+02  0.13149856015E+03  0.47000000000E+01 0. -1.
        -13    1    4    4    0    0 -0.44859406981E+02 -0.12182697550E+03 -0.50673330604E+02  0.13936270946E+03  0.00000000000E+00 0.  1.
         14    1    4    4    0    0 -0.12409918937E+03 -0.13358571329E+03 -0.71121658412E+01  0.18247283223E+03  0.00000000000E+00 0. -1.
         -5    1    5    5    0  502  0.30486936159E+02  0.15996426292E+03  0.61297317242E+02  0.17406168387E+03  0.47000000000E+01 0.  1.
         13    1    6    6    0    0  0.51592352042E+01  0.40184901416E+02  0.18210028899E+02  0.44419018024E+02  0.00000000000E+00 0. -1.
        -14    1    6    6    0    0  0.11652293051E+03  0.17957546729E+03 -0.70095022075E+02  0.22525153475E+03  0.00000000000E+00 0.  1.
</event>
<event>
12    1  0.8449700E-002  0.1736554E+03  0.7818608E-02  0.1174333E+00
         21   -1    0    0  503  502  0.00000000000E+00  0.00000000000E+00  0.91053250972E+02  0.91053250972E+02  0.00000000000E+00 0.  1.
         21   -1    0    0  501  503 -0.00000000000E+00 -0.00000000000E+00 -0.85804002216E+03  0.85804002216E+03  0.00000000000E+00 0.  1.
          6    2    1    2  501    0  0.12998277512E+02 -0.13890857947E+02 -0.75557931755E+03  0.77506362423E+03  0.17164383282E+03 0.  0.
         24    2    3    3    0    0  0.33265205567E+00  0.52484244176E+02 -0.56261667706E+03  0.57055752928E+03  0.79016848591E+02 0.  0.
         -6    2    1    2    0  502 -0.12998277512E+02  0.13890857947E+02 -0.11407453642E+02  0.17402964890E+03  0.17261018958E+03 0.  0.
        -24    2    5    5    0    0 -0.34948901503E+02  0.58478666513E+02  0.29419739319E+02  0.10954048507E+03  0.80575533850E+02 0.  0.
          5    1    3    3  501    0  0.12665625456E+02 -0.66375102124E+02 -0.19296264048E+03  0.20450609495E+03  0.47000000000E+01 0. -1.
        -13    1    4    4    0    0  0.21258992373E+02  0.15559109557E+01 -0.35886373327E+03  0.35949623735E+03  0.00000000000E+00 0.  1.
         14    1    4    4    0    0 -0.20926340318E+02  0.50928333221E+02 -0.20375294380E+03  0.21106129193E+03  0.00000000000E+00 0. -1.
         -5    1    5    5    0  502  0.21950623991E+02 -0.44587808566E+02 -0.40827192961E+02  0.64489163830E+02  0.47000000000E+01 0.  1.
         11    1    6    6    0    0 -0.21414908468E+01  0.67696922257E+02  0.32875485707E+02  0.75287826549E+02  0.00000000000E+00 0. -1.
        -12    1    6    6    0    0 -0.32807410656E+02 -0.92182557433E+01 -0.34557463878E+01  0.34252658525E+02  0.00000000000E+00 0.  1.
</event>
<event>
12    1  0.8449700E-002  0.1874199E+03  0.7818608E-02  0.1160814E+00
         21   -1    0    0  501  502  0.00000000000E+00  0.00000000000E+00  0.23366132148E+03  0.23366132148E+03  0.00000000000E+00 0.  1.
         21   -1    0    0  502  503 -0.00000000000E+00 -0.00000000000E+00 -0.27002136796E+03  0.27002136796E+03  0.00000000000E+00 0.  1.
         -6    2    1    2    0  503 -0.54651279495E+02  0.49525098214E+02 -0.18586449420E+03  0.26395424364E+03  0.17229838894E+03 0.  0.
        -24    2    3    3    0    0 -0.15092602792E+02  0.79577021300E+02 -0.17830915670E+03  0.21348464776E+03  0.84977941189E+02 0.  0.
          6    2    1    2  501    0  0.54651279495E+02 -0.49525098214E+02  0.14950444772E+03  0.23972844579E+03  0.17227492601E+03 0.  0.
         24    2    5    5    0    0  0.59838710046E+01 -0.70039738015E+02  0.15392844529E+03  0.18652103231E+03  0.78452263258E+02 0.  0.
          5    1    5    5  501    0  0.48667408491E+02  0.20514639801E+02 -0.44239975741E+01  0.53207413486E+02  0.47000000000E+01 0. -1.
        -11    1    6    6    0    0  0.21385955930E+02 -0.76003262361E+02  0.15005090367E+03  0.16955568021E+03  0.00000000000E+00 0.  1.
         12    1    6    6    0    0 -0.15402084925E+02  0.59635243458E+01  0.38775416206E+01  0.16965352095E+02  0.00000000000E+00 0. -1.
         -5    1    3    3    0  503 -0.39558676703E+02 -0.30051923086E+02 -0.75553374918E+01  0.50469595880E+02  0.47000000000E+01 0.  1.
         11    1    4    4    0    0  0.28562195993E+02  0.32920040416E+02 -0.32743343288E+02  0.54512884997E+02  0.00000000000E+00 0. -1.
        -12    1    4    4    0    0 -0.43654798786E+02  0.46656980884E+02 -0.14556581342E+03  0.15897176277E+03  0.00000000000E+00 0.  1.
</event>
<event>
12    1  0.8449700E-002  0.2089244E+03  0.7818608E-02  0.1142543E+00
         21   -1    0    0  501  502  0.00000000000E+00  0.00000000000E+00  0.84601582354E+03  0.84601582354E+03  0.00000000000E+00 0. -1.
         21   -1    0    0  502  503 -0.00000000000E+00 -0.00000000000E+00 -0.84916394838E+02  0.84916394838E+02  0.00000000000E+00 0.  1.
         -6    2    1    2    0  503  0.11631484182E+03 -0.18707449464E+02  0.87970908190E+02  0.22612628996E+03  0.17179961359E+03 0.  0.
        -24    2    3    3    0    0  0.75075340865E+01  0.34795998889E+02  0.42596830701E+02  0.96578823329E+02  0.79030718858E+02 0.  0.
          6    2    1    2  501    0 -0.11631484182E+03  0.18707449464E+02  0.67312852051E+03  0.70480592842E+03  0.17254066336E+03 0.  0.
         24    2    5    5    0    0 -0.83798208507E+02 -0.54517653188E+02  0.44438043336E+03  0.46238681928E+03  0.79581950409E+02 0.  0.
          5    1    5    5  501    0 -0.32516633315E+02  0.73225102652E+02  0.22874808716E+03  0.24241910914E+03  0.47000000000E+01 0. -1.
        -11    1    6    6    0    0 -0.10107546213E+02 -0.40953050854E+02  0.25939638738E+03  0.26280373028E+03  0.00000000000E+00 0.  1.
         12    1    6    6    0    0 -0.73690662295E+02 -0.13564602334E+02  0.18498404598E+03  0.19958308899E+03  0.00000000000E+00 0. -1.
         -5    1    3    3    0  503  0.10880730774E+03 -0.53503448353E+02  0.45374077489E+02  0.12954746663E+03  0.47000000000E+01 0.  1.
         11    1    4    4    0    0  0.26125968174E+02  0.23956256346E+02 -0.12368095271E+02  0.37542485423E+02  0.00000000000E+00 0. -1.
        -12    1    4    4    0    0 -0.18618434088E+02  0.10839742543E+02  0.54964925971E+02  0.59036337906E+02  0.00000000000E+00 0.  1.
</event>
<event>
12    1  0.8449700E-002  0.2572321E+03  0.7818608E-02  0.1108871E+00
         21   -1    0    0  501  502  0.00000000000E+00  0.00000000000E+00  0.79456792754E+03  0.79456792754E+03  0.00000000000E+00 0. -1.
         21   -1    0    0  502  503 -0.00000000000E+00 -0.00000000000E+00 -0.12076741087E+03  0.12076741087E+03  0.00000000000E+00 0. -1.
         -6    2    1    2    0  503  0.15936557311E+03  0.10225453657E+03  0.81674122329E+02  0.26988708892E+03  0.17411203969E+03 0.  0.
        -24    2    3    3    0    0  0.12076836836E+03  0.13506094129E+03  0.91591065758E+02  0.21805620843E+03  0.79580965376E+02 0.  0.
          6    2    1    2  501    0 -0.15936557311E+03 -0.10225453657E+03  0.59212639434E+03  0.64544824949E+03  0.17359838638E+03 0.  0.
         24    2    5    5    0    0 -0.12553896813E+02 -0.27466827040E+02  0.27364239497E+03  0.28683840906E+03  0.80523820559E+02 0.  0.
          5    1    5    5  501    0 -0.14681167630E+03 -0.74787709531E+02  0.31848399937E+03  0.35860984043E+03  0.47000000000E+01 0. -1.
        -11    1    6    6    0    0  0.31399300603E+02 -0.11513042141E+02  0.65920567946E+02  0.73918789871E+02  0.00000000000E+00 0.  1.
         12    1    6    6    0    0 -0.43953197416E+02 -0.15953784899E+02  0.20772182702E+03  0.21291961919E+03  0.00000000000E+00 0. -1.
         -5    1    3    3    0  503  0.38597204754E+02 -0.32806404722E+02 -0.99169434287E+01  0.51830880492E+02  0.47000000000E+01 0.  1.
         13    1    4    4    0    0  0.10284868716E+03  0.59293917760E+02  0.67461558632E+02  0.13654553463E+03  0.00000000000E+00 0. -1.
        -14    1    4    4    0    0  0.17919681191E+02  0.75767023532E+02  0.24129507126E+02  0.81510673798E+02  0.00000000000E+00 0.  1.
</event>
<event>
12    1  0.8449700E-002  0.1967743E+03  0.7818608E-02  0.1152769E+00
         21   -1    0    0  503  502  0.00000000000E+00  0.00000000000E+00  0.42180710387E+02  0.42180710387E+02  0.00000000000E+00 0.  1.
         21   -1    0    0  501  503 -0.00000000000E+00 -0.00000000000E+00 -0.10118436523E+04  0.10118436523E+04  0.00000000000E+00 0.  1.
          6    2    1    2  501    0  0.28527893095E+02 -0.89322049334E+02 -0.32066480399E+03  0.37622607574E+03  0.17299674669E+03 0.  0.
         24    2    3    3    0    0  0.64476427609E+02 -0.56440655353E+02 -0.11245355900E+03  0.16233943346E+03  0.79784280597E+02 0.  0.
         -6    2    1    2    0  502 -0.28527893095E+02  0.89322049334E+02 -0.64899813794E+03  0.67779828696E+03  0.17152161842E+03 0.  0.
        -24    2    5    5    0    0 -0.83128132988E+02  0.61184910056E+02 -0.40367429188E+03  0.42485804848E+03  0.83051476307E+02 0.  0.
          5    1    3    3  501    0 -0.35948534514E+02 -0.32881393981E+02 -0.20821124499E+03  0.21388664228E+03  0.47000000000E+01 0. -1.
        -13    1    4    4    0    0  0.68840048227E+02 -0.46293722965E+02 -0.12213951779E+03  0.14764864657E+03  0.00000000000E+00 0.  1.
         14    1    4    4    0    0 -0.43636206181E+01 -0.10146932388E+02  0.96859587943E+01  0.14690786893E+02  0.00000000000E+00 0. -1.
         -5    1    5    5    0  502  0.54600239893E+02  0.28137139278E+02 -0.24532384605E+03  0.25294023849E+03  0.47000000000E+01 0.  1.
         13    1    6    6    0    0 -0.59246106663E+02  0.41835237868E+02 -0.37774578482E+03  0.38464550723E+03  0.00000000000E+00 0. -1.
        -14    1    6    6    0    0 -0.23882026325E+02  0.19349672188E+02 -0.25928507063E+02  0.40212541249E+02  0.00000000000E+00 0.  1.
</event>
<event>
12    1  0.8449700E-002  0.2426836E+03  0.7818608E-02  0.1118350E+00
         21   -1    0    0  503  502  0.00000000000E+00  0.00000000000E+00  0.63050343040E+03  0.63050343040E+03  0.00000000000E+00 0. -1.
         21   -1    0    0  501  503 -0.00000000000E+00 -0.00000000000E+00 -0.94810817040E+02  0.94810817040E+02  0.00000000000E+00 0.  1.
          6    2    1    2  501    0 -0.98210991319E+02  0.13094713940E+03  0.32387022551E+03  0.40470637481E+03  0.17917247194E+03 0.  0.
         24    2    3    3    0    0  0.15176219945E+02  0.83617669838E+02  0.12201878264E+03  0.16835317860E+03  0.78942872173E+02 0.  0.
         -6    2    1    2    0  502  0.98210991319E+02 -0.13094713940E+03  0.21182238784E+03  0.32060787263E+03  0.17643166345E+03 0.  0.
        -24    2    5    5    0    0  0.33748775900E+02 -0.10008826379E+03  0.46208196660E+02  0.14017007797E+03  0.79723352259E+02 0.  0.
          5    1    3    3  501    0 -0.11338721126E+03  0.47329469565E+02  0.20185144287E+03  0.23635319621E+03  0.47000000000E+01 0. -1.
        -11    1    4    4    0    0 -0.26626297715E+02  0.17505522436E+02  0.62181378530E+02  0.69870787041E+02  0.00000000000E+00 0.  1.
         12    1    4    4    0    0  0.41802517660E+02  0.66112147402E+02  0.59837404111E+02  0.98482391561E+02  0.00000000000E+00 0. -1.
         -5    1    5    5    0  502  0.64462215419E+02 -0.30858875610E+02  0.16561419118E+03  0.18043779466E+03  0.47000000000E+01 0.  1.
         13    1    6    6    0    0 -0.14786555889E+02 -0.33951620611E+02  0.44798773893E+02  0.58123015402E+02  0.00000000000E+00 0. -1.
        -14    1    6    6    0    0  0.48535331789E+02 -0.66136643182E+02  0.14094227669E+01  0.82047062566E+02  0.00000000000E+00 0.  1.
</event>
<event>
12    1  0.8449700E-002  0.1914017E+03  0.7818608E-02  0.1157321E+00
         21   -1    0    0  501  502  0.00000000000E+00  0.00000000000E+00  0.13132938078E+03  0.13132938078E+03  0.00000000000E+00 0.  1.
         21   -1    0    0  502  503 -0.00000000000E+00 -0.00000000000E+00 -0.73215536218E+03  0.73215536218E+03  0.00000000000E+00 0.  1.
         -6    2    1    2    0  503  0.16282223812E+02  0.80563760330E+02 -0.64053690393E+03  0.66852235065E+03  0.17285536648E+03 0.  0.
        -24    2    3    3    0    0  0.72757528441E+02  0.78890220927E+02 -0.41251223154E+03  0.43355511466E+03  0.79286640575E+02 0.  0.
          6    2    1    2  501    0 -0.16282223812E+02 -0.80563760330E+02  0.39710922539E+02  0.19496239232E+03  0.17227230410E+03 0.  0.
         24    2    5    5    0    0 -0.20400184065E+02  0.26987764323E+02  0.39758782123E+02  0.87229480253E+02  0.69883578445E+02 0.  0.
          5    1    5    5  501    0  0.41179602527E+01 -0.10755152465E+03 -0.47859584643E-01  0.10773291207E+03  0.47000000000E+01 0. -1.
        -13    1    6    6    0    0  0.16993652166E+00 -0.89501330408E+01  0.44645087507E+02  0.45533697395E+02  0.00000000000E+00 0.  1.
         14    1    6    6    0    0 -0.20570120587E+02  0.35937897364E+02 -0.48863053842E+01  0.41695782858E+02  0.00000000000E+00 0. -1.
         -5    1    3    3    0  503 -0.56475304629E+02  0.16735394031E+01 -0.22802467240E+03  0.23496723599E+03  0.47000000000E+01 0.  1.
         11    1    4    4    0    0  0.32801412967E+01  0.64566536578E+01  0.16308383051E+01  0.74234316162E+01  0.00000000000E+00 0. -1.
        -12    1    4    4    0    0  0.69477387145E+02  0.72433567269E+02 -0.41414306984E+03  0.42613168304E+03  0.00000000000E+00 0.  1.
</event>
<event>
12    1  0.8449700E-002  0.2130235E+03  0.7818608E-02  0.1139393E+00
         21   -1    0    0  501  502  0.00000000000E+00  0.00000000000E+00  0.14637838300E+03  0.14637838300E+03  0.00000000000E+00 0.  1.
         21   -1    0    0  502  503 -0.00000000000E+00 -0.00000000000E+00 -0.54426290247E+03  0.54426290247E+03  0.00000000000E+00 0.  1.
         -6    2    1    2    0  503 -0.46884390895E+01 -0.12540829186E+03 -0.42647696536E+03  0.47671965975E+03  0.17213311966E+03 0.  0.
        -24    2    3    3    0    0  0.36772001669E+02 -0.19314254119E+02 -0.11725903808E+03  0.14715520544E+03  0.78611398401E+02 0.  0.
          6    2    1    2  501    0  0.46884390895E+01  0.12540829186E+03  0.28592445895E+02  0.21392162572E+03  0.17086753014E+03 0.  0.
         24    2    5    5    0    0 -0.24309872065E+02  0.14394821106E+03  0.48991773569E+02  0.17363697326E+03  0.80234327187E+02 0.  0.
          5    1    5    5  501    0  0.28998311154E+02 -0.18539919196E+02 -0.20399327674E+02  0.40284652452E+02  0.47000000000E+01 0. -1.
        -13    1    6    6    0    0 -0.56250023527E+01  0.65753333503E+02  0.63910954762E+02  0.91868121004E+02  0.00000000000E+00 0.  1.
         14    1    6    6    0    0 -0.18684869712E+02  0.78194877557E+02 -0.14919181192E+02  0.81768852259E+02  0.00000000000E+00 0. -1.
         -5    1    3    3    0  503 -0.41460440759E+02 -0.10609403775E+03 -0.30921792728E+03  0.32956445431E+03  0.47000000000E+01 0.  1.
         11    1    4    4    0    0  0.38065485369E+02  0.15184687732E+02 -0.10099394561E+03  0.10899235280E+03  0.00000000000E+00 0. -1.
        -12    1    4    4    0    0 -0.12934836998E+01 -0.34498941851E+02 -0.16265092463E+02  0.38162852641E+02  0.00000000000E+00 0.  1.
</event>
<event>
12    1  0.8449700E-002  0.2623840E+03  0.7818608E-02  0.1105781E+00
         21   -1    0    0  501  502  0.00000000000E+00  0.00000000000E+00  0.15822653030E+03  0.15822653030E+03  0.00000000000E+00 0.  1.
         21   -1    0    0  502  503 -0.00000000000E+00 -0.00000000000E+00 -0.52494753788E+03  0.52494753788E+03  0.00000000000E+00 0. -1.
         -6    2    1    2    0  503  0.14530231041E+03 -0.13457569250E+03 -0.41628361033E+02  0.26566575497E+03  0.17211041368E+03 0.  0.
        -24    2    3    3    0    0  0.94548104407E+01 -0.82332143706E+02 -0.34357338689E+02  0.11986147038E+03  0.79488175418E+02 0.  0.
          6    2    1    2  501    0 -0.14530231041E+03  0.13457569250E+03 -0.32509264655E+03  0.41750831322E+03  0.17147764971E+03 0.  0.
         24    2    5    5    0    0 -0.53854121754E+02  0.47481129420E+02 -0.57551139632E+02  0.12162187885E+03  0.79530017353E+02 0.  0.
          5    1    5    5  501    0 -0.91448188657E+02  0.87094563079E+02 -0.26754150691E+03  0.29588643438E+03  0.47000000000E+01 0. -1.
        -13    1    6    6    0    0 -0.88493915175E+01 -0.11236851250E+02  0.13047729845E+02  0.19360315348E+02  0.00000000000E+00 0.  1.
         14    1    6    6    0    0 -0.45004730237E+02  0.58717980670E+02 -0.70598869477E+02  0.10226156350E+03  0.00000000000E+00 0. -1.
         -5    1    3    3    0  503  0.13584749997E+03 -0.52243548794E+02 -0.72710223438E+01  0.14580428459E+03  0.47000000000E+01 0.  1.
         11    1    4    4    0    0  0.31973883597E+02 -0.79295498075E+02 -0.42809188004E+02  0.95617633441E+02  0.00000000000E+00 0. -1.
        -12    1    4    4    0    0 -0.22519073157E+02 -0.30366456310E+01  0.84518493146E+01  0.24243836936E+02  0.00000000000E+00 0.  1.
</event>
<event>
12    1  0.8449700E-002  0.1778564E+03  0.7818608E-02  0.1170165E+00
         21   -1    0    0  503  502  0.00000000000E+00  0.00000000000E+00  0.69602262846E+03  0.69602262846E+03  0.00000000000E+00 0. -1.
         21   -1    0    0  501  503 -0.00000000000E+00 -0.00000000000E+00 -0.13025463429E+03  0.13025463429E+03  0.00000000000E+00 0. -1.
          6    2    1    2  501    0  0.43937068580E+02 -0.18859565502E+01 -0.50722254375E+02  0.18494767459E+03  0.17233360792E+03 0.  0.
         24    2    3    3    0    0 -0.86704506684E+01  0.54896598252E+02 -0.11381915204E+02  0.97990432811E+02  0.79898458774E+02 0.  0.
         -6    2    1    2    0  502 -0.43937068580E+02  0.18859565502E+01  0.61649024855E+03  0.64132958816E+03  0.17119985766E+03 0.  0.
        -24    2    5    5    0    0 -0.10667360476E+02 -0.61401298734E+02  0.37021029120E+03  0.38483776070E+03  0.84619916612E+02 0.  0.
          5    1    3    3  501    0  0.52607519248E+02 -0.56782554802E+02 -0.39340339171E+02  0.86957241777E+02  0.47000000000E+01 0. -1.
        -11    1    4    4    0    0  0.23938326746E+01  0.55413661662E+02  0.24354544232E+02  0.60576795545E+02  0.00000000000E+00 0.  1.
         12    1    4    4    0    0 -0.11064283343E+02 -0.51706341017E+00 -0.35736459437E+02  0.37413637267E+02  0.00000000000E+00 0. -1.
         -5    1    5    5    0  502 -0.33269708104E+02  0.63287255284E+02  0.24627995735E+03  0.25649182746E+03  0.47000000000E+01 0.  1.
         13    1    6    6    0    0  0.21761785841E+02 -0.28750036871E+02  0.29103410273E+03  0.29325925202E+03  0.00000000000E+00 0. -1.
        -14    1    6    6    0    0 -0.32429146317E+02 -0.32651261862E+02  0.79176188463E+02  0.91578508678E+02  0.00000000000E+00 0.  1.
</event>
<event>
12    1  0.8449700E-002  0.2176710E+03  0.7818608E-02  0.1135878E+00
         21   -1    0    0  503  502  0.00000000000E+00  0.00000000000E+00  0.76190940029E+02  0.76190940029E+02  0.00000000000E+00 0. -1.
         21   -1    0    0  501  503 -0.00000000000E+00 -0.00000000000E+00 -0.66996272365E+03  0.66996272365E+03  0.00000000000E+00 0. -1.
          6    2    1    2  501    0 -0.96625054849E+02  0.86690972795E+02 -0.39980890938E+03  0.45460218605E+03  0.17310187045E+03 0.  0.
         24    2    3    3    0    0  0.86941072421E+01  0.74084373345E+02 -0.22017954844E+03  0.24594013976E+03  0.80271021639E+02 0.  0.
         -6    2    1    2    0  502  0.96625054849E+02 -0.86690972795E+02 -0.19396287424E+03  0.29155147763E+03  0.17472533169E+03 0.  0.
        -24    2    5    5    0    0  0.43525263821E+02 -0.25249929526E+02 -0.18746697292E+03  0.20994953930E+03  0.80018345310E+02 0.  0.
          5    1    3    3  501    0 -0.10531916209E+03  0.12606599450E+02 -0.17962936093E+03  0.20866204629E+03  0.47000000000E+01 0. -1.
        -11    1    4    4    0    0 -0.12007429453E+02  0.30755297870E+02 -0.18093665706E+03  0.18392427947E+03  0.00000000000E+00 0.  1.
         12    1    4    4    0    0  0.20701536695E+02  0.43329075475E+02 -0.39242891381E+02  0.62015860286E+02  0.00000000000E+00 0. -1.
         -5    1    5    5    0  502  0.53099791028E+02 -0.61441043270E+02 -0.64959013255E+01  0.81601938330E+02  0.47000000000E+01 0.  1.
         11    1    6    6    0    0  0.50363464313E+02 -0.21059489865E+02 -0.55881637669E+02  0.78120023551E+02  0.00000000000E+00 0. -1.
        -12    1    6    6    0    0 -0.68382004922E+01 -0.41904396607E+01 -0.13158533525E+03  0.13182951575E+03  0.00000000000E+00 0.  1.
</event>
<event>
12    1  0.8449700E-002  0.2029300E+03  0.7818608E-02  0.1147291E+00
         21   -1    0    0  501  502  0.00000000000E+00  0.00000000000E+00  0.52623438642E+03  0.52623438642E+03  0.00000000000E+00 0.  1.
         21   -1    0    0  502  503 -0.00000000000E+00 -0.00000000000E+00 -0.83793379507E+02  0.83793379507E+02  0.00000000000E+00 0. -1.
         -6    2    1    2    0  503 -0.87859931466E+02 -0.63103745966E+02  0.14279357834E+03  0.24813115357E+03  0.17169045705E+03 0.  0.
        -24    2    3    3    0    0 -0.24303094290E+02 -0.30227993904E+02  0.14968766899E+03  0.17609015752E+03  0.84243535771E+02 0.  0.
          6    2    1    2  501    0  0.87859931466E+02  0.63103745966E+02  0.29964742857E+03  0.36189661236E+03  0.17169486386E+03 0.  0.
         24    2    5    5    0    0  0.87082243483E+02  0.93400952644E+02  0.29460923020E+03  0.33081608833E+03  0.79609237487E+02 0.  0.
          5    1    5    5  501    0  0.77768798337E+00 -0.30297206678E+02  0.50381983710E+01  0.31080524029E+02  0.47000000000E+01 0. -1.
        -13    1    6    6    0    0  0.64172267717E+02  0.11779712983E+02  0.11540973598E+03  0.13257544547E+03  0.00000000000E+00 0.  1.
         14    1    6    6    0    0  0.22909975765E+02  0.81621239661E+02  0.17919949422E+03  0.19824064286E+03  0.00000000000E+00 0. -1.
         -5    1    3    3    0  503 -0.63556837176E+02 -0.32875752062E+02 -0.68940906539E+01  0.72040996047E+02  0.47000000000E+01 0.  1.
         11    1    4    4    0    0  0.25365750226E+01 -0.37095464311E+02  0.17615987946E+02  0.41144024069E+02  0.00000000000E+00 0. -1.
        -12    1    4    4    0    0 -0.26839669312E+02  0.68674704069E+01  0.13207168105E+03  0.13494613345E+03  0.00000000000E+00 0.  1.
</event>
<event>
12    1  0.8449700E-002  0.1833859E+03  0.7818608E-02  0.1169016E+00
         21   -1    0    0  501  502  0.00000000000E+00  0.00000000000E+00  0.48694109605E+03  0.48694109605E+03  0.00000000000E+00 0. -1.
         21   -1    0    0  502  503 -0.00000000000E+00 -0.00000000000E+00 -0.64740239792E+02  0.64740239792E+02  0.00000000000E+00 0. -1.
         -6    2    1    2    0  503 -0.58045821955E+02 -0.24612252145E+02  0.14952156889E+03  0.22307157894E+03  0.15306583344E+03 0.  0.
        -24    2    3    3    0    0 -0.53109064852E+02 -0.67204891901E+02  0.13203878922E+03  0.17652867275E+03  0.79944106591E+02 0.  0.
          6    2    1    2  501    0  0.58045821955E+02  0.24612252145E+02  0.27267928737E+03  0.32860975690E+03  0.17220713740E+03 0.  0.
         24    2    5    5    0    0 -0.24068478281E+02 -0.19883625329E+02  0.84252785447E+02  0.11825463326E+03  0.76882873449E+02 0.  0.
          5    1    5    5  501    0  0.82114300235E+02  0.44495877474E+02  0.18842650192E+03  0.21035512364E+03  0.47000000000E+01 0. -1.
        -11    1    6    6    0    0  0.72834862052E+01 -0.42823855089E+02  0.52048169289E+02  0.67793389517E+02  0.00000000000E+00 0.  1.
         12    1    6    6    0    0 -0.31351964486E+02  0.22940229759E+02  0.32204616159E+02  0.50461243747E+02  0.00000000000E+00 0. -1.
         -5    1    3    3    0  503 -0.49367571026E+01  0.42592639756E+02  0.17482779676E+02  0.46542906197E+02  0.47000000000E+01 0.  1.
         11    1    4    4    0    0 -0.27446265951E+02 -0.73520658282E+02  0.57058695416E+02  0.97027209747E+02  0.00000000000E+00 0. -1.
        -12    1    4    4    0    0 -0.25662798901E+02  0.63157663811E+01  0.74980093801E+02  0.79501462998E+02  0.00000000000E+00 0.  1.
</event>
<event>
12    1  0.8449700E-002  0.1769659E+03  0.7818608E-02  0.1171270E+00
         21   -1    0    0  501  502  0.00000000000E+00  0.00000000000E+00  0.10745254408E+03  0.10745254408E+03  0.00000000000E+00 0.  1.
         21   -1    0    0  502  503 -0.00000000000E+00 -0.00000000000E+00 -0.35875790148E+03  0.35875790148E+03  0.00000000000E+00 0.  1.
         -6    2    1    2    0  503  0.14376782015E+02  0.30150510581E+02 -0.22962565453E+03  0.28990493991E+03  0.17378488950E+03 0.  0.
        -24    2    3    3    0    0 -0.14067796434E+02 -0.46200711973E+02 -0.14555042898E+03  0.17273268731E+03  0.79493680291E+02 0.  0.
          6    2    1    2  501    0 -0.14376782015E+02 -0.30150510581E+02 -0.21679702873E+02  0.17630550564E+03  0.17174945896E+03 0.  0.
         24    2    5    5    0    0 -0.30969635678E+02 -0.29022977769E+02  0.49783375870E+02  0.10278234095E+03  0.79274040675E+02 0.  0.
          5    1    5    5  501    0  0.16592853663E+02 -0.11275328118E+01 -0.71463078743E+02  0.73523164692E+02  0.47000000000E+01 0. -1.
        -13    1    6    6    0    0 -0.36488748275E+02 -0.52159933329E+02  0.24882370388E+02  0.68346322152E+02  0.00000000000E+00 0.  1.
         14    1    6    6    0    0  0.55191125969E+01  0.23136955560E+02  0.24901005482E+02  0.34436018795E+02  0.00000000000E+00 0. -1.
         -5    1    3    3    0  503  0.28444578449E+02  0.76351222554E+02 -0.84075225549E+02  0.11717225260E+03  0.47000000000E+01 0.  1.
         11    1    4    4    0    0 -0.39621345168E+02 -0.26449005623E+02 -0.12664655036E+03  0.13530982821E+03  0.00000000000E+00 0. -1.
        -12    1    4    4    0    0  0.25553548734E+02 -0.19751706350E+02 -0.18903878620E+02  0.37422859104E+02  0.00000000000E+00 0.  1.
</event>
<event>
12    1  0.8449700E-002  0.1893188E+03  0.7818608E-02  0.1162947E+00
         21   -1    0    0  503  502  0.00000000000E+00  0.00000000000E+00  0.25321007087E+03  0.25321007087E+03  0.00000000000E+00 0. -1.
         21   -1    0    0  501  503 -0.00000000000E+00 -0.00000000000E+00 -0.13496587878E+03  0.13496587878E+03  0.00000000000E+00 0. -1.
          6    2    1    2  501    0  0.18245013140E+02  0.14681233395E+02  0.23150746612E+02  0.19072903707E+03  0.18786481681E+03 0.  0.
         24    2    3    3    0    0  0.76377604236E+02 -0.68032400116E+01  0.54449858510E+02  0.12113948936E+03  0.76355525577E+02 0.  0.
         -6    2    1    2    0  502 -0.18245013140E+02 -0.14681233395E+02  0.95093445477E+02  0.19744691258E+03  0.17144707870E+03 0.  0.
        -24    2    5    5    0    0  0.35743582128E+02  0.26924176475E+02  0.29912169530E+02  0.10301986516E+03  0.87839853086E+02 0.  0.
          5    1    3    3  501    0 -0.58132591096E+02  0.21484473407E+02 -0.31299111898E+02  0.69589547712E+02  0.47000000000E+01 0. -1.
        -11    1    4    4    0    0  0.14280603539E+02 -0.35624011857E+02  0.10512220152E+02  0.39793374207E+02  0.00000000000E+00 0.  1.
         12    1    4    4    0    0  0.62097000697E+02  0.28820771845E+02  0.43937638358E+02  0.81346115149E+02  0.00000000000E+00 0. -1.
         -5    1    5    5    0  502 -0.53988595268E+02 -0.41605409870E+02  0.65181275947E+02  0.94427047415E+02  0.47000000000E+01 0.  1.
         11    1    6    6    0    0 -0.55626271672E+01 -0.21100098786E+02  0.33043040790E+02  0.39597973868E+02  0.00000000000E+00 0. -1.
        -12    1    6    6    0    0  0.41306209295E+02  0.48024275261E+02 -0.31308712591E+01  0.63421891296E+02  0.00000000000E+00 0.  1.
</event>
<event>
12    1  0.8449700E-002  0.2342517E+03  0.7818608E-02  0.1123851E+00
         21   -1    0    0  503  502  0.00000000000E+00  0.00000000000E+00  0.28092713687E+03  0.28092713687E+03  0.00000000000E+00 0. -1.
         21   -1    0    0  501  503 -0.00000000000E+00 -0.00000000000E+00 -0.22219610912E+03  0.22219610912E+03  0.00000000000E+00 0. -1.
          6    2    1    2  501    0 -0.15729670618E+03  0.89113334720E+01 -0.59476207940E+02  0.24073653060E+03  0.17203195114E+03 0.  0.
         24    2    3    3    0    0 -0.14961394086E+02  0.36781364980E+01 -0.61241981053E+02  0.98216583311E+02  0.75223300864E+02 0.  0.
         -6    2    1    2    0  502  0.15729670618E+03 -0.89113334720E+01  0.11820723569E+03  0.26238671539E+03  0.17335562352E+03 0.  0.
        -24    2    5    5    0    0  0.15559128402E+02  0.19542322518E+02  0.70114577701E+02  0.10995920722E+03  0.80938151703E+02 0.  0.
          5    1    3    3  501    0 -0.14233531210E+03  0.52331969740E+01  0.17657731124E+01  0.14251994729E+03  0.47000000000E+01 0. -1.
        -13    1    4    4    0    0 -0.10816935633E+02 -0.10335183544E+02 -0.75993572249E+02  0.77452211967E+02  0.00000000000E+00 0.  1.
         14    1    4    4    0    0 -0.41444584530E+01  0.14013320042E+02  0.14751591196E+02  0.20764371344E+02  0.00000000000E+00 0. -1.
         -5    1    5    5    0  502  0.14173757778E+03 -0.28453655990E+02  0.48092657990E+02  0.15242750817E+03  0.47000000000E+01 0.  1.
         11    1    6    6    0    0  0.43577683960E+02 -0.72800953785E+01  0.48295235767E+02  0.65455665345E+02  0.00000000000E+00 0. -1.
        -12    1    6    6    0    0 -0.28018555557E+02  0.26822417896E+02  0.21819341934E+02  0.44503541879E+02  0.00000000000E+00 0.  1.
</event>
<event>
12    1  0.8449700E-002  0.2587703E+03  0.7818608E-02  0.1107927E+00
         21   -1    0    0  501  502  0.00000000000E+00  0.00000000000E+00  0.21915008127E+03  0.21915008127E+03  0.00000000000E+00 0. -1.
         21   -1    0    0  502  503 -0.00000000000E+00 -0.00000000000E+00 -0.30980328641E+03  0.30980328641E+03  0.00000000000E+00 0.  1.
         -6    2    1    2    0  503 -0.59114583002E+02 -0.18392975260E+03 -0.77476222667E+02  0.26984782771E+03  0.17172826566E+03 0.  0.
        -24    2    3    3    0    0 -0.54943086911E+02 -0.30384390502E+02 -0.53583202657E+02  0.11432758464E+03  0.79105518243E+02 0.  0.
          6    2    1    2  501    0  0.59114583002E+02  0.18392975260E+03 -0.13176982476E+02  0.25910553996E+03  0.17215504685E+03 0.  0.
         24    2    5    5    0    0  0.88932267580E+02  0.89027849905E+02 -0.26434025692E+02  0.15864009992E+03  0.92914031837E+02 0.  0.
          5    1    5    5  501    0 -0.29817684578E+02  0.94901902694E+02  0.13257043216E+02  0.10046544004E+03  0.47000000000E+01 0. -1.
        -13    1    6    6    0    0  0.63178049011E+00 -0.58846351088E+01 -0.28379460541E+02  0.28990030313E+02  0.00000000000E+00 0.  1.
         14    1    6    6    0    0  0.88300487090E+02  0.94912485014E+02  0.19454348495E+01  0.12965006960E+03  0.00000000000E+00 0. -1.
         -5    1    3    3    0  503 -0.41714960903E+01 -0.15354536210E+03 -0.23893020010E+02  0.15552024308E+03  0.47000000000E+01 0.  1.
         11    1    4    4    0    0 -0.33020537009E+02  0.12987260879E+02  0.75041625541E+01  0.36267578705E+02  0.00000000000E+00 0. -1.
        -12    1    4    4    0    0 -0.21922549903E+02 -0.43371651381E+02 -0.61087365211E+02  0.78060005933E+02  0.00000000000E+00 0.  1.
</event>
<event>
12    1  0.8449700E-002  0.1940846E+03  0.7818608E-02  0.1155195E+00
         21   -1    0    0  503  502  0.00000000000E+00  0.00000000000E+00  0.13344684056E+03  0.13344684056E+03  0.00000000000E+00 0.  1.
         21   -1    0    0  501  503 -0.00000000000E+00 -0.00000000000E+00 -0.38127634185E+03  0.38127634185E+03  0.00000000000E+00 0.  1.
          6    2    1    2  501    0  0.70614423332E+02 -0.50986473631E+02  0.92107115428E+01  0.19263855821E+03  0.17157727013E+03 0.  0.
         24    2    3    3    0    0 -0.30230514844E+01 -0.24510712851E+02  0.56306489985E+02  0.10118613367E+03  0.80363542411E+02 0.  0.
         -6    2    1    2    0  502 -0.70614423332E+02  0.50986473631E+02 -0.25704021283E+03  0.32208462420E+03  0.17344398765E+03 0.  0.
        -24    2    5    5    0    0 -0.10869144446E+03  0.36850569079E+02 -0.13482020242E+03  0.19320675845E+03  0.77334145033E+02 0.  0.
          5    1    3    3  501    0  0.73637474816E+02 -0.26475760780E+02 -0.47095778442E+02  0.91452424535E+02  0.47000000000E+01 0. -1.
        -13    1    4    4    0    0 -0.36373293297E+02 -0.31658053088E+02  0.42888199734E+02  0.64534072141E+02  0.00000000000E+00 0.  1.
         14    1    4    4    0    0  0.33350241813E+02  0.71473402367E+01  0.13418290250E+02  0.36652061534E+02  0.00000000000E+00 0. -1.
         -5    1    5    5    0  502  0.38077021126E+02  0.14135904552E+02 -0.12222001041E+03  0.12887786575E+03  0.47000000000E+01 0.  1.
         11    1    6    6    0    0 -0.42137358902E+02  0.45481276463E+02 -0.30332406952E+02  0.69022883419E+02  0.00000000000E+00 0. -1.
        -12    1    6    6    0    0 -0.66554085556E+02 -0.86307073844E+01 -0.10448779547E+03  0.12418387503E+03  0.00000000000E+00 0.  1.
</event>
<event>
12    1  0.8449700E-002  0.2110330E+03  0.7818608E-02  0.1141398E+00
         21   -1    0    0  501  502  0.00000000000E+00  0.00000000000E+00  0.68044371870E+02  0.68044371870E+02  0.00000000000E+00 0. -1.
         21   -1    0    0  502  503 -0.00000000000E+00 -0.00000000000E+00 -0.11298791356E+04  0.11298791356E+04  0.00000000000E+00 0.  1.
         -6    2    1    2    0  503  0.56874405477E+02  0.10682937065E+03 -0.92115990633E+03  0.94430106244E+03  0.16888372058E+03 0.  0.
        -24    2    3    3    0    0  0.21174205413E+02  0.72808575147E+02 -0.27520780447E+03  0.29645221687E+03  0.79969654613E+02 0.  0.
          6    2    1    2  501    0 -0.56874405477E+02 -0.10682937065E+03 -0.14067485741E+03  0.25362244504E+03  0.17288064289E+03 0.  0.
         24    2    5    5    0    0 -0.81368137203E+02 -0.12159278063E+03 -0.75723979242E+02  0.18249855493E+03  0.78524031143E+02 0.  0.
          5    1    5    5  501    0  0.24493731726E+02  0.14763409979E+02 -0.64950878172E+02  0.71123890103E+02  0.47000000000E+01 0. -1.
        -11    1    6    6    0    0 -0.10105355921E+02  0.43804498304E+01 -0.28019470471E+02  0.30106432610E+02  0.00000000000E+00 0.  1.
         12    1    6    6    0    0 -0.71262781282E+02 -0.12597323046E+03 -0.47704508771E+02  0.15239212232E+03  0.00000000000E+00 0. -1.
         -5    1    3    3    0  503  0.35700200064E+02  0.34020795507E+02 -0.64595210186E+03  0.64784884557E+03  0.47000000000E+01 0.  1.
         13    1    4    4    0    0  0.10626045443E+02 -0.13519553237E+02 -0.17801198053E+02  0.24750228557E+02  0.00000000000E+00 0. -1.
        -14    1    4    4    0    0  0.10548159970E+02  0.86328128384E+02 -0.25740660641E+03  0.27170198832E+03  0.00000000000E+00 0.  1.
</event>
<event>
12    1  0.8449700E-002  0.1805247E+03  0.7818608E-02  0.1167447E+00
         21   -1    0    0  501  502  0.00000000000E+00  0.00000000000E+00  0.16683424308E+03  0.16683424308E+03  0.00000000000E+00 0. -1.
         21   -1    0    0  502  503 -0.00000000000E+00 -0.00000000000E+00 -0.23805527093E+03  0.23805527093E+03  0.00000000000E+00 0. -1.
         -6    2    1    2    0  503 -0.26525583461E+02  0.44292718602E+02 -0.12199290331E+03  0.21736101118E+03  0.17233133558E+03 0.  0.
        -24    2    3    3    0    0  0.13012415923E+02  0.81358643922E+02 -0.11618016141E+03  0.16265256408E+03  0.78546004275E+02 0.  0.
          6    2    1    2  501    0  0.26525583461E+02 -0.44292718602E+02  0.50771875454E+02  0.18752850284E+03  0.17298469453E+03 0.  0.
         24    2    5    5    0    0  0.17111070903E+02  0.78006116719E+01 -0.32256127423E+02  0.88948142891E+02  0.80732125437E+02 0.  0.
          5    1    5    5  501    0  0.94145125581E+01 -0.52093330274E+02  0.83028002876E+02  0.98580359947E+02  0.47000000000E+01 0. -1.
        -13    1    6    6    0    0  0.26435016572E+02 -0.14803903384E+02 -0.50188993741E+02  0.58625086348E+02  0.00000000000E+00 0.  1.
         14    1    6    6    0    0 -0.93239456686E+01  0.22604515055E+02  0.17932866318E+02  0.30323056543E+02  0.00000000000E+00 0. -1.
         -5    1    3    3    0  503 -0.39537999384E+02 -0.37065925320E+02 -0.58127418919E+01  0.54708447094E+02  0.47000000000E+01 0.  1.
         11    1    4    4    0    0  0.45837417592E+02  0.44200120180E+02 -0.57138667879E+02  0.85554350225E+02  0.00000000000E+00 0. -1.
        -12    1    4    4    0    0 -0.32825001669E+02  0.37158523742E+02 -0.59041493534E+02  0.77098213857E+02  0.00000000000E+00 0.  1.
</event>
<event>
12    1  0.8449700E-002  0.1887044E+03  0.7818608E-02  0.1160120E+00
         21   -1    0    0  501  502  0.00000000000E+00  0.00000000000E+00  0.30192503520E+03  0.30192503520E+03  0.00000000000E+00 0.  1.
         21   -1    0    0  502  503 -0.00000000000E+00 -0.00000000000E+00 -0.22444997750E+03  0.22444997750E+03  0.00000000000E+00 0.  1.
         -6    2    1    2    0  503 -0.74193240647E+02  0.15688890738E+02 -0.14356844261E+03  0.23711018900E+03  0.17279631294E+03 0.  0.
        -24    2    3    3    0    0 -0.76539518501E+02 -0.45555793007E+02 -0.12636853350E+03  0.17327960715E+03  0.78250800799E+02 0.  0.
          6    2    1    2  501    0  0.74193240647E+02 -0.15688890738E+02  0.22104350031E+03  0.28926482369E+03  0.17047912172E+03 0.  0.
         24    2    5    5    0    0  0.47223718025E+02  0.10892264301E+02  0.23216939828E+03  0.24951826963E+03  0.77511395410E+02 0.  0.
          5    1    5    5  501    0  0.26969522622E+02 -0.26581155039E+02 -0.11125897965E+02  0.39746554054E+02  0.47000000000E+01 0. -1.
        -11    1    6    6    0    0  0.46409775865E+02  0.52487225321E+01  0.54573810089E+02  0.71831171031E+02  0.00000000000E+00 0.  1.
         12    1    6    6    0    0  0.81394216027E+00  0.56435417684E+01  0.17759558819E+03  0.17768709860E+03  0.00000000000E+00 0. -1.
         -5    1    3    3    0  503  0.23462778534E+01  0.61244683745E+02 -0.17199909113E+02  0.63830581858E+02  0.47000000000E+01 0.  1.
         11    1    4    4    0    0 -0.43444725703E+02 -0.47868901939E+02 -0.29820739297E+02  0.71190957688E+02  0.00000000000E+00 0. -1.
        -12    1    4    4    0    0 -0.33094792797E+02  0.23131089324E+01 -0.96547794202E+02  0.10208864946E+03  0.00000000000E+00 0.  1.
</event>
<event>
12    1  0.8449700E-002  0.1854465E+03  0.7818608E-02  0.1163181E+00
         21   -1    0    0  503  502  0.00000000000E+00  0.00000000000E+00  0.48214404683E+03  0.48214404683E+03  0.00000000000E+00 0.  1.
         21   -1    0    0  501  503 -0.00000000000E+00 -0.00000000000E+00 -0.15565318894E+03  0.15565318894E+03  0.00000000000E+00 0.  1.
          6    2    1    2  501    0 -0.60751445029E+02 -0.22726493682E+02 -0.73184760089E+02  0.19719422204E+03  0.17123761417E+03 0.  0.
         24    2    3    3    0    0 -0.93293042510E+02  0.15826334113E+02 -0.20793116952E+02  0.12430903583E+03  0.77886571659E+02 0.  0.
         -6    2    1    2    0  502  0.60751445029E+02  0.22726493682E+02  0.39967561798E+03  0.44060301374E+03  0.17373308412E+03 0.  0.
        -24    2    5    5    0    0  0.66502619265E+01 -0.37207895811E+02  0.29829619726E+03  0.31091513457E+03  0.79113501444E+02 0.  0.
          5    1    3    3  501    0  0.32541597481E+02 -0.38552827795E+02 -0.52391643136E+02  0.72885186205E+02  0.47000000000E+01 0. -1.
        -11    1    4    4    0    0 -0.52054590537E+02 -0.81005638297E+01 -0.46390220143E+02  0.70195099938E+02  0.00000000000E+00 0.  1.
         12    1    4    4    0    0 -0.41238451973E+02  0.23926897942E+02  0.25597103191E+02  0.54113935895E+02  0.00000000000E+00 0. -1.
         -5    1    5    5    0  502  0.54101183102E+02  0.59934389493E+02  0.10137942072E+03  0.12968787916E+03  0.47000000000E+01 0.  1.
         11    1    6    6    0    0  0.19143256793E+01 -0.46203214075E+02  0.80158833792E+02  0.92541019384E+02  0.00000000000E+00 0. -1.
        -12    1    6    6    0    0  0.47359362472E+01  0.89953182638E+01  0.21813736347E+03  0.21837411519E+03  0.00000000000E+00 0.  1.
</event>
<event>
12    1  0.8449700E-002  0.2005029E+03  0.7818608E-02  0.1149403E+00
         21   -1    0    0  503  502  0.00000000000E+00  0.00000000000E+00  0.25860229121E+02  0.25860229121E+02  0.00000000000E+00 0. -1.
         21   -1    0    0  501  503 -0.00000000000E+00 -0.00000000000E+00 -0.15552924572E+04  0.15552924572E+04  0.00000000000E+00 0.  1.
          6    2    1    2  501    0 -0.83012458878E+02  0.60712914658E+02 -0.72558399083E+03  0.75277722936E+03  0.17211711990E+03 0.  0.
         24    2    3    3    0    0 -0.48423264140E+02  0.63913730099E+02 -0.23601335051E+03  0.26195326960E+03  0.80544623847E+02 0.  0.
         -6    2    1    2    0  502  0.83012458878E+02 -0.60712914658E+02 -0.80384823720E+03  0.82837545691E+03  0.17162978420E+03 0.  0.
        -24    2    5    5    0    0 -0.12518297863E+02 -0.63254987558E+01 -0.22891964366E+03  0.24301309549E+03  0.80339539532E+02 0.  0.
          5    1    3    3  501    0 -0.34589194738E+02 -0.32008154417E+01 -0.48957064032E+03  0.49082395976E+03  0.47000000000E+01 0. -1.
        -13    1    4    4    0    0 -0.63199741125E+02  0.45225957858E+02 -0.21980361068E+03  0.23313777431E+03  0.00000000000E+00 0.  1.
         14    1    4    4    0    0  0.14776476984E+02  0.18687772241E+02 -0.16209739825E+02  0.28815495287E+02  0.00000000000E+00 0. -1.
         -5    1    5    5    0  502  0.95530756741E+02 -0.54387415902E+02 -0.57492859355E+03  0.58536236142E+03  0.47000000000E+01 0.  1.
         13    1    6    6    0    0 -0.43424307161E+02  0.12213778479E+02 -0.13914879083E+03  0.14627793007E+03  0.00000000000E+00 0. -1.
        -14    1    6    6    0    0  0.30906009297E+02 -0.18539277235E+02 -0.89770852830E+02  0.96735165420E+02  0.00000000000E+00 0.  1.
</event>
<event>
12    1  0.8449700E-002  0.2669945E+03  0.7818608E-02  0.1103140E+00
         21   -1    0    0  503  502  0.00000000000E+00  0.00000000000E+00  0.97357654446E+03  0.97357654446E+03  0.00000000000E+00 0.  1.
         21   -1    0    0  501  503 -0.00000000000E+00 -0.00000000000E+00 -0.85234608239E+02  0.85234608239E+02  0.00000000000E+00 0.  1.
          6    2    1    2  501    0 -0.54318685273E+02 -0.19707435933E+03  0.24280421488E+03  0.36023760996E+03  0.17037730537E+03 0.  0.
         24    2    3    3    0    0  0.17367941665E+02 -0.13565492297E+03  0.20354398919E+03  0.25789126187E+03  0.79836356945E+02 0.  0.
         -6    2    1    2    0  502  0.54318685273E+02  0.19707435933E+03  0.64553772134E+03  0.69857354275E+03  0.17174755389E+03 0.  0.
        -24    2    5    5    0    0  0.64588185513E+02  0.10058356380E+03  0.52197216036E+03  0.54139061072E+03  0.79750675067E+02 0.  0.
          5    1    3    3  501    0 -0.71686626938E+02 -0.61419436365E+02  0.39260225689E+02  0.10234634808E+03  0.47000000000E+01 0. -1.
        -13    1    4    4    0    0 -0.18772570425E+01 -0.17654838956E+02  0.94241105770E+02  0.95898923088E+02  0.00000000000E+00 0.  1.
         14    1    4    4    0    0  0.19245198708E+02 -0.11800008401E+03  0.10930288342E+03  0.16199233878E+03  0.00000000000E+00 0. -1.
         -5    1    5    5    0  502 -0.10269500240E+02  0.96490795534E+02  0.12356556099E+03  0.15718293203E+03  0.47000000000E+01 0.  1.
         13    1    6    6    0    0  0.82250179569E+02  0.78912852107E+02  0.44912114822E+03  0.46335961849E+03  0.00000000000E+00 0. -1.
        -14    1    6    6    0    0 -0.17661994057E+02  0.21670711693E+02  0.72851012137E+02  0.78030992233E+02  0.00000000000E+00 0.  1.
</event>
<event>
12    1  0.8449700E-002  0.2429002E+03  0.7818608E-02  0.1118938E+00
         21   -1    0    0  501  502  0.00000000000E+00  0.00000000000E+00  0.25793125270E+02  0.25793125270E+02  0.00000000000E+00 0.  1.
         21   -1    0    0  502  503 -0.00000000000E+00 -0.00000000000E+00 -0.22294807871E+04  0.22294807871E+04  0.00000000000E+00 0.  1.
         -6    2    1    2    0  503  0.11086921662E+03 -0.12285264964E+03 -0.11481611358E+04  0.11735733828E+04  0.17780813965E+03 0.  0.
        -24    2    3    3    0    0  0.24166539537E+02 -0.73690808213E+02 -0.31052590824E+03  0.33001597208E+03  0.80435348523E+02 0.  0.
          6    2    1    2  501    0 -0.11086921662E+03  0.12285264964E+03 -0.10555265261E+04  0.10817005295E+04  0.16898234118E+03 0.  0.
         24    2    5    5    0    0  0.15272655267E+01  0.59668794326E+02 -0.60017415525E+03  0.60842149938E+03  0.80031285862E+02 0.  0.
          5    1    5    5  501    0 -0.11239648215E+03  0.63183855314E+02 -0.45535237083E+03  0.47327903017E+03  0.47000000000E+01 0. -1.
        -11    1    6    6    0    0  0.28137003773E+02  0.51387479125E+02 -0.23527440376E+03  0.24245908738E+03  0.00000000000E+00 0.  1.
         12    1    6    6    0    0 -0.26609738246E+02  0.82813152012E+01 -0.36489975150E+03  0.36596241199E+03  0.00000000000E+00 0. -1.
         -5    1    3    3    0  503  0.86702677085E+02 -0.49161841427E+02 -0.83763522753E+03  0.84355741077E+03  0.47000000000E+01 0.  1.
         11    1    4    4    0    0  0.25345225885E+02  0.99236240329E+01 -0.95464822518E+02  0.99269285922E+02  0.00000000000E+00 0. -1.
        -12    1    4    4    0    0 -0.11786863482E+01 -0.83614432246E+02 -0.21506108572E+03  0.23074668616E+03  0.00000000000E+00 0.  1.
</event>
<event>
12    1  0.8449700E-002  0.2103978E+03  0.7818608E-02  0.1141322E+00
         21   -1    0    0  501  502  0.00000000000E+00  0.00000000000E+00  0.72909968374E+02  0.72909968374E+02  0.00000000000E+00 0.  1.
         21   -1    0    0  502  503 -0.00000000000E+00 -0.00000000000E+00 -0.89558699619E+03  0.89558699619E+03  0.00000000000E+00 0.  1.
         -6    2    1    2    0  503  0.87587330201E+01 -0.11889183431E+03 -0.68640595180E+03  0.71782377334E+03  0.17293309468E+03 0.  0.
        -24    2    3    3    0    0  0.32214926852E+02 -0.13227221544E+03 -0.39522333327E+03  0.42535388606E+03  0.78681031645E+02 0.  0.
          6    2    1    2  501    0 -0.87587330201E+01  0.11889183431E+03 -0.13627107601E+03  0.25067319122E+03  0.17336452627E+03 0.  0.
         24    2    5    5    0    0 -0.32530173103E+02  0.18430169534E+02 -0.11774335185E+02  0.88873451018E+02  0.79761970987E+02 0.  0.
          5    1    5    5  501    0  0.23771440083E+02  0.10046166477E+03 -0.12449674083E+03  0.16179974020E+03  0.47000000000E+01 0. -1.
        -11    1    6    6    0    0 -0.50071436482E+02  0.23032746175E+02  0.14460829271E+02  0.56980450427E+02  0.00000000000E+00 0.  1.
         12    1    6    6    0    0  0.17541263379E+02 -0.46025766404E+01 -0.26235164455E+02  0.31893000591E+02  0.00000000000E+00 0. -1.
         -5    1    3    3    0  503 -0.23456193832E+02  0.13380381128E+02 -0.29118261854E+03  0.29246988728E+03  0.47000000000E+01 0.  1.
         13    1    4    4    0    0  0.57004622389E+02 -0.74121664905E+02 -0.25250030298E+03  0.26925814972E+03  0.00000000000E+00 0. -1.
        -14    1    4    4    0    0 -0.24789695536E+02 -0.58150550532E+02 -0.14272303028E+03  0.15609573635E+03  0.00000000000E+00 0.  1.
</event>
<event>
12    1  0.8449700E-002  0.2500637E+03  0.7818608E-02  0.1113322E+00
         21   -1    0    0  501  502  0.00000000000E+00  0.00000000000E+00  0.10314252985E+04  0.10314252985E+04  0.00000000000E+00 0.  1.
         21   -1    0    0  502  503 -0.00000000000E+00 -0.00000000000E+00 -0.64270832919E+02  0.64270832919E+02  0.00000000000E+00 0.  1.
         -6    2    1    2    0  503 -0.50119988863E+02 -0.17355332608E+03  0.35189019247E+03  0.43169265240E+03  0.17291347056E+03 0.  0.
        -24    2    3    3    0    0 -0.14472737482E+02 -0.11896128975E+03  0.33407469513E+03  0.36393943176E+03  0.80528004289E+02 0.  0.
          6    2    1    2  501    0  0.50119988863E+02  0.17355332608E+03  0.61526427311E+03  0.66400347902E+03  0.17238829459E+03 0.  0.
         24    2    5    5    0    0  0.38942002780E+01  0.18220547911E+03  0.45773786251E+03  0.49953967352E+03  0.82473833633E+02 0.  0.
          5    1    5    5  501    0  0.46225788585E+02 -0.86521530340E+01  0.15752641060E+03  0.16446380549E+03  0.47000000000E+01 0. -1.
        -13    1    6    6    0    0  0.29029059733E+02  0.15286632903E+03  0.31033268872E+03  0.34715584188E+03  0.00000000000E+00 0.  1.
         14    1    6    6    0    0 -0.25134859455E+02  0.29339150079E+02  0.14740517379E+03  0.15238383164E+03  0.00000000000E+00 0. -1.
         -5    1    3    3    0  503 -0.35647251382E+02 -0.54592036324E+02  0.17815497344E+02  0.67753220637E+02  0.47000000000E+01 0.  1.
         13    1    4    4    0    0  0.17167970036E+00 -0.12128301026E+03  0.32415144294E+03  0.34609789947E+03  0.00000000000E+00 0. -1.
        -14    1    4    4    0    0 -0.14644417182E+02  0.23217205090E+01  0.99232521874E+01  0.17841532297E+02  0.00000000000E+00 0.  1.
</event>
<event>
12    1  0.8449700E-002  0.1978835E+03  0.7818608E-02  0.1152399E+00
         21   -1    0    0  503  502  0.00000000000E+00  0.00000000000E+00  0.59686064877E+03  0.59686064877E+03  0.00000000000E+00 0.  1.
         21   -1    0    0  501  503 -0.00000000000E+00 -0.00000000000E+00 -0.68031374187E+02  0.68031374187E+02  0.00000000000E+00 0.  1.
          6    2    1    2  501    0  0.84006472651E+02 -0.38009863748E+02  0.18392857617E+03  0.26725603073E+03  0.17057030116E+03 0.  0.
         24    2    3    3    0    0  0.56302771957E+02 -0.14119016769E+02  0.21739291252E+02  0.10092587188E+03  0.79649771281E+02 0.  0.
         -6    2    1    2    0  502 -0.84006472651E+02  0.38009863748E+02  0.34490069841E+03  0.39763599223E+03  0.17508870141E+03 0.  0.
        -24    2    5    5    0    0 -0.98127465057E+02  0.35053578942E+01  0.33594013033E+03  0.35900510910E+03  0.79922526623E+02 0.  0.
          5    1    3    3  501    0  0.27703700694E+02 -0.23890846979E+02  0.16218928492E+03  0.16633015885E+03  0.47000000000E+01 0. -1.
        -11    1    4    4    0    0  0.75484644180E+02 -0.16810030803E+02  0.25019698689E+02  0.81280341812E+02  0.00000000000E+00 0.  1.
         12    1    4    4    0    0 -0.19181872223E+02  0.26910140343E+01 -0.32804074373E+01  0.19645530063E+02  0.00000000000E+00 0. -1.
         -5    1    5    5    0  502  0.14120992407E+02  0.34504505854E+02  0.89605680801E+01  0.38630883126E+02  0.47000000000E+01 0.  1.
         13    1    6    6    0    0  0.20914766640E+01  0.14933547689E+02  0.10719330516E+02  0.18501058562E+02  0.00000000000E+00 0. -1.
        -14    1    6    6    0    0 -0.10021894172E+03 -0.11428189794E+02  0.32522079982E+03  0.34050405054E+03  0.00000000000E+00 0.  1.
</event>
<event>
12    1  0.8449700E-002  0.2010997E+03  0.7818608E-02  0.1148861E+00
         21   -1    0    0  503  502  0.00000000000E+00  0.00000000000E+00  0.80626279353E+03  0.80626279353E+03  0.00000000000E+00 0. -1.
         21   -1    0    0  501  503 -0.00000000000E+00 -0.00000000000E+00 -0.68575795156E+02  0.68575795156E+02  0.00000000000E+00 0. -1.
          6    2    1    2  501    0  0.33788437730E+02 -0.95918043670E+02  0.14196790035E+03  0.24616251802E+03  0.17349112635E+03 0.  0.
         24    2    3    3    0    0  0.77108118523E+02 -0.49905354525E+02  0.12826279870E+03  0.18132670910E+03  0.89396999675E+02 0.  0.
         -6    2    1    2    0  502 -0.33788437730E+02  0.95918043670E+02  0.59571909802E+03  0.62867607066E+03  0.17323518249E+03 0.  0.
        -24    2    5    5    0    0  0.22919049343E+02  0.97845017203E+02  0.46277248362E+03  0.48405122979E+03  0.10024116545E+03 0.  0.
          5    1    3    3  501    0 -0.43319680793E+02 -0.46012689145E+02  0.13705101645E+02  0.64835808914E+02  0.47000000000E+01 0. -1.
        -13    1    4    4    0    0  0.65835302765E+02  0.57864553655E+01  0.94220995677E+02  0.11508851455E+03  0.00000000000E+00 0.  1.
         14    1    4    4    0    0  0.11272815758E+02 -0.55691809890E+02  0.34041803025E+02  0.66238194549E+02  0.00000000000E+00 0. -1.
         -5    1    5    5    0  502 -0.56707487072E+02 -0.19269735336E+01  0.13294661440E+03  0.14462484087E+03  0.47000000000E+01 0.  1.
         13    1    6    6    0    0 -0.25983425769E+02  0.10696798194E+02  0.35640507991E+02  0.45385082529E+02  0.00000000000E+00 0. -1.
        -14    1    6    6    0    0  0.48902475112E+02  0.87148219010E+02  0.42713197563E+03  0.43866614726E+03  0.00000000000E+00 0.  1.
</event>
<event>
12    1  0.8449700E-002  0.1806435E+03  0.7818608E-02  0.1167284E+00
         21   -1    0    0  503  502  0.00000000000E+00  0.00000000000E+00  0.23423630041E+03  0.23423630041E+03  0.00000000000E+00 0. -1.
         21   -1    0    0  501  503 -0.00000000000E+00 -0.00000000000E+00 -0.14200340481E+03  0.14200340481E+03  0.00000000000E+00 0. -1.
          6    2    1    2  501    0  0.49908770461E+02  0.25389711215E+02  0.18750224539E+02  0.18161400968E+03  0.17174561068E+03 0.  0.
         24    2    3    3    0    0  0.34791265430E+02 -0.48256469735E+02 -0.91649079839E+01  0.10127943710E+03  0.81451886536E+02 0.  0.
         -6    2    1    2    0  502 -0.49908770461E+02 -0.25389711215E+02  0.73482671063E+02  0.19462569554E+03  0.17130071691E+03 0.  0.
        -24    2    5    5    0    0 -0.53885615930E+02 -0.44264589798E+02  0.11018577783E+03  0.15289699573E+03  0.79834655104E+02 0.  0.
          5    1    3    3  501    0  0.15117505030E+02  0.73646180950E+02  0.27915132523E+02  0.80334572574E+02  0.47000000000E+01 0. -1.
        -13    1    4    4    0    0  0.25926932413E+02 -0.21316739214E+02  0.35191248211E+02  0.48631606448E+02  0.00000000000E+00 0.  1.
         14    1    4    4    0    0  0.88643330170E+01 -0.26939730521E+02 -0.44356156195E+02  0.52647830656E+02  0.00000000000E+00 0. -1.
         -5    1    5    5    0  502  0.39768454687E+01  0.18874878583E+02 -0.36703106763E+02  0.41728699805E+02  0.47000000000E+01 0.  1.
         11    1    6    6    0    0 -0.37544100701E+02 -0.40318611409E+02  0.16207253972E+02  0.57426692441E+02  0.00000000000E+00 0. -1.
        -12    1    6    6    0    0 -0.16341515229E+02 -0.39459783898E+01  0.93978523853E+02  0.95470303294E+02  0.00000000000E+00 0.  1.
</event>
<event>
12    1  0.8449700E-002  0.1877371E+03  0.7818608E-02  0.1160788E+00
         21   -1    0    0  501  502  0.00000000000E+00  0.00000000000E+00  0.16424387294E+03  0.16424387294E+03  0.00000000000E+00 0. -1.
         21   -1    0    0  502  503 -0.00000000000E+00 -0.00000000000E+00 -0.32451810835E+03  0.32451810835E+03  0.00000000000E+00 0.  1.
         -6    2    1    2    0  503  0.76867564922E+02 -0.26186522922E+01 -0.22339821130E+03  0.29180810141E+03  0.17125924021E+03 0.  0.
        -24    2    3    3    0    0  0.10261452236E+03  0.31810082243E+02 -0.11946536332E+03  0.17923647768E+03  0.79448853779E+02 0.  0.
          6    2    1    2  501    0 -0.76867564922E+02  0.26186522922E+01  0.63123975886E+02  0.19695387988E+03  0.16997268778E+03 0.  0.
         24    2    5    5    0    0 -0.11458522791E+03 -0.10714748329E+02  0.27932789111E+02  0.14346639256E+03  0.80980150646E+02 0.  0.
          5    1    5    5  501    0  0.37717662987E+02  0.13333400621E+02  0.35191186775E+02  0.53487487321E+02  0.47000000000E+01 0. -1.
        -11    1    6    6    0    0 -0.42551017038E+01 -0.12315779742E+02 -0.19425552521E+02  0.23390947221E+02  0.00000000000E+00 0.  1.
         12    1    6    6    0    0 -0.11033012621E+03  0.16010314133E+01  0.47358341632E+02  0.12007544533E+03  0.00000000000E+00 0. -1.
         -5    1    3    3    0  503 -0.25746957441E+02 -0.34428734535E+02 -0.10393284798E+03  0.11257162372E+03  0.47000000000E+01 0.  1.
         11    1    4    4    0    0  0.23201982329E+02 -0.16392368467E+02 -0.65033032873E+00  0.28415922605E+02  0.00000000000E+00 0. -1.
        -12    1    4    4    0    0  0.79412540034E+02  0.48202450710E+02 -0.11881503299E+03  0.15082055508E+03  0.00000000000E+00 0.  1.
</event>
<event>
12    1  0.8449700E-002  0.3336401E+03  0.7818608E-02  0.1069611E+00
         21   -1    0    0  503  502  0.00000000000E+00  0.00000000000E+00  0.71197144580E+02  0.71197144580E+02  0.00000000000E+00 0. -1.
         21   -1    0    0  501  503 -0.00000000000E+00 -0.00000000000E+00 -0.17345075201E+04  0.17345075201E+04  0.00000000000E+00 0.  1.
          6    2    1    2  501    0 -0.20957426463E+03  0.19338850120E+03 -0.54631174053E+03  0.64013453152E+03  0.17319126948E+03 0.  0.
         24    2    3    3    0    0 -0.12957665376E+03  0.15694288074E+03 -0.25507635972E+03  0.33588457174E+03  0.79582153978E+02 0.  0.
         -6    2    1    2    0  502  0.20957426463E+03 -0.19338850120E+03 -0.11169986350E+04  0.11655701331E+04  0.17189328065E+03 0.  0.
        -24    2    5    5    0    0  0.14811424141E+03 -0.48145004981E+02 -0.59489676352E+03  0.62014785469E+03  0.80158795007E+02 0.  0.
          5    1    3    3  501    0 -0.79997610871E+02  0.36445620462E+02 -0.29123538080E+03  0.30424995978E+03  0.47000000000E+01 0. -1.
        -13    1    4    4    0    0 -0.42900925718E+02  0.48068624146E+01 -0.44054605589E+02  0.61679847822E+02  0.00000000000E+00 0.  1.
         14    1    4    4    0    0 -0.86675728037E+02  0.15213601833E+03 -0.21102175413E+03  0.27420472392E+03  0.00000000000E+00 0. -1.
         -5    1    5    5    0  502  0.61460023215E+02 -0.14524349622E+03 -0.52210187147E+03  0.54542227846E+03  0.47000000000E+01 0.  1.
         11    1    6    6    0    0  0.16927535304E+02 -0.14257917549E+02 -0.21126649136E+02  0.30596813037E+02  0.00000000000E+00 0. -1.
        -12    1    6    6    0    0  0.13118670611E+03 -0.33887087432E+02 -0.57377011438E+03  0.58955104165E+03  0.00000000000E+00 0.  1.
</event>
<event>
12    1  0.8449700E-002  0.2896253E+03  0.7818608E-02  0.1090665E+00
         21   -1    0    0  501  502  0.00000000000E+00  0.00000000000E+00  0.38219962359E+03  0.38219962359E+03  0.00000000000E+00 0.  1.
         21   -1    0    0  502  503 -0.00000000000E+00 -0.00000000000E+00 -0.37477113921E+03  0.37477113921E+03  0.00000000000E+00 0.  1.
         -6    2    1    2    0  503 -0.17098721101E+01 -0.23243420591E+03 -0.24046656132E+03  0.37643988135E+03  0.17278377650E+03 0.  0.
        -24    2    3    3    0    0  0.50821646347E+02 -0.67558210431E+02 -0.10116794229E+03  0.15424661057E+03  0.80063180003E+02 0.  0.
          6    2    1    2  501    0  0.17098721101E+01  0.23243420591E+03  0.24789504569E+03  0.38053088145E+03  0.17124022402E+03 0.  0.
         24    2    5    5    0    0  0.30816395755E+00  0.25036148918E+03  0.20449554676E+03  0.33331903147E+03  0.81253786769E+02 0.  0.
          5    1    5    5  501    0  0.14017081525E+01 -0.17927283274E+02  0.43399498932E+02  0.47211849984E+02  0.47000000000E+01 0. -1.
        -13    1    6    6    0    0  0.74119220234E+01  0.85824664874E+02  0.12138582533E+03  0.14884666029E+03  0.00000000000E+00 0.  1.
         14    1    6    6    0    0 -0.71037580659E+01  0.16453682431E+03  0.83109721430E+02  0.18447237118E+03  0.00000000000E+00 0. -1.
         -5    1    3    3    0  503 -0.52531518457E+02 -0.16487599548E+03 -0.13929861903E+03  0.22219327078E+03  0.47000000000E+01 0.  1.
         11    1    4    4    0    0  0.13958387718E+02 -0.53477970744E+02 -0.11744644625E+02  0.56503686782E+02  0.00000000000E+00 0. -1.
        -12    1    4    4    0    0  0.36863258629E+02 -0.14080239688E+02 -0.89423297662E+02  0.97742923790E+02  0.00000000000E+00 0.  1.
</event>
<event>
12    1  0.8449700E-002  0.1946829E+03  0.7818608E-02  0.1154397E+00
         21   -1    0    0  503  502  0.00000000000E+00  0.00000000000E+00  0.62394706805E+02  0.62394706805E+02  0.00000000000E+00 0. -1.
         21   -1    0    0  501  503 -0.00000000000E+00 -0.00000000000E+00 -0.78473906483E+03  0.78473906483E+03  0.00000000000E+00 0.  1.
          6    2    1    2  501    0  0.68390834950E+02  0.59583798929E+02 -0.15878437819E+03  0.25089449646E+03  0.17177902723E+03 0.  0.
         24    2    3    3    0    0  0.10458605220E+03  0.20173102581E+02 -0.14177471161E+03  0.19454988274E+03  0.80027443043E+02 0.  0.
         -6    2    1    2    0  502 -0.68390834950E+02 -0.59583798929E+02 -0.56355997983E+03  0.59623927517E+03  0.17226110120E+03 0.  0.
        -24    2    5    5    0    0 -0.41786219850E+02 -0.88156085066E+02 -0.52847482594E+03  0.54353975806E+03  0.81438586919E+02 0.  0.
          5    1    3    3  501    0 -0.36195217250E+02  0.39410696347E+02 -0.17009666583E+02  0.56344613723E+02  0.47000000000E+01 0. -1.
        -13    1    4    4    0    0  0.64824884367E+02 -0.50024437692E+01 -0.13103509247E+03  0.14627879387E+03  0.00000000000E+00 0.  1.
         14    1    4    4    0    0  0.39761167832E+02  0.25175546351E+02 -0.10739619136E+02  0.48271088869E+02  0.00000000000E+00 0. -1.
         -5    1    5    5    0  502 -0.26604615099E+02  0.28572286138E+02 -0.35085153890E+02  0.52699517106E+02  0.47000000000E+01 0.  1.
         11    1    6    6    0    0 -0.17529723991E+02  0.94857450076E+01 -0.38623624420E+02  0.43463259713E+02  0.00000000000E+00 0. -1.
        -12    1    6    6    0    0 -0.24256495860E+02 -0.97641830074E+02 -0.48985120152E+03  0.50007649835E+03  0.00000000000E+00 0.  1.
</event>
<event>
12    1  0.8449700E-002  0.1819126E+03  0.7818608E-02  0.1166501E+00
         21   -1    0    0  503  502  0.00000000000E+00  0.00000000000E+00  0.92811498474E+02  0.92811498474E+02  0.00000000000E+00 0. -1.
         21   -1    0    0  501  503 -0.00000000000E+00 -0.00000000000E+00 -0.65218082523E+03  0.65218082523E+03  0.00000000000E+00 0. -1.
          6    2    1    2  501    0  0.33050922488E+02 -0.39883110222E+02 -0.53324713127E+03  0.56342229791E+03  0.17438221475E+03 0.  0.
         24    2    3    3    0    0 -0.22828984872E+02 -0.36323598153E+02 -0.47094294056E+03  0.47952273681E+03  0.79462164109E+02 0.  0.
         -6    2    1    2    0  502 -0.33050922488E+02  0.39883110222E+02 -0.26122195488E+02  0.18157002579E+03  0.17205312904E+03 0.  0.
        -24    2    5    5    0    0 -0.81748625507E+02  0.55878688906E+02  0.49442470163E+01  0.12144899231E+03  0.70143756025E+02 0.  0.
          5    1    3    3  501    0  0.55879907360E+02 -0.35595120686E+01 -0.62304190711E+02  0.83899561100E+02  0.47000000000E+01 0. -1.
        -11    1    4    4    0    0 -0.24515348729E+02 -0.17809860020E+02 -0.52127143061E+02  0.60294547688E+02  0.00000000000E+00 0.  1.
         12    1    4    4    0    0  0.16863638566E+01 -0.18513738133E+02 -0.41881579749E+03  0.41922818912E+03  0.00000000000E+00 0. -1.
         -5    1    5    5    0  502  0.48697703019E+02 -0.15995578684E+02 -0.31066442505E+02  0.60121033480E+02  0.47000000000E+01 0.  1.
         11    1    6    6    0    0 -0.43942322505E+02  0.61690894113E+02 -0.16613868086E+02  0.77541696760E+02  0.00000000000E+00 0. -1.
        -12    1    6    6    0    0 -0.37806303002E+02 -0.58122052074E+01  0.21558115102E+02  0.43907295553E+02  0.00000000000E+00 0.  1.
</event>
<event>
12    1  0.8449700E-002  0.1810671E+03  0.7818608E-02  0.1166853E+00
         21   -1    0    0  503  502  0.00000000000E+00  0.00000000000E+00  0.14847665065E+04  0.14847665065E+04  0.00000000000E+00 0. -1.
         21   -1    0    0  501  503 -0.00000000000E+00 -0.00000000000E+00 -0.22453530573E+02  0.22453530573E+02  0.00000000000E+00 0. -1.
          6    2    1    2  501    0 -0.34988298820E+02 -0.41347766958E+02  0.83390632110E+03  0.85333759328E+03  0.17277579938E+03 0.  0.
         24    2    3    3    0    0  0.14049454288E+02 -0.77854798090E+02  0.42872504620E+03  0.44354323012E+03  0.81649709081E+02 0.  0.
         -6    2    1    2    0  502  0.34988298820E+02  0.41347766958E+02  0.62840665478E+03  0.65388244374E+03  0.17243406733E+03 0.  0.
        -24    2    5    5    0    0  0.77985611617E+02  0.65351862032E+02  0.41717566801E+03  0.43693640146E+03  0.80779078077E+02 0.  0.
          5    1    3    3  501    0 -0.49037753108E+02  0.36507031133E+02  0.40518127490E+03  0.40979436317E+03  0.47000000000E+01 0. -1.
        -11    1    4    4    0    0  0.48108529053E+02 -0.48460266041E+02  0.27666908512E+03  0.28497124524E+03  0.00000000000E+00 0.  1.
         12    1    4    4    0    0 -0.34059074765E+02 -0.29394532050E+02  0.15205596108E+03  0.15857198488E+03  0.00000000000E+00 0. -1.
         -5    1    5    5    0  502 -0.42997312797E+02 -0.24004095075E+02  0.21123098677E+03  0.21694604228E+03  0.47000000000E+01 0.  1.
         13    1    6    6    0    0  0.90038121176E+02  0.36182692580E+02  0.33945147789E+03  0.35304866003E+03  0.00000000000E+00 0. -1.
        -14    1    6    6    0    0 -0.12052509559E+02  0.29169169453E+02  0.77724190121E+02  0.83887741436E+02  0.00000000000E+00 0.  1.
</event>
<event>
12    1  0.8449700E-002  0.2396418E+03  0.7818608E-02  0.1120184E+00
         21   -1    0    0  501  502  0.00000000000E+00  0.00000000000E+00  0.33811204108E+03  0.33811204108E+03  0.00000000000E+00 0. -1.
         21   -1    0    0  502  503 -0.00000000000E+00 -0.00000000000E+00 -0.17323535073E+03  0.17323535073E+03  0.00000000000E+00 0.  1.
         -6    2    1    2    0  503 -0.81828373407E+02 -0.14550319367E+03  0.43594781551E+02  0.24357485754E+03  0.17193354584E+03 0.  0.
        -24    2    3    3    0    0 -0.90916446079E+02 -0.17231524656E+03  0.42082502984E+02  0.21483714310E+03  0.80160567816E+02 0.  0.
          6    2    1    2  501    0  0.81828373407E+02  0.14550319367E+03  0.12128190880E+03  0.26777253426E+03  0.17066272774E+03 0.  0.
         24    2    5    5    0    0  0.33186628619E+02  0.11520585544E+03  0.14567979202E+03  0.20531218888E+03  0.80973771376E+02 0.  0.
          5    1    5    5  501    0  0.48641744789E+02  0.30297338235E+02 -0.24397883220E+02  0.62460345387E+02  0.47000000000E+01 0. -1.
        -13    1    6    6    0    0 -0.17805757578E+02 -0.75671379860E+00  0.21404417689E+02  0.27852589023E+02  0.00000000000E+00 0.  1.
         14    1    6    6    0    0  0.50992386196E+02  0.11596256924E+03  0.12427537433E+03  0.17745959985E+03  0.00000000000E+00 0. -1.
         -5    1    3    3    0  503  0.90880726720E+01  0.26812052889E+02  0.15122785666E+01  0.28737714444E+02  0.47000000000E+01 0.  1.
         11    1    4    4    0    0 -0.70427946869E+01  0.49786812184E+01  0.14365753536E+02  0.16755986940E+02  0.00000000000E+00 0. -1.
        -12    1    4    4    0    0 -0.83873651392E+02 -0.17729392778E+03  0.27716749448E+02  0.19808115616E+03  0.00000000000E+00 0.  1.
</event>
<event>
12    1  0.8449700E-002  0.2537420E+03  0.7818608E-02  0.1111408E+00
         21   -1    0    0  501  502  0.00000000000E+00  0.00000000000E+00  0.13684471296E+04  0.13684471296E+04  0.00000000000E+00 0. -1.
         21   -1    0    0  502  503 -0.00000000000E+00 -0.00000000000E+00 -0.79474376766E+02  0.79474376766E+02  0.00000000000E+00 0.  1.
         -6    2    1    2    0  503 -0.14748262504E+03 -0.11357614934E+03  0.17617616984E+03  0.30656213276E+03  0.16820116538E+03 0.  0.
        -24    2    3    3    0    0 -0.39759262470E+02  0.88848493159E+01  0.54362958649E+02  0.10294099570E+03  0.77341953840E+02 0.  0.
          6    2    1    2  501    0  0.14748262504E+03  0.11357614934E+03  0.11127965830E+04  0.11413593736E+04  0.17243641786E+03 0.  0.
         24    2    5    5    0    0  0.74114819545E+01  0.16885874132E+02  0.40751517492E+03  0.41581620534E+03  0.80588063757E+02 0.  0.
          5    1    5    5  501    0  0.14007114309E+03  0.96690275210E+02  0.70528140804E+03  0.72554316823E+03  0.47000000000E+01 0. -1.
        -13    1    6    6    0    0  0.35939904883E+02 -0.14775567007E+02  0.22979797526E+03  0.23306030031E+03  0.00000000000E+00 0.  1.
         14    1    6    6    0    0 -0.28528422928E+02  0.31661441139E+02  0.17771719966E+03  0.18275590503E+03  0.00000000000E+00 0. -1.
         -5    1    3    3    0  503 -0.10772336257E+03 -0.12246099866E+03  0.12181321119E+03  0.20362113706E+03  0.47000000000E+01 0.  1.
         13    1    4    4    0    0  0.41968747745E+01 -0.84044461389E+01 -0.15787274696E+02  0.18370806055E+02  0.00000000000E+00 0. -1.
        -14    1    4    4    0    0 -0.43956137245E+02  0.17289295455E+02  0.70150233345E+02  0.84570189649E+02  0.00000000000E+00 0.  1.
</event>
<event>
12    1  0.8449700E-002  0.2109455E+03  0.7818608E-02  0.1140826E+00
         21   -1    0    0  501  502  0.00000000000E+00  0.00000000000E+00  0.67238510830E+03  0.67238510830E+03  0.00000000000E+00 0. -1.
         21   -1    0    0  502  503 -0.00000000000E+00 -0.00000000000E+00 -0.82261260279E+02  0.82261260279E+02  0.00000000000E+00 0. -1.
         -6    2    1    2    0  503 -0.96650489249E+02 -0.74933700280E+02  0.12819050525E+03  0.24684166292E+03  0.17187677099E+03 0.  0.
        -24    2    3    3    0    0 -0.44757648488E+02 -0.92659532573E+02  0.13869711057E+03  0.19080996824E+03  0.81132727209E+02 0.  0.
          6    2    1    2  501    0  0.96650489249E+02  0.74933700280E+02  0.46193334277E+03  0.50780470566E+03  0.17183372607E+03 0.  0.
         24    2    5    5    0    0  0.82237347816E+02  0.86161539449E+01  0.15337664913E+03  0.19183781058E+03  0.80250417965E+02 0.  0.
          5    1    5    5  501    0  0.14413141433E+02  0.66317546335E+02  0.30855669364E+03  0.31596689508E+03  0.47000000000E+01 0. -1.
        -13    1    6    6    0    0  0.38040353540E+02  0.37250750041E+02  0.39246101985E+02  0.66143354897E+02  0.00000000000E+00 0.  1.
         14    1    6    6    0    0  0.44196994276E+02 -0.28634596096E+02  0.11413054715E+03  0.12569445568E+03  0.00000000000E+00 0. -1.
         -5    1    3    3    0  503 -0.51892840761E+02  0.17725832293E+02 -0.10506605327E+02  0.56031694675E+02  0.47000000000E+01 0.  1.
         13    1    4    4    0    0 -0.27898822415E+02 -0.34986771139E+02  0.60076265479E+01  0.45149861834E+02  0.00000000000E+00 0. -1.
        -14    1    4    4    0    0 -0.16858826074E+02 -0.57672761434E+02  0.13268948403E+03  0.14566010641E+03  0.00000000000E+00 0.  1.
</event>
<event>
12    1  0.8449700E-002  0.2219295E+03  0.7818608E-02  0.1134275E+00
         21   -1    0    0  503  502  0.00000000000E+00  0.00000000000E+00  0.40489583852E+03  0.40489583852E+03  0.00000000000E+00 0. -1.
         21   -1    0    0  501  503 -0.00000000000E+00 -0.00000000000E+00 -0.48404837266E+03  0.48404837266E+03  0.00000000000E+00 0. -1.
          6    2    1    2  501    0  0.10029465701E+03  0.65715885923E+02 -0.42669943838E+03  0.47658324020E+03  0.17516157752E+03 0.  0.
         24    2    3    3    0    0  0.84040333868E+02  0.10155417182E+03 -0.23608438226E+03  0.28189175252E+03  0.79693770520E+02 0.  0.
         -6    2    1    2    0  502 -0.10029465701E+03 -0.65715885923E+02  0.34754690424E+03  0.41236097097E+03  0.18674882555E+03 0.  0.
        -24    2    5    5    0    0 -0.13526750401E+03 -0.11388206482E+02  0.23991153655E+03  0.28673430518E+03  0.78943191645E+02 0.  0.
          5    1    3    3  501    0  0.16254323146E+02 -0.35838285893E+02 -0.19061505612E+03  0.19469148769E+03  0.47000000000E+01 0. -1.
        -11    1    4    4    0    0  0.94492446143E+01  0.26621195135E+02 -0.62894195379E+01  0.28940163309E+02  0.00000000000E+00 0.  1.
         12    1    4    4    0    0  0.74591089254E+02  0.74932976681E+02 -0.22979496272E+03  0.25295158921E+03  0.00000000000E+00 0. -1.
         -5    1    5    5    0  502  0.34972846997E+02 -0.54327679441E+02  0.10763536769E+03  0.12562666580E+03  0.47000000000E+01 0.  1.
         13    1    6    6    0    0 -0.13069636767E+03 -0.33117526225E+02  0.20601369179E+03  0.24621119445E+03  0.00000000000E+00 0. -1.
        -14    1    6    6    0    0 -0.45711363414E+01  0.21729319743E+02  0.33897844756E+02  0.40523110728E+02  0.00000000000E+00 0.  1.
</event>
<event>
12    1  0.8449700E-002  0.1954534E+03  0.7818608E-02  0.1157017E+00
         21   -1    0    0  501  502  0.00000000000E+00  0.00000000000E+00  0.21855286065E+02  0.21855286065E+02  0.00000000000E+00 0.  1.
         21   -1    0    0  502  503 -0.00000000000E+00 -0.00000000000E+00 -0.22859022786E+04  0.22859022786E+04  0.00000000000E+00 0.  1.
         -6    2    1    2    0  503  0.41596965423E+02  0.58370854965E+02 -0.17876400455E+04  0.17982933434E+04  0.18183660935E+03 0.  0.
        -24    2    3    3    0    0  0.16306639637E+02 -0.42804387169E+02 -0.76912470765E+03  0.77444198037E+03  0.78162925893E+02 0.  0.
          6    2    1    2  501    0 -0.41596965423E+02 -0.58370854965E+02 -0.47640694702E+03  0.50946422122E+03  0.16568871203E+03 0.  0.
         24    2    5    5    0    0 -0.86691930736E+02 -0.19273143173E+02 -0.28264440835E+03  0.30666333771E+03  0.79168151536E+02 0.  0.
          5    1    5    5  501    0  0.45094965313E+02 -0.39097711792E+02 -0.19376253867E+03  0.20280088351E+03  0.47000000000E+01 0. -1.
        -13    1    6    6    0    0 -0.32254156815E+02 -0.27694689893E+02 -0.41874792492E+02  0.59672646383E+02  0.00000000000E+00 0.  1.
         14    1    6    6    0    0 -0.54437773921E+02  0.84215467199E+01 -0.24076961586E+03  0.24699069132E+03  0.00000000000E+00 0. -1.
         -5    1    3    3    0  503  0.25290325786E+02  0.10117524213E+03 -0.10185153379E+04  0.10238513631E+04  0.47000000000E+01 0.  1.
         11    1    4    4    0    0  0.35258237251E+02  0.12986632496E+01 -0.48580686238E+03  0.48708637566E+03  0.00000000000E+00 0. -1.
        -12    1    4    4    0    0 -0.18951597614E+02 -0.44103050419E+02 -0.28331784527E+03  0.28735560471E+03  0.00000000000E+00 0.  1.
</event>
<event>
12    1  0.8449700E-002  0.1902033E+03  0.7818608E-02  0.1158345E+00
         21   -1    0    0  503  502  0.00000000000E+00  0.00000000000E+00  0.25851332383E+03  0.25851332383E+03  0.00000000000E+00 0.  1.
         21   -1    0    0  501  503 -0.00000000000E+00 -0.00000000000E+00 -0.13976522290E+03  0.13976522290E+03  0.00000000000E+00 0.  1.
          6    2    1    2  501    0  0.63776769693E+02  0.48252657543E+02  0.55980345794E+02  0.19798609107E+03  0.17224661921E+03 0.  0.
         24    2    3    3    0    0  0.10335528261E+03  0.21517549774E+02  0.65604359483E+02  0.14903778863E+03  0.82237528332E+02 0.  0.
         -6    2    1    2    0  502 -0.63776769693E+02 -0.48252657543E+02  0.62767755136E+02  0.20029245567E+03  0.17257311900E+03 0.  0.
        -24    2    5    5    0    0 -0.37058943369E+01  0.39016716967E+01 -0.23465788714E+02  0.82874832592E+02  0.79300932796E+02 0.  0.
          5    1    3    3  501    0 -0.39578512913E+02  0.26735107768E+02 -0.96240136894E+01  0.48948302435E+02  0.47000000000E+01 0. -1.
        -13    1    4    4    0    0  0.67843638251E+02  0.42862419375E+02  0.11773849342E+02  0.81108382884E+02  0.00000000000E+00 0.  1.
         14    1    4    4    0    0  0.35511644355E+02 -0.21344869601E+02  0.53830510141E+02  0.67929405747E+02  0.00000000000E+00 0. -1.
         -5    1    5    5    0  502 -0.60070875356E+02 -0.52154329239E+02  0.86233543850E+02  0.11741762308E+03  0.47000000000E+01 0.  1.
         11    1    6    6    0    0  0.82396940130E+01 -0.33233930820E+02 -0.27141186921E+02  0.43692456359E+02  0.00000000000E+00 0. -1.
        -12    1    6    6    0    0 -0.11945588350E+02  0.37135602516E+02  0.36753982077E+01  0.39182376233E+02  0.00000000000E+00 0.  1.
</event>
<event>
12    1  0.8449700E-002  0.1910157E+03  0.7818608E-02  0.1158134E+00
         21   -1    0    0  501  502  0.00000000000E+00  0.00000000000E+00  0.12514399705E+03  0.12514399705E+03  0.00000000000E+00 0.  1.
         21   -1    0    0  502  503 -0.00000000000E+00 -0.00000000000E+00 -0.28845336917E+03  0.28845336917E+03  0.00000000000E+00 0. -1.
         -6    2    1    2    0  503  0.47409839172E+02 -0.64803468344E+02 -0.93404480718E+02  0.21262974972E+03  0.17332002506E+03 0.  0.
        -24    2    3    3    0    0 -0.23195511083E+01 -0.37486764642E+02  0.15945900136E+02  0.89346294413E+02  0.79484908968E+02 0.  0.
          6    2    1    2  501    0 -0.47409839172E+02  0.64803468344E+02 -0.69904891405E+02  0.20096761651E+03  0.17045265232E+03 0.  0.
         24    2    5    5    0    0 -0.15915660517E+01  0.70804423691E+02 -0.99795923346E+02  0.14573275969E+03  0.79139190259E+02 0.  0.
          5    1    5    5  501    0 -0.45818273120E+02 -0.60009553472E+01  0.29891031941E+02  0.55234856814E+02  0.47000000000E+01 0. -1.
        -11    1    6    6    0    0  0.12102309276E+02 -0.14846550648E+02 -0.13953639805E+02  0.23697890618E+02  0.00000000000E+00 0.  1.
         12    1    6    6    0    0 -0.13693875327E+02  0.85650974339E+02 -0.85842283541E+02  0.12203486908E+03  0.00000000000E+00 0. -1.
         -5    1    3    3    0  503  0.49729390280E+02 -0.27316703702E+02 -0.10935038085E+03  0.12328345530E+03  0.47000000000E+01 0.  1.
         11    1    4    4    0    0 -0.33396952878E+02 -0.18874217724E+02 -0.15502270170E+02  0.41375269626E+02  0.00000000000E+00 0. -1.
        -12    1    4    4    0    0  0.31077401770E+02 -0.18612546918E+02  0.31448170306E+02  0.47971024787E+02  0.00000000000E+00 0.  1.
</event>
<event>
12    1  0.8449700E-002  0.2942501E+03  0.7818608E-02  0.1088368E+00
         21   -1    0    0  501  502  0.00000000000E+00  0.00000000000E+00  0.36190938619E+03  0.36190938619E+03  0.00000000000E+00 0. -1.
         21   -1    0    0  502  503 -0.00000000000E+00 -0.00000000000E+00 -0.24133759545E+03  0.24133759545E+03  0.00000000000E+00 0. -1.
         -6    2    1    2    0  503  0.12753872662E+03 -0.20088905986E+03  0.23958374740E+02  0.29354188077E+03  0.17020661234E+03 0.  0.
        -24    2    3    3    0    0  0.88952179879E+02 -0.19504432715E+03  0.63990678227E+02  0.23743699851E+03  0.79540816601E+02 0.  0.
          6    2    1    2  501    0 -0.12753872662E+03  0.20088905986E+03  0.96613415996E+02  0.30970510087E+03  0.17309117886E+03 0.  0.
         24    2    5    5    0    0 -0.66227180880E+02  0.14734421555E+03 -0.25962474336E+01  0.18128857814E+03  0.82234121383E+02 0.  0.
          5    1    5    5  501    0 -0.61311545742E+02  0.53544844305E+02  0.99209663429E+02  0.12841652273E+03  0.47000000000E+01 0. -1.
        -11    1    6    6    0    0 -0.35414980118E+02  0.25679195547E+02 -0.29718874008E+02  0.52885285033E+02  0.00000000000E+00 0.  1.
         12    1    6    6    0    0 -0.30812200761E+02  0.12166502000E+03  0.27122626575E+02  0.12840329311E+03  0.00000000000E+00 0. -1.
         -5    1    3    3    0  503  0.38586546743E+02 -0.58447327077E+01 -0.40032303488E+02  0.56104882252E+02  0.47000000000E+01 0.  1.
         11    1    4    4    0    0 -0.70955781563E+01 -0.68721107441E+02  0.99619496081E+01  0.69800990518E+02  0.00000000000E+00 0. -1.
        -12    1    4    4    0    0  0.96047758035E+02 -0.12632321971E+03  0.54028728619E+02  0.16763600800E+03  0.00000000000E+00 0.  1.
</event>
<event>
12    1  0.8449700E-002  0.1784867E+03  0.7818608E-02  0.1169824E+00
         21   -1    0    0  503  502  0.00000000000E+00  0.00000000000E+00  0.23284160991E+03  0.23284160991E+03  0.00000000000E+00 0.  1.
         21   -1    0    0  501  503 -0.00000000000E+00 -0.00000000000E+00 -0.16138934907E+03  0.16138934907E+03  0.00000000000E+00 0.  1.
          6    2    1    2  501    0  0.36708900483E+02  0.16593028556E+02 -0.43612100189E+02  0.18373763803E+03  0.17388108688E+03 0.  0.
         24    2    3    3    0    0  0.39045101349E+02 -0.48030312209E+02 -0.59825105328E+02  0.11690511944E+03  0.79096984093E+02 0.  0.
         -6    2    1    2    0  502 -0.36708900483E+02 -0.16593028556E+02  0.11506436103E+03  0.21049332096E+03  0.17159475230E+03 0.  0.
        -24    2    5    5    0    0  0.30071921905E+02  0.36560158670E+02  0.60030808816E+02  0.10882857082E+03  0.77453173796E+02 0.  0.
          5    1    3    3  501    0 -0.23362008662E+01  0.64623340765E+02  0.16213005138E+02  0.66832518595E+02  0.47000000000E+01 0. -1.
        -13    1    4    4    0    0  0.15212054092E+02  0.68675172009E+01 -0.54294663163E+02  0.56802111142E+02  0.00000000000E+00 0.  1.
         14    1    4    4    0    0  0.23833047257E+02 -0.54897829410E+02 -0.55304421650E+01  0.60103008294E+02  0.00000000000E+00 0. -1.
         -5    1    5    5    0  502 -0.66780822388E+02 -0.53153187226E+02  0.55033552213E+02  0.10166475014E+03  0.47000000000E+01 0.  1.
         11    1    6    6    0    0  0.52646450192E+02  0.63267376145E+01  0.34020025309E+02  0.63000305148E+02  0.00000000000E+00 0. -1.
        -12    1    6    6    0    0 -0.22574528287E+02  0.30233421056E+02  0.26010783506E+02  0.45828265674E+02  0.00000000000E+00 0.  1.
</event>
<event>
12    1  0.8449700E-002  0.1786102E+03  0.7818608E-02  0.1169171E+00
         21   -1    0    0  503  502  0.00000000000E+00  0.00000000000E+00  0.49476396841E+03  0.49476396841E+03  0.00000000000E+00 0.  1.
         21   -1    0    0  501  503 -0.00000000000E+00 -0.00000000000E+00 -0.14413405188E+03  0.14413405188E+03  0.00000000000E+00 0.  1.
          6    2    1    2  501    0 -0.15557523864E+02 -0.45354798509E+02 -0.62186064139E+02  0.18912617690E+03  0.17205379949E+03 0.  0.
         24    2    3    3    0    0  0.60263946876E+02 -0.43143252624E+02 -0.43084339858E+02  0.11076322500E+03  0.70136639002E+02 0.  0.
         -6    2    1    2    0  502  0.15557523864E+02  0.45354798509E+02  0.41281598067E+03  0.44977184340E+03  0.17198425194E+03 0.  0.
        -24    2    5    5    0    0 -0.14851783469E+02 -0.35394792552E+02  0.17141551826E+03  0.19337079878E+03  0.80843176004E+02 0.  0.
          5    1    3    3  501    0 -0.75821470740E+02 -0.22115458850E+01 -0.19101724281E+02  0.78362951903E+02  0.47000000000E+01 0. -1.
        -11    1    4    4    0    0  0.53736996652E+02 -0.46960269255E+02 -0.45670051538E+01  0.71510763062E+02  0.00000000000E+00 0.  1.
         12    1    4    4    0    0  0.65269502245E+01  0.38170166311E+01 -0.38517334704E+02  0.39252461934E+02  0.00000000000E+00 0. -1.
         -5    1    5    5    0  502  0.30409307333E+02  0.80749591061E+02  0.24140046241E+03  0.25640104462E+03  0.47000000000E+01 0.  1.
         13    1    6    6    0    0 -0.31950159444E+02 -0.54914047869E+02  0.12029375440E+03  0.13604026128E+03  0.00000000000E+00 0. -1.
        -14    1    6    6    0    0  0.17098375975E+02  0.19519255317E+02  0.51121763864E+02  0.57330537497E+02  0.00000000000E+00 0.  1.
</event>
<event>
12    1  0.8449700E-002  0.2115874E+03  0.7818608E-02  0.1140346E+00
         21   -1    0    0  501  502  0.00000000000E+00  0.00000000000E+00  0.57305714736E+03  0.57305714736E+03  0.00000000000E+00 0.  1.
         21   -1    0    0  502  503 -0.00000000000E+00 -0.00000000000E+00 -0.81077679732E+02  0.81077679732E+02  0.00000000000E+00 0.  1.
         -6    2    1    2    0  503  0.12169247494E+02 -0.12405123083E+03  0.30911948426E+03  0.37459854401E+03  0.17097489631E+03 0.  0.
        -24    2    3    3    0    0  0.75406232862E+02 -0.81662007057E+02  0.19335459446E+03  0.23596462925E+03  0.77061817442E+02 0.  0.
          6    2    1    2  501    0 -0.12169247494E+02  0.12405123083E+03  0.18285998336E+03  0.27953628308E+03  0.17078044849E+03 0.  0.
         24    2    5    5    0    0 -0.65755189392E+02  0.13025204513E+03  0.12911713109E+03  0.20324547474E+03  0.57863194420E+02 0.  0.
          5    1    5    5  501    0  0.53585941898E+02 -0.62008142976E+01  0.53742852273E+02  0.76290808342E+02  0.47000000000E+01 0. -1.
        -11    1    6    6    0    0 -0.64618821323E+01  0.66476787888E+02  0.36471810763E+02  0.76099357612E+02  0.00000000000E+00 0.  1.
         12    1    6    6    0    0 -0.59293307260E+02  0.63775257241E+02  0.92645320325E+02  0.12714611713E+03  0.00000000000E+00 0. -1.
         -5    1    3    3    0  503 -0.63236985368E+02 -0.42389223774E+02  0.11576488980E+03  0.13863391476E+03  0.47000000000E+01 0.  1.
         13    1    4    4    0    0  0.49830824670E+02 -0.20483797700E+02  0.14266813516E+03  0.15250211095E+03  0.00000000000E+00 0. -1.
        -14    1    4    4    0    0  0.25575408192E+02 -0.61178209357E+02  0.50686459308E+02  0.83462518303E+02  0.00000000000E+00 0.  1.
</event>
<event>
12    1  0.8449700E-002  0.2143392E+03  0.7818608E-02  0.1138447E+00
         21   -1    0    0  501  502  0.00000000000E+00  0.00000000000E+00  0.14309011322E+04  0.14309011322E+04  0.00000000000E+00 0. -1.
         21   -1    0    0  502  503 -0.00000000000E+00 -0.00000000000E+00 -0.98412157106E+02  0.98412157106E+02  0.00000000000E+00 0. -1.
         -6    2    1    2    0  503 -0.11832433994E+03  0.49550684440E+02  0.38312783709E+02  0.21773648259E+03  0.17171309416E+03 0.  0.
        -24    2    3    3    0    0 -0.83339346096E+02  0.55870128808E+02 -0.38126890112E+02  0.13330308336E+03  0.79051466679E+02 0.  0.
          6    2    1    2  501    0  0.11832433994E+03 -0.49550684440E+02  0.12941761914E+04  0.13115768068E+04  0.16995818841E+03 0.  0.
         24    2    5    5    0    0  0.81474646083E+02  0.92520315106E+01  0.46474558660E+03  0.47923500343E+03  0.83390708143E+02 0.  0.
          5    1    5    5  501    0  0.36849693860E+02 -0.58802715951E+02  0.82943060483E+03  0.83234180333E+03  0.47000000000E+01 0. -1.
        -11    1    6    6    0    0  0.22549953152E+02 -0.33528991163E+02  0.11236116140E+03  0.11940571271E+03  0.00000000000E+00 0.  1.
         12    1    6    6    0    0  0.58924692931E+02  0.42781022674E+02  0.35238442520E+03  0.35982929072E+03  0.00000000000E+00 0. -1.
         -5    1    3    3    0  503 -0.34984993847E+02 -0.63194443676E+01  0.76439673821E+02  0.84433399230E+02  0.47000000000E+01 0.  1.
         13    1    4    4    0    0 -0.72165355046E+02  0.57259451722E+02  0.14725428684E+01  0.92133879018E+02  0.00000000000E+00 0. -1.
        -14    1    4    4    0    0 -0.11173991050E+02 -0.13893229134E+01 -0.39599432980E+02  0.41169204346E+02  0.00000000000E+00 0.  1.
</event>
<event>
12    1  0.8449700E-002  0.2321041E+03  0.7818608E-02  0.1125169E+00
         21   -1    0    0  503  502  0.00000000000E+00  0.00000000000E+00  0.36948475805E+03  0.36948475805E+03  0.00000000000E+00 0.  1.
         21   -1    0    0  501  503 -0.00000000000E+00 -0.00000000000E+00 -0.15533235646E+03  0.15533235646E+03  0.00000000000E+00 0.  1.
          6    2    1    2  501    0  0.15574740935E+03  0.20672709020E+01  0.42071027052E+02  0.23588619630E+03  0.17207788109E+03 0.  0.
         24    2    3    3    0    0  0.11741276545E+03 -0.63812403660E+02  0.29104803896E+02  0.15842724339E+03  0.79964501416E+02 0.  0.
         -6    2    1    2    0  502 -0.15574740935E+03 -0.20672709020E+01  0.17208137454E+03  0.28893091821E+03  0.17206843669E+03 0.  0.
        -24    2    5    5    0    0 -0.73200226823E+02 -0.10737762862E+02  0.10354536866E+02  0.10708792329E+03  0.76727010392E+02 0.  0.
          5    1    3    3  501    0  0.38334643895E+02  0.65879674562E+02  0.12966223156E+02  0.77458952909E+02  0.47000000000E+01 0. -1.
        -13    1    4    4    0    0  0.54730392269E+02 -0.41473755962E+02 -0.24571477982E+02  0.72933159823E+02  0.00000000000E+00 0.  1.
         14    1    4    4    0    0  0.62682373185E+02 -0.22338647698E+02  0.53676281879E+02  0.85494083569E+02  0.00000000000E+00 0. -1.
         -5    1    5    5    0  502 -0.82547182525E+02  0.86704919598E+01  0.16172683768E+03  0.18184299491E+03  0.47000000000E+01 0.  1.
         13    1    6    6    0    0  0.16096287381E+02  0.17490762765E+01  0.41216096225E+01  0.16707405578E+02  0.00000000000E+00 0. -1.
        -14    1    6    6    0    0 -0.89296514204E+02 -0.12486839138E+02  0.62329272436E+01  0.90380517716E+02  0.00000000000E+00 0.  1.
</event>
<event>
12    1  0.8449700E-002  0.2152878E+03  0.7818608E-02  0.1137617E+00
         21   -1    0    0  501  502  0.00000000000E+00  0.00000000000E+00  0.10857046124E+03  0.10857046124E+03  0.00000000000E+00 0.  1.
         21   -1    0    0  502  503 -0.00000000000E+00 -0.00000000000E+00 -0.65056569604E+03  0.65056569604E+03  0.00000000000E+00 0. -1.
         -6    2    1    2    0  503 -0.53823891025E+02  0.11633102811E+03 -0.49406585063E+03  0.53857767500E+03  0.17185728935E+03 0.  0.
        -24    2    3    3    0    0  0.35749639832E+02  0.47702206817E+02 -0.22267358462E+03  0.24462328297E+03  0.81874831301E+02 0.  0.
          6    2    1    2  501    0  0.53823891025E+02 -0.11633102811E+03 -0.47929384167E+02  0.22055848228E+03  0.17297080359E+03 0.  0.
         24    2    5    5    0    0 -0.31688587943E+01 -0.17458249195E+02  0.30848038955E+02  0.81807005405E+02  0.73661064986E+02 0.  0.
          5    1    5    5  501    0  0.56992749819E+02 -0.98872778916E+02 -0.78777423122E+02  0.13875147688E+03  0.47000000000E+01 0. -1.
        -13    1    6    6    0    0 -0.13568303659E+02 -0.44644147861E+02  0.19131770338E+02  0.50430382099E+02  0.00000000000E+00 0.  1.
         14    1    6    6    0    0  0.10399444864E+02  0.27185898666E+02  0.11716268617E+02  0.31376623306E+02  0.00000000000E+00 0. -1.
         -5    1    3    3    0  503 -0.89573530856E+02  0.68628821294E+02 -0.27139226602E+03  0.29395439203E+03  0.47000000000E+01 0.  1.
         11    1    4    4    0    0 -0.13849403287E+01  0.61305011079E+02 -0.14589662515E+03  0.15825943155E+03  0.00000000000E+00 0. -1.
        -12    1    4    4    0    0  0.37134580160E+02 -0.13602804262E+02 -0.76776959467E+02  0.86363851422E+02  0.00000000000E+00 0.  1.
</event>
<event>
12    1  0.8449700E-002  0.2002176E+03  0.7818608E-02  0.1149637E+00
         21   -1    0    0  501  502  0.00000000000E+00  0.00000000000E+00  0.15876325525E+04  0.15876325525E+04  0.00000000000E+00 0. -1.
         21   -1    0    0  502  503 -0.00000000000E+00 -0.00000000000E+00 -0.57558714900E+02  0.57558714900E+02  0.00000000000E+00 0. -1.
         -6    2    1    2    0  503  0.60697038222E+02  0.81718709822E+02  0.14859453218E+03  0.24933394546E+03  0.17240940630E+03 0.  0.
        -24    2    3    3    0    0  0.56399978649E+02 -0.14881855698E+02  0.10227185433E+03  0.14201193251E+03  0.79406735017E+02 0.  0.
          6    2    1    2  501    0 -0.60697038222E+02 -0.81718709822E+02  0.13814793054E+04  0.13958573219E+04  0.17196079186E+03 0.  0.
         24    2    5    5    0    0 -0.13163490153E+02  0.79619764352E+01  0.39943596301E+03  0.40857150717E+03  0.84527613152E+02 0.  0.
          5    1    5    5  501    0 -0.47533548069E+02 -0.89680686257E+02  0.98204334239E+03  0.98728581475E+03  0.47000000000E+01 0. -1.
        -11    1    6    6    0    0  0.18580174525E+02 -0.12512142146E+02  0.31229322899E+02  0.38432371709E+02  0.00000000000E+00 0.  1.
         12    1    6    6    0    0 -0.31743664678E+02  0.20474118582E+02  0.36820664011E+03  0.37013913547E+03  0.00000000000E+00 0. -1.
         -5    1    3    3    0  503  0.42970595724E+01  0.96600565521E+02  0.46322677850E+02  0.10732201295E+03  0.47000000000E+01 0.  1.
         11    1    4    4    0    0 -0.65017935092E+00 -0.34702255327E+02  0.20350894294E+02  0.40234663619E+02  0.00000000000E+00 0. -1.
        -12    1    4    4    0    0  0.57050158000E+02  0.19820399629E+02  0.81920960040E+02  0.10177726889E+03  0.00000000000E+00 0.  1.
</event>
<event>
12    1  0.8449700E-002  0.2050626E+03  0.7818608E-02  0.1145844E+00
         21   -1    0    0  501  502  0.00000000000E+00  0.00000000000E+00  0.12753650901E+03  0.12753650901E+03  0.00000000000E+00 0.  1.
         21   -1    0    0  502  503 -0.00000000000E+00 -0.00000000000E+00 -0.11683408004E+04  0.11683408004E+04  0.00000000000E+00 0.  1.
         -6    2    1    2    0  503 -0.21476782687E+02 -0.10600125634E+03 -0.10706750267E+04  0.10901356312E+04  0.17422159158E+03 0.  0.
        -24    2    3    3    0    0  0.46292488087E+02 -0.99304946552E+02 -0.65439626720E+03  0.66829726135E+03  0.79889224201E+02 0.  0.
          6    2    1    2  501    0  0.21476782687E+02  0.10600125634E+03  0.29870735398E+02  0.20574167817E+03  0.17245248263E+03 0.  0.
         24    2    5    5    0    0  0.15014405012E+02 -0.40059314521E+01 -0.22329392938E+02  0.83715914131E+02  0.79172423514E+02 0.  0.
          5    1    5    5  501    0  0.64623776752E+01  0.11000718780E+03  0.52200128336E+02  0.12202576404E+03  0.47000000000E+01 0. -1.
        -13    1    6    6    0    0  0.30557963217E+02  0.13431341635E+02  0.17389213045E+02  0.37637412032E+02  0.00000000000E+00 0.  1.
         14    1    6    6    0    0 -0.15543558206E+02 -0.17437273087E+02 -0.39718605984E+02  0.46078502099E+02  0.00000000000E+00 0. -1.
         -5    1    3    3    0  503 -0.67769270774E+02 -0.66963097927E+01 -0.41627875954E+03  0.42183836985E+03  0.47000000000E+01 0.  1.
         11    1    4    4    0    0 -0.17804497125E+02 -0.29914846957E+02 -0.28052531692E+03  0.28267711549E+03  0.00000000000E+00 0. -1.
        -12    1    4    4    0    0  0.64096985212E+02 -0.69390099595E+02 -0.37387095027E+03  0.38562014586E+03  0.00000000000E+00 0.  1.
</event>
<event>
12    1  0.8449700E-002  0.1841613E+03  0.7818608E-02  0.1163941E+00
         21   -1    0    0  503  502  0.00000000000E+00  0.00000000000E+00  0.12893398046E+03  0.12893398046E+03  0.00000000000E+00 0.  1.
         21   -1    0    0  501  503 -0.00000000000E+00 -0.00000000000E+00 -0.40619367943E+03  0.40619367943E+03  0.00000000000E+00 0.  1.
          6    2    1    2  501    0  0.58647561486E+02  0.30963050080E+02 -0.29771434510E+03  0.34983385446E+03  0.17132322525E+03 0.  0.
         24    2    3    3    0    0  0.22698956429E+02 -0.39259695345E+02 -0.22011718328E+03  0.23907760993E+03  0.81547304624E+02 0.  0.
         -6    2    1    2    0  502 -0.58647561486E+02 -0.30963050080E+02  0.20454646133E+02  0.18529380543E+03  0.17180557280E+03 0.  0.
        -24    2    5    5    0    0 -0.46305649735E+02  0.68063743928E+01 -0.49519867161E+02  0.10468751088E+03  0.79477781552E+02 0.  0.
          5    1    3    3  501    0  0.35948605056E+02  0.70222745426E+02 -0.77597161819E+02  0.11075624453E+03  0.47000000000E+01 0. -1.
        -13    1    4    4    0    0  0.43377627317E+02 -0.52075941216E+02 -0.17758994153E+03  0.19008342783E+03  0.00000000000E+00 0.  1.
         14    1    4    4    0    0 -0.20678670888E+02  0.12816245871E+02 -0.42527241757E+02  0.48994182097E+02  0.00000000000E+00 0. -1.
         -5    1    5    5    0  502 -0.12341911751E+02 -0.37769424473E+02  0.69974513294E+02  0.80606294552E+02  0.47000000000E+01 0.  1.
         11    1    6    6    0    0 -0.48589405176E+02 -0.28722131470E+02 -0.27078456622E+02  0.62602986706E+02  0.00000000000E+00 0. -1.
        -12    1    6    6    0    0  0.22837554411E+01  0.35528505863E+02 -0.22441410539E+02  0.42084524172E+02  0.00000000000E+00 0.  1.
</event>
<event>
12    1  0.8449700E-002  0.2002621E+03  0.7818608E-02  0.1150116E+00
         21   -1    0    0  501  502  0.00000000000E+00  0.00000000000E+00  0.92220347966E+02  0.92220347966E+02  0.00000000000E+00 0. -1.
         21   -1    0    0  502  503 -0.00000000000E+00 -0.00000000000E+00 -0.12358787890E+04  0.12358787890E+04  0.00000000000E+00 0. -1.
         -6    2    1    2    0  503  0.61861805062E+02  0.76993834499E+02 -0.11098606758E+04  0.11277834988E+04  0.17421241910E+03 0.  0.
        -24    2    3    3    0    0  0.10417409337E+03  0.31337049924E+02 -0.60614498275E+03  0.62021432996E+03  0.73619444056E+02 0.  0.
          6    2    1    2  501    0 -0.61861805062E+02 -0.76993834499E+02 -0.33797765202E+02  0.20031563815E+03  0.17096529612E+03 0.  0.
         24    2    5    5    0    0 -0.33123538892E+02  0.17987142462E+02  0.15884197661E+02  0.89240612331E+02  0.79315023994E+02 0.  0.
          5    1    5    5  501    0 -0.28738266170E+02 -0.94980976961E+02 -0.49681962863E+02  0.11107502582E+03  0.47000000000E+01 0. -1.
        -11    1    6    6    0    0  0.16582772639E+02  0.11463602616E+02 -0.19367017625E+02  0.27955033626E+02  0.00000000000E+00 0.  1.
         12    1    6    6    0    0 -0.49706311530E+02  0.65235398463E+01  0.35251215286E+02  0.61285578705E+02  0.00000000000E+00 0. -1.
         -5    1    3    3    0  503 -0.42312288309E+02  0.45656784574E+02 -0.50371569309E+03  0.50756916887E+03  0.47000000000E+01 0.  1.
         13    1    4    4    0    0 -0.56133947576E+01  0.14574029856E+02 -0.14705157546E+03  0.14787859343E+03  0.00000000000E+00 0. -1.
        -14    1    4    4    0    0  0.10978748813E+03  0.16763020068E+02 -0.45909340728E+03  0.47233573653E+03  0.00000000000E+00 0.  1.
</event>
<event>
12    1  0.8449700E-002  0.2067478E+03  0.7818608E-02  0.1144384E+00
         21   -1    0    0  501  502  0.00000000000E+00  0.00000000000E+00  0.12531235084E+04  0.12531235084E+04  0.00000000000E+00 0.  1.
         21   -1    0    0  502  503 -0.00000000000E+00 -0.00000000000E+00 -0.34332312626E+02  0.34332312626E+02  0.00000000000E+00 0. -1.
         -6    2    1    2    0  503 -0.10492368006E+03 -0.40488737373E+02  0.68027946848E+03  0.71100267883E+03  0.17348296046E+03 0.  0.
        -24    2    3    3    0    0 -0.95380398812E+02 -0.63182539553E+02  0.31391448026E+03  0.34378138660E+03  0.80956081113E+02 0.  0.
          6    2    1    2  501    0  0.10492368006E+03  0.40488737373E+02  0.53851172732E+03  0.57645314223E+03  0.17220635363E+03 0.  0.
         24    2    5    5    0    0  0.91920857901E+02 -0.32106217453E+02  0.27585521743E+03  0.30359854168E+03  0.81214039505E+02 0.  0.
          5    1    5    5  501    0  0.13002822156E+02  0.72594954826E+02  0.26265650989E+03  0.27285460055E+03  0.47000000000E+01 0. -1.
        -11    1    6    6    0    0  0.29166271266E+02 -0.32211754793E+02  0.20228352158E+03  0.20689826396E+03  0.00000000000E+00 0.  1.
         12    1    6    6    0    0  0.62754586635E+02  0.10553733933E+00  0.73571695851E+02  0.96700277726E+02  0.00000000000E+00 0. -1.
         -5    1    3    3    0  503 -0.95432812445E+01  0.22693802180E+02  0.36636498822E+03  0.36722129223E+03  0.47000000000E+01 0.  1.
         13    1    4    4    0    0 -0.63384372386E+02 -0.70252306295E+02  0.15559522246E+03  0.18210666780E+03  0.00000000000E+00 0. -1.
        -14    1    4    4    0    0 -0.31996026426E+02  0.70697667412E+01  0.15831925780E+03  0.16167471880E+03  0.00000000000E+00 0.  1.
</event>
<event>
12    1  0.8449700E-002  0.2659043E+03  0.7818608E-02  0.1103722E+00
         21   -1    0    0  503  502  0.00000000000E+00  0.00000000000E+00  0.18285805904E+03  0.18285805904E+03  0.00000000000E+00 0. -1.
         21   -1    0    0  501  503 -0.00000000000E+00 -0.00000000000E+00 -0.12279351449E+04  0.12279351449E+04  0.00000000000E+00 0.  1.
          6    2    1    2  501    0  0.35030878615E+02 -0.19944993530E+03 -0.11068216088E+04  0.11383141846E+04  0.17233011937E+03 0.  0.
         24    2    3    3    0    0  0.83839886475E+02 -0.14300263290E+03 -0.89275944712E+03  0.91156913779E+03  0.80374019253E+02 0.  0.
         -6    2    1    2    0  502 -0.35030878615E+02  0.19944993530E+03  0.61744522938E+02  0.27247901933E+03  0.17153714092E+03 0.  0.
        -24    2    5    5    0    0 -0.23083380015E+02  0.38979729987E+02 -0.12902064529E+02  0.95031470644E+02  0.82536388101E+02 0.  0.
          5    1    3    3  501    0 -0.48809007860E+02 -0.56447302402E+02 -0.21406216172E+03  0.22674504686E+03  0.47000000000E+01 0. -1.
        -13    1    4    4    0    0  0.16897574436E+02 -0.97384587122E+02 -0.39025581587E+03  0.40257780323E+03  0.00000000000E+00 0.  1.
         14    1    4    4    0    0  0.66942312039E+02 -0.45618045774E+02 -0.50250363125E+03  0.50899133456E+03  0.00000000000E+00 0. -1.
         -5    1    5    5    0  502 -0.11947498600E+02  0.16047020531E+03  0.74646587467E+02  0.17744754869E+03  0.47000000000E+01 0.  1.
         13    1    6    6    0    0 -0.50401064061E+01  0.44090738099E+02  0.26292255552E+02  0.51581765777E+02  0.00000000000E+00 0. -1.
        -14    1    6    6    0    0 -0.18043273609E+02 -0.51110081113E+01 -0.39194320080E+02  0.43449704867E+02  0.00000000000E+00 0.  1.
</event>
<event>
12    1  0.8449700E-002  0.3269495E+03  0.7818608E-02  0.1072923E+00
         21   -1    0    0  503  502  0.00000000000E+00  0.00000000000E+00  0.15250130940E+03  0.15250130940E+03  0.00000000000E+00 0.  1.
         21   -1    0    0  501  503 -0.00000000000E+00 -0.00000000000E+00 -0.11422316212E+04  0.11422316212E+04  0.00000000000E+00 0. -1.
          6    2    1    2  501    0 -0.37411447761E+02 -0.27074708393E+03 -0.90268238300E+03  0.96006847230E+03  0.17942237055E+03 0.  0.
         24    2    3    3    0    0  0.43516715458E+02 -0.10111304154E+03 -0.44810360099E+03  0.46814466215E+03  0.79025538837E+02 0.  0.
         -6    2    1    2    0  502  0.37411447761E+02  0.27074708393E+03 -0.87047928829E+02  0.33466445833E+03  0.17239303314E+03 0.  0.
        -24    2    5    5    0    0 -0.17344188461E+02  0.73992220747E+02  0.55394284830E+00  0.11238797778E+03  0.82795417094E+02 0.  0.
          5    1    3    3  501    0 -0.80928163219E+02 -0.16963404239E+03 -0.45457878201E+03  0.49192381015E+03  0.47000000000E+01 0. -1.
        -13    1    4    4    0    0  0.26789005970E+00 -0.56508668352E+02 -0.10290776119E+03  0.11740233677E+03  0.00000000000E+00 0.  1.
         14    1    4    4    0    0  0.43248825399E+02 -0.44604373187E+02 -0.34519583980E+03  0.35074232539E+03  0.00000000000E+00 0. -1.
         -5    1    5    5    0  502  0.54755636221E+02  0.19675486319E+03 -0.87601871677E+02  0.22227648055E+03  0.47000000000E+01 0.  1.
         11    1    6    6    0    0 -0.18779250660E+02  0.82068987164E+02  0.24003377876E+02  0.87545080153E+02  0.00000000000E+00 0. -1.
        -12    1    6    6    0    0  0.14350621991E+01 -0.80767664176E+01 -0.23449435027E+02  0.24842897625E+02  0.00000000000E+00 0.  1.
</event>
<event>
12    1  0.8449700E-002  0.1828501E+03  0.7818608E-02  0.1165246E+00
         21   -1    0    0  503  502  0.00000000000E+00  0.00000000000E+00  0.14680209450E+04  0.14680209450E+04  0.00000000000E+00 0. -1.
         21   -1    0    0  501  503 -0.00000000000E+00 -0.00000000000E+00 -0.33648243811E+02  0.33648243811E+02  0.00000000000E+00 0. -1.
          6    2    1    2  501    0  0.76795573414E+01 -0.62418716322E+02  0.28762772639E+03  0.34043786616E+03  0.17091857704E+03 0.  0.
         24    2    3    3    0    0 -0.25621214031E+02 -0.42437651661E+02  0.28632650426E+03  0.30129750977E+03  0.79623623810E+02 0.  0.
         -6    2    1    2    0  502 -0.76795573414E+01  0.62418716322E+02  0.11467449748E+04  0.11612313227E+04  0.17169471668E+03 0.  0.
        -24    2    5    5    0    0  0.24543868792E+02  0.10201786128E+03  0.82574368865E+03  0.83616154986E+03  0.79394285743E+02 0.  0.
          5    1    3    3  501    0  0.33300771373E+02 -0.19981064661E+02  0.13012221352E+01  0.39140356386E+02  0.47000000000E+01 0. -1.
        -13    1    4    4    0    0 -0.10500389103E+02  0.47572601190E+01  0.20985778153E+03  0.21017416150E+03  0.00000000000E+00 0.  1.
         14    1    4    4    0    0 -0.15120824928E+02 -0.47194911780E+02  0.76468722731E+02  0.91123348273E+02  0.00000000000E+00 0. -1.
         -5    1    5    5    0  502 -0.32223426133E+02 -0.39599144956E+02  0.32100128618E+03  0.32506977283E+03  0.47000000000E+01 0.  1.
         13    1    6    6    0    0  0.29995855013E+02  0.37910636899E+02  0.15560290109E+03  0.16293934619E+03  0.00000000000E+00 0. -1.
        -14    1    6    6    0    0 -0.54519862216E+01  0.64107224379E+02  0.67014078755E+03  0.67322220367E+03  0.00000000000E+00 0.  1.
</event>
<event>
12    1  0.8449700E-002  0.2204001E+03  0.7818608E-02  0.1133629E+00
         21   -1    0    0  503  502  0.00000000000E+00  0.00000000000E+00  0.20905487350E+03  0.20905487350E+03  0.00000000000E+00 0. -1.
         21   -1    0    0  501  503 -0.00000000000E+00 -0.00000000000E+00 -0.27458009082E+03  0.27458009082E+03  0.00000000000E+00 0.  1.
          6    2    1    2  501    0 -0.13537626589E+03 -0.28118155713E+02 -0.12787984825E+03  0.25481256244E+03  0.17163572571E+03 0.  0.
         24    2    3    3    0    0 -0.12422068139E+03  0.30538863209E+02 -0.10300704780E+03  0.18996012118E+03  0.95451536887E+02 0.  0.
         -6    2    1    2    0  502  0.13537626589E+03  0.28118155713E+02  0.62354630932E+02  0.22882240187E+03  0.17133075484E+03 0.  0.
        -24    2    5    5    0    0  0.51632676499E+02  0.73746185753E+02  0.10594948353E+02  0.12021273089E+03  0.78958308890E+02 0.  0.
          5    1    3    3  501    0 -0.11155584506E+02 -0.58657018922E+02 -0.24872800458E+02  0.64852441258E+02  0.47000000000E+01 0. -1.
        -13    1    4    4    0    0 -0.30151399334E+02  0.44334804191E+02 -0.72376158199E+02  0.90072137868E+02  0.00000000000E+00 0.  1.
         14    1    4    4    0    0 -0.94069282051E+02 -0.13795940981E+02 -0.30630889597E+02  0.99887983315E+02  0.00000000000E+00 0. -1.
         -5    1    5    5    0  502  0.83743589392E+02 -0.45628030040E+02  0.51759682579E+02  0.10860967098E+03  0.47000000000E+01 0.  1.
         13    1    6    6    0    0 -0.20117703815E+02  0.17434214616E+02 -0.65287934965E+01  0.27409833830E+02  0.00000000000E+00 0. -1.
        -14    1    6    6    0    0  0.71750380314E+02  0.56311971137E+02  0.17123741850E+02  0.92802897064E+02  0.00000000000E+00 0.  1.
</event>
<event>
12    1  0.8449700E-002  0.2711182E+03  0.7818608E-02  0.1100663E+00
         21   -1    0    0  503  502  0.00000000000E+00  0.00000000000E+00  0.42323223274E+03  0.42323223274E+03  0.00000000000E+00 0.  1.
         21   -1    0    0  501  503 -0.00000000000E+00 -0.00000000000E+00 -0.18098258295E+03  0.18098258295E+03  0.00000000000E+00 0. -1.
          6    2    1    2  501    0  0.74570349025E+02 -0.19557056714E+03  0.60057211891E+02  0.27769042135E+03  0.17232677599E+03 0.  0.
         24    2    3    3    0    0  0.42840987489E+02 -0.54325075468E+02  0.78694626355E+02  0.13165451988E+03  0.79708872487E+02 0.  0.
         -6    2    1    2    0  502 -0.74570349025E+02  0.19557056714E+03  0.18219243789E+03  0.32652439434E+03  0.17209158022E+03 0.  0.
        -24    2    5    5    0    0 -0.18054050222E+02  0.16082207644E+03  0.63857429543E+02  0.19077899354E+03  0.78288977946E+02 0.  0.
          5    1    3    3  501    0  0.31729361535E+02 -0.14124549168E+03 -0.18637414464E+02  0.14603590148E+03  0.47000000000E+01 0. -1.
        -13    1    4    4    0    0  0.36791364414E+01 -0.62156519512E+02  0.63473920645E+02  0.88915170611E+02  0.00000000000E+00 0.  1.
         14    1    4    4    0    0  0.39161851048E+02  0.78314440440E+01  0.15220705710E+02  0.42739349266E+02  0.00000000000E+00 0. -1.
         -5    1    5    5    0  502 -0.56516298803E+02  0.34748490705E+02  0.11833500835E+03  0.13574540080E+03  0.47000000000E+01 0.  1.
         11    1    6    6    0    0  0.32750018639E+01  0.20635741808E+02 -0.17537765581E+02  0.27278795772E+02  0.00000000000E+00 0. -1.
        -12    1    6    6    0    0 -0.21329052086E+02  0.14018633463E+03  0.81395195124E+02  0.16350019777E+03  0.00000000000E+00 0.  1.
</event>
<event>
12    1  0.8449700E-002  0.2457263E+03  0.7818608E-02  0.1116080E+00
         21   -1    0    0  503  502  0.00000000000E+00  0.00000000000E+00  0.34533496255E+03  0.34533496255E+03  0.00000000000E+00 0.  1.
         21   -1    0    0  501  503 -0.00000000000E+00 -0.00000000000E+00 -0.52169256100E+03  0.52169256100E+03  0.00000000000E+00 0.  1.
          6    2    1    2  501    0  0.17382348038E+03 -0.19556735665E+02 -0.44173885965E+03  0.50535274385E+03  0.17219496900E+03 0.  0.
         24    2    3    3    0    0  0.11225982211E+03  0.54456749950E+02 -0.24601747298E+03  0.28718530523E+03  0.79893662165E+02 0.  0.
         -6    2    1    2    0  502 -0.17382348038E+03  0.19556735665E+02  0.26538126120E+03  0.36167477971E+03  0.17258147131E+03 0.  0.
        -24    2    5    5    0    0 -0.42708550324E+02 -0.34706360534E+02  0.15319707343E+03  0.18072453661E+03  0.78507726323E+02 0.  0.
          5    1    3    3  501    0  0.61563658272E+02 -0.74013485615E+02 -0.19572138667E+03  0.21816743861E+03  0.47000000000E+01 0. -1.
        -11    1    4    4    0    0  0.42867851048E+02  0.52541044557E+02 -0.17589699190E+03  0.18851516060E+03  0.00000000000E+00 0.  1.
         12    1    4    4    0    0  0.69391971061E+02  0.19157053927E+01 -0.70120481089E+02  0.98670144639E+02  0.00000000000E+00 0. -1.
         -5    1    5    5    0  502 -0.13111493006E+03  0.54263096199E+02  0.11218418777E+03  0.18095024310E+03  0.47000000000E+01 0.  1.
         11    1    6    6    0    0 -0.60840741855E+01  0.85153894134E+01  0.10731193967E+03  0.10782105644E+03  0.00000000000E+00 0. -1.
        -12    1    6    6    0    0 -0.36624476138E+02 -0.43221749947E+02  0.45885133762E+02  0.72903480172E+02  0.00000000000E+00 0.  1.
</event>
<event>
12    1  0.8449700E-002  0.2032563E+03  0.7818608E-02  0.1147222E+00
         21   -1    0    0  503  502  0.00000000000E+00  0.00000000000E+00  0.25001899069E+03  0.25001899069E+03  0.00000000000E+00 0.  1.
         21   -1    0    0  501  503 -0.00000000000E+00 -0.00000000000E+00 -0.18233998120E+03  0.18233998120E+03  0.00000000000E+00 0. -1.
          6    2    1    2  501    0  0.60655043003E+02  0.88926665101E+02 -0.33949329952E+02  0.20511142985E+03  0.17126341011E+03 0.  0.
         24    2    3    3    0    0  0.31970860455E+02  0.61590621575E+02  0.46868587560E+02  0.11498004023E+03  0.78792160566E+02 0.  0.
         -6    2    1    2    0  502 -0.60655043003E+02 -0.88926665101E+02  0.10162833944E+03  0.22724754204E+03  0.17241270249E+03 0.  0.
        -24    2    5    5    0    0  0.20596613739E+02 -0.66238251877E+02  0.15992180029E+02  0.10694692851E+03  0.79813339656E+02 0.  0.
          5    1    3    3  501    0  0.28684182549E+02  0.27336043526E+02 -0.80817917512E+02  0.90131389622E+02  0.47000000000E+01 0. -1.
        -13    1    4    4    0    0  0.32853337841E+02  0.56610817360E+01 -0.10404304333E+02  0.34923333209E+02  0.00000000000E+00 0.  1.
         14    1    4    4    0    0 -0.88247738692E+00  0.55929539839E+02  0.57272891892E+02  0.80056707018E+02  0.00000000000E+00 0. -1.
         -5    1    5    5    0  502 -0.81251656742E+02 -0.22688413224E+02  0.85636159408E+02  0.12030061353E+03  0.47000000000E+01 0.  1.
         11    1    6    6    0    0  0.31105045976E+02  0.19848914172E+01  0.21244129762E+02  0.37719712730E+02  0.00000000000E+00 0. -1.
        -12    1    6    6    0    0 -0.10508432237E+02 -0.68223143294E+02 -0.52519497330E+01  0.69227215783E+02  0.00000000000E+00 0.  1.
</event>
<event>
12    1  0.8449700E-002  0.2205475E+03  0.7818608E-02  0.1133606E+00
         21   -1    0    0  503  502  0.00000000000E+00  0.00000000000E+00  0.10497995344E+03  0.10497995344E+03  0.00000000000E+00 0. -1.
         21   -1    0    0  501  503 -0.00000000000E+00 -0.00000000000E+00 -0.11469888301E+04  0.11469888301E+04  0.00000000000E+00 0. -1.
          6    2    1    2  501    0  0.11624738927E+03  0.70079394198E+02 -0.10044727958E+04  0.10282498384E+04  0.17293801149E+03 0.  0.
         24    2    3    3    0    0  0.41475609535E+02  0.10438387351E+03 -0.53428187085E+03  0.55089335507E+03  0.73553734809E+02 0.  0.
         -6    2    1    2    0  502 -0.11624738927E+03 -0.70079394198E+02 -0.37536080934E+02  0.22371894513E+03  0.17382931869E+03 0.  0.
        -24    2    5    5    0    0 -0.11984447541E+03 -0.69094618181E+02 -0.80295954724E+02  0.18054018162E+03  0.83729040873E+02 0.  0.
          5    1    3    3  501    0  0.74771779732E+02 -0.34304479314E+02 -0.47019092490E+03  0.47735648336E+03  0.47000000000E+01 0. -1.
        -13    1    4    4    0    0 -0.17617375096E+02  0.34299738939E+02 -0.22615700685E+03  0.22942065239E+03  0.00000000000E+00 0.  1.
         14    1    4    4    0    0  0.59092984631E+02  0.70084134573E+02 -0.30812486401E+03  0.32147270268E+03  0.00000000000E+00 0. -1.
         -5    1    5    5    0  502  0.35970861398E+01 -0.98477601668E+00  0.42759873790E+02  0.43178763519E+02  0.47000000000E+01 0.  1.
         11    1    6    6    0    0 -0.32266269428E+02 -0.65025971582E+02 -0.48393929243E+02  0.87243690377E+02  0.00000000000E+00 0. -1.
        -12    1    6    6    0    0 -0.87578205979E+02 -0.40686465989E+01 -0.31902025481E+02  0.93296491239E+02  0.00000000000E+00 0.  1.
</event>
<event>
12    1  0.8449700E-002  0.1742966E+03  0.7818608E-02  0.1173457E+00
         21   -1    0    0  501  502  0.00000000000E+00  0.00000000000E+00  0.36898741271E+03  0.36898741271E+03  0.00000000000E+00 0. -1.
         21   -1    0    0  502  503 -0.00000000000E+00 -0.00000000000E+00 -0.12872579825E+03  0.12872579825E+03  0.00000000000E+00 0. -1.
         -6    2    1    2    0  503  0.78443458163E+00  0.25821282981E+02 -0.29334528740E+02  0.17668146804E+03  0.17230343171E+03 0.  0.
        -24    2    3    3    0    0  0.67041883299E+02  0.24984939204E+02 -0.20907214878E+02  0.10971984768E+03  0.80513800299E+02 0.  0.
          6    2    1    2  501    0 -0.78443458163E+00 -0.25821282981E+02  0.26959614320E+03  0.32103174293E+03  0.17237153346E+03 0.  0.
         24    2    5    5    0    0 -0.39797444027E+02  0.29168897133E+01  0.67973514328E+02  0.11361508027E+03  0.81826908885E+02 0.  0.
          5    1    5    5  501    0  0.39013009446E+02 -0.28738172694E+02  0.20162262887E+03  0.20741666266E+03  0.47000000000E+01 0. -1.
        -13    1    6    6    0    0 -0.13738480171E+02  0.22929726452E+02 -0.10361388578E+02  0.28668389663E+02  0.00000000000E+00 0.  1.
         14    1    6    6    0    0 -0.26058963856E+02 -0.20012836739E+02  0.78334902906E+02  0.84946690606E+02  0.00000000000E+00 0. -1.
         -5    1    3    3    0  503 -0.66257448717E+02  0.83634377715E+00 -0.84273138615E+01  0.66961620354E+02  0.47000000000E+01 0.  1.
         13    1    4    4    0    0  0.13745131605E+02  0.37459197079E+02  0.16756052000E+02  0.43276845625E+02  0.00000000000E+00 0. -1.
        -14    1    4    4    0    0  0.53296751694E+02 -0.12474257875E+02 -0.37663266878E+02  0.66443002059E+02  0.00000000000E+00 0.  1.
</event>
<event>
12    1  0.8449700E-002  0.2052899E+03  0.7818608E-02  0.1146413E+00
         21   -1    0    0  501  502  0.00000000000E+00  0.00000000000E+00  0.50502640217E+02  0.50502640217E+02  0.00000000000E+00 0.  1.
         21   -1    0    0  502  503 -0.00000000000E+00 -0.00000000000E+00 -0.94849008607E+03  0.94849008607E+03  0.00000000000E+00 0. -1.
         -6    2    1    2    0  503  0.96673482005E+02 -0.33978545153E+02 -0.63236898871E+03  0.66328881267E+03  0.17193372993E+03 0.  0.
        -24    2    3    3    0    0  0.39507956816E+02 -0.35319873015E+01 -0.56617086115E+03  0.57055709077E+03  0.58417430856E+02 0.  0.
          6    2    1    2  501    0 -0.96673482005E+02  0.33978545153E+02 -0.26561845715E+03  0.33570391361E+03  0.17788661890E+03 0.  0.
         24    2    5    5    0    0 -0.56699303016E+02  0.49017425023E+02 -0.27245175154E+03  0.29219659462E+03  0.74373208029E+02 0.  0.
          5    1    5    5  501    0 -0.39974178989E+02 -0.15038879870E+02  0.68332943935E+01  0.43507318992E+02  0.47000000000E+01 0. -1.
        -11    1    6    6    0    0  0.10986516085E+02  0.29524072794E+02 -0.52334652262E+02  0.61084287975E+02  0.00000000000E+00 0.  1.
         12    1    6    6    0    0 -0.67685819102E+02  0.19493352228E+02 -0.22011709928E+03  0.23111230665E+03  0.00000000000E+00 0. -1.
         -5    1    3    3    0  503  0.57165525189E+02 -0.30446557851E+02 -0.66198127559E+02  0.92731721905E+02  0.47000000000E+01 0.  1.
         11    1    4    4    0    0  0.30050338537E+02  0.25900559441E+02 -0.32565105345E+03  0.32805863872E+03  0.00000000000E+00 0. -1.
        -12    1    4    4    0    0  0.94576182791E+01 -0.29432546743E+02 -0.24051980770E+03  0.24249845205E+03  0.00000000000E+00 0.  1.
</event>
<event>
12    1  0.8449700E-002  0.2275406E+03  0.7818608E-02  0.1129084E+00
         21   -1    0    0  503  502  0.00000000000E+00  0.00000000000E+00  0.68278380186E+02  0.68278380186E+02  0.00000000000E+00 0.  1.
         21   -1    0    0  501  503 -0.00000000000E+00 -0.00000000000E+00 -0.85139680528E+03  0.85139680528E+03  0.00000000000E+00 0.  1.
          6    2    1    2  501    0  0.74102283968E+02 -0.12340972918E+03 -0.55087057597E+03  0.59453862815E+03  0.17116272711E+03 0.  0.
         24    2    3    3    0    0 -0.68939418310E+01 -0.28115700574E+01 -0.20220019194E+03  0.21678549279E+03  0.77817741574E+02 0.  0.
         -6    2    1    2    0  502 -0.74102283968E+02  0.12340972918E+03 -0.23224784913E+03  0.32513655731E+03  0.17622033859E+03 0.  0.
        -24    2    5    5    0    0  0.27147534941E+02  0.32870922866E+02 -0.10304605672E+03  0.13761590661E+03  0.80635982812E+02 0.  0.
          5    1    3    3  501    0  0.80996225799E+02 -0.12059815912E+03 -0.34867038403E+03  0.37775313536E+03  0.47000000000E+01 0. -1.
        -13    1    4    4    0    0  0.50865192157E+01 -0.24520005391E+02 -0.17794864839E+02  0.30720686137E+02  0.00000000000E+00 0.  1.
         14    1    4    4    0    0 -0.11980461047E+02  0.21708435334E+02 -0.18440532710E+03  0.18606480665E+03  0.00000000000E+00 0. -1.
         -5    1    5    5    0  502 -0.10124981891E+03  0.90538806314E+02 -0.12920179241E+03  0.18752065070E+03  0.47000000000E+01 0.  1.
         11    1    6    6    0    0  0.17063089579E+02  0.56731583237E+02 -0.92068612759E+02  0.10948173829E+03  0.00000000000E+00 0. -1.
        -12    1    6    6    0    0  0.10084445361E+02 -0.23860660371E+02 -0.10977443960E+02  0.28134168327E+02  0.00000000000E+00 0.  1.
</event>
<event>
12    1  0.8449700E-002  0.1780981E+03  0.7818608E-02  0.1169793E+00
         21   -1    0    0  503  502  0.00000000000E+00  0.00000000000E+00  0.13690940253E+03  0.13690940253E+03  0.00000000000E+00 0. -1.
         21   -1    0    0  501  503 -0.00000000000E+00 -0.00000000000E+00 -0.56256833316E+03  0.56256833316E+03  0.00000000000E+00 0. -1.
          6    2    1    2  501    0 -0.46062308590E+02 -0.96837899220E+01 -0.48120921432E+03  0.51291739132E+03  0.17119120981E+03 0.  0.
         24    2    3    3    0    0 -0.59008056206E+02  0.86718995809E+01 -0.14706490717E+03  0.17798600772E+03  0.80583990256E+02 0.  0.
         -6    2    1    2    0  502  0.46062308590E+02  0.96837899220E+01  0.55550283684E+02  0.18656034438E+03  0.17176558450E+03 0.  0.
        -24    2    5    5    0    0  0.67180698426E+02 -0.35805407589E+02 -0.45141225808E+01  0.10816980682E+03  0.76714120931E+02 0.  0.
          5    1    3    3  501    0  0.12945747617E+02 -0.18355689503E+02 -0.33414430715E+03  0.33493138360E+03  0.47000000000E+01 0. -1.
        -11    1    4    4    0    0  0.49216770289E+01  0.28457122599E+02 -0.22602105056E+02  0.36672685808E+02  0.00000000000E+00 0.  1.
         12    1    4    4    0    0 -0.63929733235E+02 -0.19785223018E+02 -0.12446280211E+03  0.14131332192E+03  0.00000000000E+00 0. -1.
         -5    1    5    5    0  502 -0.21118389836E+02  0.45489197511E+02  0.60064406265E+02  0.78390537563E+02  0.47000000000E+01 0.  1.
         13    1    6    6    0    0  0.41175288403E+02 -0.13480726248E+01 -0.36022230655E+02  0.54724973972E+02  0.00000000000E+00 0. -1.
        -14    1    6    6    0    0  0.26005410023E+02 -0.34457334964E+02  0.31508108074E+02  0.53444832844E+02  0.00000000000E+00 0.  1.
</event>
<event>
12    1  0.8449700E-002  0.2147323E+03  0.7818608E-02  0.1138079E+00
         21   -1    0    0  503  502  0.00000000000E+00  0.00000000000E+00  0.13717876538E+04  0.13717876538E+04  0.00000000000E+00 0. -1.
         21   -1    0    0  501  503 -0.00000000000E+00 -0.00000000000E+00 -0.37025314667E+02  0.37025314667E+02  0.00000000000E+00 0.  1.
          6    2    1    2  501    0  0.12615910997E+03 -0.17470555852E+02  0.88790176655E+03  0.91349849350E+03  0.17288322422E+03 0.  0.
         24    2    3    3    0    0  0.10756463760E+03 -0.32911088263E+02  0.37696069680E+03  0.40196449541E+03  0.82600227837E+02 0.  0.
         -6    2    1    2    0  502 -0.12615910997E+03  0.17470555852E+02  0.44686057262E+03  0.49531447502E+03  0.17155382958E+03 0.  0.
        -24    2    5    5    0    0  0.51531222030E+01 -0.19772879815E+01  0.17967280777E+03  0.19693131089E+03  0.80431082420E+02 0.  0.
          5    1    3    3  501    0  0.18594472371E+02  0.15440532411E+02  0.51094106975E+03  0.51153399809E+03  0.47000000000E+01 0. -1.
        -11    1    4    4    0    0  0.88225915104E+02 -0.28071044541E+02  0.36910140458E+03  0.38053599370E+03  0.00000000000E+00 0.  1.
         12    1    4    4    0    0  0.19338722498E+02 -0.48400437222E+01  0.78592922220E+01  0.21428501705E+02  0.00000000000E+00 0. -1.
         -5    1    5    5    0  502 -0.13131223218E+03  0.19447843834E+02  0.26718776485E+03  0.29838316413E+03  0.47000000000E+01 0.  1.
         11    1    6    6    0    0 -0.28344490126E+02 -0.26171517858E+02  0.73688424648E+02  0.83176573593E+02  0.00000000000E+00 0. -1.
        -12    1    6    6    0    0  0.33497612329E+02  0.24194229877E+02  0.10598438312E+03  0.11375473729E+03  0.00000000000E+00 0.  1.
</event>
<event>
12    1  0.8449700E-002  0.1848563E+03  0.7818608E-02  0.1163321E+00
         21   -1    0    0  501  502  0.00000000000E+00  0.00000000000E+00  0.25626425942E+03  0.25626425942E+03  0.00000000000E+00 0.  1.
         21   -1    0    0  502  503 -0.00000000000E+00 -0.00000000000E+00 -0.18337865938E+03  0.18337865938E+03  0.00000000000E+00 0.  1.
         -6    2    1    2    0  503  0.63863400022E+02 -0.15497708426E+02 -0.78902999117E+02  0.20045335312E+03  0.17215443845E+03 0.  0.
        -24    2    3    3    0    0 -0.24148507770E+02  0.12660909086E+02 -0.12650824191E+02  0.86653334066E+02  0.81273045382E+02 0.  0.
          6    2    1    2  501    0 -0.63863400022E+02  0.15497708426E+02  0.15178859916E+03  0.23918956568E+03  0.17278066057E+03 0.  0.
         24    2    5    5    0    0  0.95376510531E+01 -0.37910417673E+02  0.10197229535E+03  0.13553679747E+03  0.80272709518E+02 0.  0.
          5    1    5    5  501    0 -0.73401051075E+02  0.53408126099E+02  0.49816303806E+02  0.10365276821E+03  0.47000000000E+01 0. -1.
        -11    1    6    6    0    0 -0.13769673434E+02  0.71014098842E+01  0.77894870469E+02  0.79420682282E+02  0.00000000000E+00 0.  1.
         12    1    6    6    0    0  0.23307324488E+02 -0.45011827558E+02  0.24077424885E+02  0.56116115189E+02  0.00000000000E+00 0. -1.
         -5    1    3    3    0  503  0.88011907792E+02 -0.28158617511E+02 -0.66252174926E+02  0.11380001905E+03  0.47000000000E+01 0.  1.
         11    1    4    4    0    0 -0.52866162788E+02  0.20380987304E-01 -0.15649536154E+02  0.55133833217E+02  0.00000000000E+00 0. -1.
        -12    1    4    4    0    0  0.28717655018E+02  0.12640528098E+02  0.29987119627E+01  0.31519500849E+02  0.00000000000E+00 0.  1.
</event>
<event>
12    1  0.8449700E-002  0.2074750E+03  0.7818608E-02  0.1143774E+00
         21   -1    0    0  503  502  0.00000000000E+00  0.00000000000E+00  0.90577801097E+03  0.90577801097E+03  0.00000000000E+00 0. -1.
         21   -1    0    0  501  503 -0.00000000000E+00 -0.00000000000E+00 -0.50315164805E+02  0.50315164805E+02  0.00000000000E+00 0. -1.
          6    2    1    2  501    0 -0.93368923678E+02 -0.66350316056E+02  0.31173967581E+03  0.37446962915E+03  0.17299062787E+03 0.  0.
         24    2    3    3    0    0 -0.66797717019E+02  0.21721817639E+02  0.10388876683E+03  0.14712227350E+03  0.76930586411E+02 0.  0.
         -6    2    1    2    0  502  0.93368923678E+02  0.66350316056E+02  0.54372317035E+03  0.58162354662E+03  0.17184569724E+03 0.  0.
        -24    2    5    5    0    0  0.74841090723E+02  0.11214949502E+03  0.39014516613E+03  0.42022609073E+03  0.78727495707E+02 0.  0.
          5    1    3    3  501    0 -0.26571206658E+02 -0.88072133695E+02  0.20785090899E+03  0.22734735566E+03  0.47000000000E+01 0. -1.
        -13    1    4    4    0    0 -0.68479794721E+02 -0.12133042341E+02  0.77766518779E+02  0.10432796578E+03  0.00000000000E+00 0.  1.
         14    1    4    4    0    0  0.16820777019E+01  0.33854859979E+02  0.26122248049E+02  0.42794307714E+02  0.00000000000E+00 0. -1.
         -5    1    5    5    0  502  0.18527832955E+02 -0.45799178968E+02  0.15357800421E+03  0.16139745589E+03  0.47000000000E+01 0.  1.
         11    1    6    6    0    0 -0.12212833726E+02  0.22408401940E+02  0.32282711169E+02  0.41151709874E+02  0.00000000000E+00 0. -1.
        -12    1    6    6    0    0  0.87053924449E+02  0.89741093084E+02  0.35786245496E+03  0.37907438086E+03  0.00000000000E+00 0.  1.
</event>
<event>
12    1  0.8449700E-002  0.1871441E+03  0.7818608E-02  0.1161899E+00
         21   -1    0    0  501  502  0.00000000000E+00  0.00000000000E+00  0.54480186148E+03  0.54480186148E+03  0.00000000000E+00 0.  1.
         21   -1    0    0  502  503 -0.00000000000E+00 -0.00000000000E+00 -0.10631737489E+03  0.10631737489E+03  0.00000000000E+00 0.  1.
         -6    2    1    2    0  503 -0.63395550803E+02  0.33657173206E+02  0.12836733832E+02  0.18758388144E+03  0.17283266378E+03 0.  0.
        -24    2    3    3    0    0 -0.93092941833E+02 -0.17122842358E+02  0.26595218158E+02  0.12698742193E+03  0.80367979624E+02 0.  0.
          6    2    1    2  501    0  0.63395550803E+02 -0.33657173206E+02  0.42564775276E+03  0.46353535493E+03  0.16892961456E+03 0.  0.
         24    2    5    5    0    0  0.18897252624E+02 -0.32264378578E+02  0.67050397139E+02  0.10215440375E+03  0.67391914710E+02 0.  0.
          5    1    5    5  501    0  0.44498298179E+02 -0.13927946279E+01  0.35859735562E+03  0.36138095118E+03  0.47000000000E+01 0. -1.
        -11    1    6    6    0    0  0.18655552513E+02 -0.14583421027E+02  0.77892709764E+02  0.81412407180E+02  0.00000000000E+00 0.  1.
         12    1    6    6    0    0  0.24170011157E+00 -0.17680957551E+02 -0.10842312625E+02  0.20741996575E+02  0.00000000000E+00 0. -1.
         -5    1    3    3    0  503  0.29697391030E+02  0.50780015564E+02 -0.13758484326E+02  0.60596459514E+02  0.47000000000E+01 0.  1.
         11    1    4    4    0    0 -0.70906059398E+02  0.25795512778E+02  0.11195778598E+02  0.76278589376E+02  0.00000000000E+00 0. -1.
        -12    1    4    4    0    0 -0.22186882435E+02 -0.42918355135E+02  0.15399439561E+02  0.50708832549E+02  0.00000000000E+00 0.  1.
</event>
<event>
12    1  0.8449700E-002  0.2188422E+03  0.7818608E-02  0.1134880E+00
         21   -1    0    0  503  502  0.00000000000E+00  0.00000000000E+00  0.60890890843E+02  0.60890890843E+02  0.00000000000E+00 0.  1.
         21   -1    0    0  501  503 -0.00000000000E+00 -0.00000000000E+00 -0.96020947000E+03  0.96020947000E+03  0.00000000000E+00 0. -1.
          6    2    1    2  501    0 -0.64973824393E+01  0.13463443189E+03 -0.66894524789E+03  0.70383212244E+03  0.17240436677E+03 0.  0.
         24    2    3    3    0    0 -0.26691298488E+02  0.14528387756E+03 -0.40092650726E+03  0.43480175192E+03  0.80564686758E+02 0.  0.
         -6    2    1    2    0  502  0.64973824393E+01 -0.13463443189E+03 -0.23037333127E+03  0.31726823840E+03  0.17151856199E+03 0.  0.
        -24    2    5    5    0    0  0.83901520083E+01 -0.94281472257E+02 -0.24417034211E+03  0.27432185978E+03  0.81694162135E+02 0.  0.
          5    1    3    3  501    0  0.20193916049E+02 -0.10649445666E+02 -0.26801874063E+03  0.26903037053E+03  0.47000000000E+01 0. -1.
        -11    1    4    4    0    0  0.26782254820E+02  0.40309012103E+02 -0.14960659486E+03  0.15723943161E+03  0.00000000000E+00 0.  1.
         12    1    4    4    0    0 -0.53473553308E+02  0.10497486546E+03 -0.25131991240E+03  0.27756232030E+03  0.00000000000E+00 0. -1.
         -5    1    5    5    0  502 -0.18927695690E+01 -0.40352959635E+02  0.13797010842E+02  0.42946378615E+02  0.47000000000E+01 0.  1.
         11    1    6    6    0    0  0.34992256616E+02 -0.60973345826E+02 -0.20390610181E+03  0.21568473585E+03  0.00000000000E+00 0. -1.
        -12    1    6    6    0    0 -0.26602104607E+02 -0.33308126431E+02 -0.40264240298E+02  0.58637123929E+02  0.00000000000E+00 0.  1.
</event>
<event>
12    1  0.8449700E-002  0.2087460E+03  0.7818608E-02  0.1142720E+00
         21   -1    0    0  501  502  0.00000000000E+00  0.00000000000E+00  0.21370728382E+03  0.21370728382E+03  0.00000000000E+00 0.  1.
         21   -1    0    0  502  503 -0.00000000000E+00 -0.00000000000E+00 -0.33415493893E+03  0.33415493893E+03  0.00000000000E+00 0.  1.
         -6    2    1    2    0  503  0.86680509367E+02  0.79511295768E+02 -0.23182115947E+03  0.31195503726E+03  0.17245097401E+03 0.  0.
        -24    2    3    3    0    0  0.59211874871E+02  0.28660635921E+01 -0.46239443021E+02  0.10924420633E+03  0.79258753967E+02 0.  0.
          6    2    1    2  501    0 -0.86680509367E+02 -0.79511295768E+02  0.11137350435E+03  0.23590718549E+03  0.17150097910E+03 0.  0.
         24    2    5    5    0    0 -0.76484741524E+02 -0.10299831298E+03  0.13356242047E+03  0.20170145997E+03  0.79912393469E+02 0.  0.
          5    1    5    5  501    0 -0.10195767843E+02  0.23487017213E+02 -0.22188916118E+02  0.34205725514E+02  0.47000000000E+01 0. -1.
        -13    1    6    6    0    0 -0.75106516193E+02 -0.10700734440E+03  0.91851478648E+02  0.15977563850E+03  0.00000000000E+00 0.  1.
         14    1    6    6    0    0 -0.13782253311E+01  0.40090314176E+01  0.41710941822E+02  0.41925821466E+02  0.00000000000E+00 0. -1.
         -5    1    3    3    0  503  0.27468634497E+02  0.76645232176E+02 -0.18558171645E+03  0.20271083093E+03  0.47000000000E+01 0.  1.
         11    1    4    4    0    0  0.24555091049E+02 -0.26135096619E+02 -0.52545334803E+02  0.63616098444E+02  0.00000000000E+00 0. -1.
        -12    1    4    4    0    0  0.34656783822E+02  0.29001160211E+02  0.63058917824E+01  0.45628107890E+02  0.00000000000E+00 0.  1.
</event>
<event>
12    1  0.8449700E-002  0.2637745E+03  0.7818608E-02  0.1106445E+00
         21   -1    0    0  503  502  0.00000000000E+00  0.00000000000E+00  0.26828059898E+03  0.26828059898E+03  0.00000000000E+00 0. -1.
         21   -1    0    0  501  503 -0.00000000000E+00 -0.00000000000E+00 -0.25985652003E+03  0.25985652003E+03  0.00000000000E+00 0.  1.
          6    2    1    2  501    0  0.12985310305E+03 -0.14752518537E+03 -0.48837276481E+02  0.26825741654E+03  0.17593025113E+03 0.  0.
         24    2    3    3    0    0  0.43044661973E+02 -0.68859425184E+02 -0.89054659251E+02  0.14430768824E+03  0.79369472661E+02 0.  0.
         -6    2    1    2    0  502 -0.12985310305E+03  0.14752518537E+03  0.57261355428E+02  0.25987970248E+03  0.16010336737E+03 0.  0.
        -24    2    5    5    0    0 -0.71010014536E+02  0.15844122377E+03  0.45639400869E+02  0.19873373950E+03  0.85241426257E+02 0.  0.
          5    1    3    3  501    0  0.86808441077E+02 -0.78665760184E+02  0.40217382770E+02  0.12394972830E+03  0.47000000000E+01 0. -1.
        -11    1    4    4    0    0  0.49032647466E+02 -0.18357204293E+02 -0.14982808501E+02  0.54457983965E+02  0.00000000000E+00 0.  1.
         12    1    4    4    0    0 -0.59879854926E+01 -0.50502220891E+02 -0.74071850750E+02  0.89849704277E+02  0.00000000000E+00 0. -1.
         -5    1    5    5    0  502 -0.58843088514E+02 -0.10916038403E+02  0.11621954558E+02  0.61145962975E+02  0.47000000000E+01 0.  1.
         13    1    6    6    0    0 -0.60341531638E+01  0.43590315864E+02  0.50124482908E+02  0.66700752832E+02  0.00000000000E+00 0. -1.
        -14    1    6    6    0    0 -0.64975861372E+02  0.11485090791E+03 -0.44850820392E+01  0.13203298667E+03  0.00000000000E+00 0.  1.
</event>
<event>
12    1  0.8449700E-002  0.2464876E+03  0.7818608E-02  0.1115647E+00
         21   -1    0    0  501  502  0.00000000000E+00  0.00000000000E+00  0.27809786476E+03  0.27809786476E+03  0.00000000000E+00 0. -1.
         21   -1    0    0  502  503 -0.00000000000E+00 -0.00000000000E+00 -0.22847342310E+03  0.22847342310E+03  0.00000000000E+00 0.  1.
         -6    2    1    2    0  503 -0.17541371289E+03  0.13622278385E+02  0.79250759853E+02  0.25830963283E+03  0.17171967372E+03 0.  0.
        -24    2    3    3    0    0 -0.31976202060E+02 -0.19724808452E+02  0.42013139459E+01  0.92958923604E+02  0.84924465686E+02 0.  0.
          6    2    1    2  501    0  0.17541371289E+03 -0.13622278385E+02 -0.29626318202E+02  0.24826165502E+03  0.17262848400E+03 0.  0.
         24    2    5    5    0    0  0.78279727549E+02  0.93534513001E+01 -0.78269186095E+02  0.13712608980E+03  0.80388408458E+02 0.  0.
          5    1    5    5  501    0  0.97133985336E+02 -0.22975729685E+02  0.48642867893E+02  0.11113556523E+03  0.47000000000E+01 0. -1.
        -11    1    6    6    0    0  0.40823289023E+02  0.44724510261E+02 -0.35686513625E+02  0.70287623373E+02  0.00000000000E+00 0.  1.
         12    1    6    6    0    0  0.37456438525E+02 -0.35371058961E+02 -0.42582672470E+02  0.66838466422E+02  0.00000000000E+00 0. -1.
         -5    1    3    3    0  503 -0.14343751083E+03  0.33347086837E+02  0.75049445908E+02  0.16535070923E+03  0.47000000000E+01 0.  1.
         13    1    4    4    0    0 -0.57676689821E+02 -0.20397340529E+02  0.18013703483E+02  0.63774176298E+02  0.00000000000E+00 0. -1.
        -14    1    4    4    0    0  0.25700487761E+02  0.67253207699E+00 -0.13812389538E+02  0.29184747305E+02  0.00000000000E+00 0.  1.
</event>
<event>
12    1  0.8449700E-002  0.1890631E+03  0.7818608E-02  0.1159424E+00
         21   -1    0    0  503  502  0.00000000000E+00  0.00000000000E+00  0.32446128112E+04  0.32446128112E+04  0.00000000000E+00 0.  1.
         21   -1    0    0  501  503 -0.00000000000E+00 -0.00000000000E+00 -0.59942229056E+02  0.59942229056E+02  0.00000000000E+00 0.  1.
          6    2    1    2  501    0 -0.47682085450E+02 -0.62442897219E+02  0.99536412735E+02  0.21366415558E+03  0.17196562805E+03 0.  0.
         24    2    3    3    0    0  0.37277107248E+02 -0.41178895016E+02  0.41134869891E+02  0.10829313290E+03  0.83366905860E+02 0.  0.
         -6    2    1    2    0  502  0.47682085450E+02  0.62442897219E+02  0.30851341694E+04  0.30908908847E+04  0.17140863763E+03 0.  0.
        -24    2    5    5    0    0  0.59443984162E+02  0.42259345922E+02  0.93370698053E+03  0.93933173907E+03  0.72221540864E+02 0.  0.
          5    1    3    3  501    0 -0.84959192698E+02 -0.21264002203E+02  0.58401542845E+02  0.10537102268E+03  0.47000000000E+01 0. -1.
        -13    1    4    4    0    0  0.27218049466E+02 -0.50564413225E+02 -0.73510358720E+01  0.57893176022E+02  0.00000000000E+00 0.  1.
         14    1    4    4    0    0  0.10059057782E+02  0.93855182095E+01  0.48485905763E+02  0.50399956876E+02  0.00000000000E+00 0. -1.
         -5    1    5    5    0  502 -0.11761898712E+02  0.20183551297E+02  0.21514271889E+04  0.21515591456E+04  0.47000000000E+01 0.  1.
         11    1    6    6    0    0  0.36644355682E+02 -0.11480816671E+02  0.53467930383E+03  0.53605650439E+03  0.00000000000E+00 0. -1.
        -12    1    6    6    0    0  0.22799628480E+02  0.53740162593E+02  0.39902767670E+03  0.40327523468E+03  0.00000000000E+00 0.  1.
</event>
<event>
12    1  0.8449700E-002  0.1777938E+03  0.7818608E-02  0.1170496E+00
         21   -1    0    0  503  502  0.00000000000E+00  0.00000000000E+00  0.12840812338E+03  0.12840812338E+03  0.00000000000E+00 0.  1.
         21   -1    0    0  501  503 -0.00000000000E+00 -0.00000000000E+00 -0.37503890489E+03  0.37503890489E+03  0.00000000000E+00 0.  1.
          6    2    1    2  501    0 -0.26189869407E+02 -0.30525382970E+02 -0.27307672096E+03  0.32585505889E+03  0.17318462868E+03 0.  0.
         24    2    3    3    0    0  0.55887271099E+01  0.86161972728E+01 -0.26184247173E+03  0.27398752708E+03  0.80013825462E+02 0.  0.
         -6    2    1    2    0  502  0.26189869407E+02  0.30525382970E+02  0.26445939452E+02  0.17759196938E+03  0.17094388439E+03 0.  0.
        -24    2    5    5    0    0  0.20540597396E+02  0.21876347978E+02  0.81133791905E+02  0.12173884694E+03  0.85657246762E+02 0.  0.
          5    1    3    3  501    0 -0.31778596516E+02 -0.39141580242E+02 -0.11234249222E+02  0.51867531810E+02  0.47000000000E+01 0. -1.
        -13    1    4    4    0    0  0.22147626649E+02 -0.30217027246E+02 -0.14465733349E+03  0.14943001785E+03  0.00000000000E+00 0.  1.
         14    1    4    4    0    0 -0.16558899539E+02  0.38833224519E+02 -0.11718513824E+03  0.12455750923E+03  0.00000000000E+00 0. -1.
         -5    1    5    5    0  502  0.56492720106E+01  0.86490349918E+01 -0.54687852453E+02  0.55853122441E+02  0.47000000000E+01 0.  1.
         11    1    6    6    0    0 -0.18608606596E+02  0.23735266426E+02 -0.15878369799E+01  0.30202058507E+02  0.00000000000E+00 0. -1.
        -12    1    6    6    0    0  0.39149203992E+02 -0.18589184481E+01  0.82721628885E+02  0.91536788432E+02  0.00000000000E+00 0.  1.
</event>
<event>
12    1  0.8449700E-002  0.2104528E+03  0.7818608E-02  0.1141841E+00
         21   -1    0    0  503  502  0.00000000000E+00  0.00000000000E+00  0.26441218375E+02  0.26441218375E+02  0.00000000000E+00 0.  1.
         21   -1    0    0  501  503 -0.00000000000E+00 -0.00000000000E+00 -0.19875642174E+04  0.19875642174E+04  0.00000000000E+00 0. -1.
          6    2    1    2  501    0  0.25169676885E+02 -0.11492746195E+03 -0.14018374509E+04  0.14175466925E+04  0.17449513595E+03 0.  0.
         24    2    3    3    0    0  0.74428128847E+02 -0.32313802855E+02 -0.83991807111E+03  0.84743539533E+03  0.78106688924E+02 0.  0.
         -6    2    1    2    0  502 -0.25169676885E+02  0.11492746195E+03 -0.55928554808E+03  0.59645874325E+03  0.17064839280E+03 0.  0.
        -24    2    5    5    0    0 -0.53719316529E+02  0.93239783629E+01 -0.26805210634E+03  0.28532181961E+03  0.81141281026E+02 0.  0.
          5    1    3    3  501    0 -0.49258451962E+02 -0.82613659100E+02 -0.56191937983E+03  0.57011129719E+03  0.47000000000E+01 0. -1.
        -13    1    4    4    0    0  0.46174666064E+02  0.17928960985E+02 -0.52105815810E+03  0.52340725210E+03  0.00000000000E+00 0.  1.
         14    1    4    4    0    0  0.28253462783E+02 -0.50242763840E+02 -0.31885991301E+03  0.32402814322E+03  0.00000000000E+00 0. -1.
         -5    1    5    5    0  502  0.28549639644E+02  0.10560348359E+03 -0.29123344174E+03  0.31113692365E+03  0.47000000000E+01 0.  1.
         13    1    6    6    0    0 -0.28654531557E+02  0.40971390191E+02 -0.20037359842E+03  0.20651710809E+03  0.00000000000E+00 0. -1.
        -14    1    6    6    0    0 -0.25064784972E+02 -0.31647411829E+02 -0.67678507927E+02  0.78804711511E+02  0.00000000000E+00 0.  1.
</event>
<event>
12    1  0.8449700E-002  0.3078482E+03  0.7818608E-02  0.1081463E+00
         21   -1    0    0  503  502  0.00000000000E+00  0.00000000000E+00  0.18065952343E+03  0.18065952343E+03  0.00000000000E+00 0. -1.
         21   -1    0    0  501  503 -0.00000000000E+00 -0.00000000000E+00 -0.52720257767E+03  0.52720257767E+03  0.00000000000E+00 0.  1.
          6    2    1    2  501    0 -0.15103421115E+03  0.20472528718E+03 -0.20297962406E+03  0.36818430978E+03  0.17214872068E+03 0.  0.
         24    2    3    3    0    0 -0.31694464261E+02  0.15323813213E+03 -0.10408644895E+03  0.20479871553E+03  0.81376045763E+02 0.  0.
         -6    2    1    2    0  502  0.15103421115E+03 -0.20472528718E+03 -0.14356343018E+03  0.33967779133E+03  0.17334003371E+03 0.  0.
        -24    2    5    5    0    0  0.77394546220E+02 -0.17599510235E+03 -0.44745232328E+02  0.21304702888E+03  0.80141804717E+02 0.  0.
          5    1    3    3  501    0 -0.11933974689E+03  0.51487155047E+02 -0.98893175110E+02  0.16338559424E+03  0.47000000000E+01 0. -1.
        -11    1    4    4    0    0 -0.26485065686E+02  0.70298640191E+02 -0.95129325692E+02  0.12121446334E+03  0.00000000000E+00 0.  1.
         12    1    4    4    0    0 -0.52093985750E+01  0.82939491941E+02 -0.89571232621E+01  0.83584252189E+02  0.00000000000E+00 0. -1.
         -5    1    5    5    0  502  0.73639664930E+02 -0.28730184832E+02 -0.98818197853E+02  0.12663076245E+03  0.47000000000E+01 0.  1.
         11    1    6    6    0    0  0.38415763849E+02 -0.12630171319E+03 -0.64423656717E+02  0.14689554524E+03  0.00000000000E+00 0. -1.
        -12    1    6    6    0    0  0.38978782372E+02 -0.49693389155E+02  0.19678424389E+02  0.66151483637E+02  0.00000000000E+00 0.  1.
</event>
<event>
12    1  0.8449700E-002  0.2151756E+03  0.7818608E-02  0.1137576E+00
         21   -1    0    0  503  502  0.00000000000E+00  0.00000000000E+00  0.38097335104E+02  0.38097335104E+02  0.00000000000E+00 0. -1.
         21   -1    0    0  501  503 -0.00000000000E+00 -0.00000000000E+00 -0.12781865347E+04  0.12781865347E+04  0.00000000000E+00 0.  1.
          6    2    1    2  501    0 -0.86424980553E+01 -0.12889337291E+03 -0.47225513547E+03  0.51886950446E+03  0.17179189539E+03 0.  0.
         24    2    3    3    0    0 -0.34468587528E+02 -0.14726176633E+03 -0.44787601801E+03  0.47861014352E+03  0.74837361184E+02 0.  0.
         -6    2    1    2    0  502  0.86424980553E+01  0.12889337291E+03 -0.76783406416E+03  0.79741436539E+03  0.17208232241E+03 0.  0.
        -24    2    5    5    0    0  0.19237298298E+02  0.15255671809E+03 -0.73760939635E+03  0.75731668164E+03  0.76271284450E+02 0.  0.
          5    1    3    3  501    0  0.25826089472E+02  0.18368393420E+02 -0.24379117469E+02  0.40259360935E+02  0.47000000000E+01 0. -1.
        -11    1    4    4    0    0 -0.48380655979E+02 -0.10643582702E+03 -0.24860536673E+03  0.27472513811E+03  0.00000000000E+00 0.  1.
         12    1    4    4    0    0  0.13912068451E+02 -0.40825939308E+02 -0.19927065128E+03  0.20388500541E+03  0.00000000000E+00 0. -1.
         -5    1    5    5    0  502 -0.10594800243E+02 -0.23663345181E+02 -0.30224667812E+02  0.40097683745E+02  0.47000000000E+01 0.  1.
         13    1    6    6    0    0  0.36611999779E+02  0.92888247028E+02 -0.32311523358E+03  0.33818947224E+03  0.00000000000E+00 0. -1.
        -14    1    6    6    0    0 -0.17374701481E+02  0.59668471061E+02 -0.41449416277E+03  0.41912720940E+03  0.00000000000E+00 0.  1.
</event>
<event>
12    1  0.8449700E-002  0.2390252E+03  0.7818608E-02  0.1120642E+00
         21   -1    0    0  503  502  0.00000000000E+00  0.00000000000E+00  0.12811592151E+03  0.12811592151E+03  0.00000000000E+00 0. -1.
         21   -1    0    0  501  503 -0.00000000000E+00 -0.00000000000E+00 -0.49846614674E+03  0.49846614674E+03  0.00000000000E+00 0.  1.
          6    2    1    2  501    0  0.24381351080E+02  0.16202045971E+03 -0.28856394703E+03  0.37395185600E+03  0.17241159891E+03 0.  0.
         24    2    3    3    0    0  0.12684101000E+02  0.18486221054E+03 -0.21081327904E+03  0.29194071278E+03  0.80325698588E+02 0.  0.
         -6    2    1    2    0  502 -0.24381351080E+02 -0.16202045971E+03 -0.81786278200E+02  0.25263021224E+03  0.17403433337E+03 0.  0.
        -24    2    5    5    0    0 -0.27076180096E+02 -0.89866635680E+02  0.21154684104E+02  0.12680347365E+03  0.82598235653E+02 0.  0.
          5    1    3    3  501    0  0.11697250080E+02 -0.22841750832E+02 -0.77750667984E+02  0.82011143222E+02  0.47000000000E+01 0. -1.
        -13    1    4    4    0    0  0.43979034387E+02  0.68193311330E+02 -0.86739894289E+02  0.11877833320E+03  0.00000000000E+00 0.  1.
         14    1    4    4    0    0 -0.31294933387E+02  0.11666889921E+03 -0.12407338476E+03  0.17316237958E+03  0.00000000000E+00 0. -1.
         -5    1    5    5    0  502  0.26948290152E+01 -0.72153824026E+02 -0.10294096230E+03  0.12582673859E+03  0.47000000000E+01 0.  1.
         13    1    6    6    0    0  0.10792373357E+02 -0.31251894297E+02  0.42483753333E+02  0.53833312336E+02  0.00000000000E+00 0. -1.
        -14    1    6    6    0    0 -0.37868553452E+02 -0.58614741383E+02 -0.21329069229E+02  0.72970161313E+02  0.00000000000E+00 0.  1.
</event>
<event>
12    1  0.8449700E-002  0.2352764E+03  0.7818608E-02  0.1123107E+00
         21   -1    0    0  503  502  0.00000000000E+00  0.00000000000E+00  0.40028811466E+02  0.40028811466E+02  0.00000000000E+00 0.  1.
         21   -1    0    0  501  503 -0.00000000000E+00 -0.00000000000E+00 -0.13848850878E+04  0.13848850878E+04  0.00000000000E+00 0. -1.
          6    2    1    2  501    0  0.52587815714E+02  0.15129186848E+03 -0.62303319323E+03  0.66571463315E+03  0.17132105854E+03 0.  0.
         24    2    3    3    0    0  0.43400182557E+02  0.98516879390E+02 -0.21714306975E+03  0.25627783166E+03  0.83295035212E+02 0.  0.
         -6    2    1    2    0  502 -0.52587815714E+02 -0.15129186848E+03 -0.72182308309E+03  0.75919926609E+03  0.17233761786E+03 0.  0.
        -24    2    5    5    0    0 -0.95736743629E+02 -0.71362680667E+02 -0.41362303524E+03  0.43785853644E+03  0.79861920682E+02 0.  0.
          5    1    3    3  501    0  0.91876331561E+01  0.52774989091E+02 -0.40589012348E+03  0.40943680149E+03  0.47000000000E+01 0. -1.
        -11    1    4    4    0    0  0.49081767500E+02  0.10280935646E+03 -0.22066164975E+03  0.24833515125E+03  0.00000000000E+00 0.  1.
         12    1    4    4    0    0 -0.56815849426E+01 -0.42924770667E+01  0.35185800053E+01  0.79426804091E+01  0.00000000000E+00 0. -1.
         -5    1    5    5    0  502  0.43148927916E+02 -0.79929187814E+02 -0.30820004785E+03  0.32134072966E+03  0.47000000000E+01 0.  1.
         13    1    6    6    0    0  0.11670253553E+02 -0.19283699200E+01 -0.74242698216E+02  0.75179064020E+02  0.00000000000E+00 0. -1.
        -14    1    6    6    0    0 -0.10740699718E+03 -0.69434310747E+02 -0.33938033703E+03  0.36267947242E+03  0.00000000000E+00 0.  1.
</event>
<event>
12    1  0.8449700E-002  0.2179700E+03  0.7818608E-02  0.1135802E+00
         21   -1    0    0  503  502  0.00000000000E+00  0.00000000000E+00  0.10169425664E+04  0.10169425664E+04  0.00000000000E+00 0.  1.
         21   -1    0    0  501  503 -0.00000000000E+00 -0.00000000000E+00 -0.47588392332E+02  0.47588392332E+02  0.00000000000E+00 0. -1.
          6    2    1    2  501    0  0.70899269488E+02 -0.10922182835E+03  0.39388133507E+03  0.44916123022E+03  0.17218359509E+03 0.  0.
         24    2    3    3    0    0  0.11131948337E+03 -0.75537797079E+02  0.24031291204E+03  0.28676123575E+03  0.79898213183E+02 0.  0.
         -6    2    1    2    0  502 -0.70899269488E+02  0.10922182835E+03  0.57547283895E+03  0.61536972846E+03  0.17479931389E+03 0.  0.
        -24    2    5    5    0    0 -0.30362422139E+02  0.22097443075E+02  0.11504807422E+03  0.14500077915E+03  0.79868597727E+02 0.  0.
          5    1    3    3  501    0 -0.40420213883E+02 -0.33684031270E+02  0.15356842303E+03  0.16239999447E+03  0.47000000000E+01 0. -1.
        -11    1    4    4    0    0  0.51796546023E+01 -0.33732765574E+02  0.10152489936E+03  0.10710757902E+03  0.00000000000E+00 0.  1.
         12    1    4    4    0    0  0.10613982877E+03 -0.41805031505E+02  0.13878801269E+03  0.17965365673E+03  0.00000000000E+00 0. -1.
         -5    1    5    5    0  502 -0.40536847350E+02  0.87124385274E+02  0.46042476473E+03  0.47036894931E+03  0.47000000000E+01 0.  1.
         11    1    6    6    0    0  0.86432332694E+01  0.35293318878E+02  0.20138972930E+02  0.41543977535E+02  0.00000000000E+00 0. -1.
        -12    1    6    6    0    0 -0.39005655408E+02 -0.13195875803E+02  0.94909101291E+02  0.10345680161E+03  0.00000000000E+00 0.  1.
</event>
<event>
12    1  0.8449700E-002  0.1970219E+03  0.7818608E-02  0.1152762E+00
         21   -1    0    0  501  502  0.00000000000E+00  0.00000000000E+00  0.16694029197E+04  0.16694029197E+04  0.00000000000E+00 0.  1.
         21   -1    0    0  502  503 -0.00000000000E+00 -0.00000000000E+00 -0.30986301300E+02  0.30986301300E+02  0.00000000000E+00 0. -1.
         -6    2    1    2    0  503 -0.59267610391E+02 -0.73462457297E+02  0.39075341484E+03  0.43761381167E+03  0.17293997422E+03 0.  0.
        -24    2    3    3    0    0  0.32242586017E+02 -0.74511436900E+02  0.21666631964E+03  0.24088144748E+03  0.66992828667E+02 0.  0.
          6    2    1    2  501    0  0.59267610391E+02  0.73462457297E+02  0.12476632036E+04  0.12627754093E+04  0.17037864481E+03 0.  0.
         24    2    5    5    0    0 -0.17774500883E+02  0.48080220465E+02  0.91385468799E+03  0.91922052299E+03  0.84901935479E+02 0.  0.
          5    1    5    5  501    0  0.77042111274E+02  0.25382236832E+02  0.33380851556E+03  0.34355488632E+03  0.47000000000E+01 0. -1.
        -11    1    6    6    0    0  0.23553518513E+02  0.52201677664E+02  0.48977762191E+03  0.49311449209E+03  0.00000000000E+00 0.  1.
         12    1    6    6    0    0 -0.41328019397E+02 -0.41214571990E+01  0.42407706608E+03  0.42610603091E+03  0.00000000000E+00 0. -1.
         -5    1    3    3    0  503 -0.91510196408E+02  0.10489796034E+01  0.17408709520E+03  0.19673236419E+03  0.47000000000E+01 0.  1.
         13    1    4    4    0    0  0.43396368046E+00 -0.56319831778E+02  0.70728843008E+02  0.90413942560E+02  0.00000000000E+00 0. -1.
        -14    1    4    4    0    0  0.31808622336E+02 -0.18191605122E+02  0.14593747663E+03  0.15046750492E+03  0.00000000000E+00 0.  1.
</event>
<event>
12    1  0.8449700E-002  0.1874544E+03  0.7818608E-02  0.1161100E+00
         21   -1    0    0  501  502  0.00000000000E+00  0.00000000000E+00  0.25279976064E+03  0.25279976064E+03  0.00000000000E+00 0. -1.
         21   -1    0    0  502  503 -0.00000000000E+00 -0.00000000000E+00 -0.19914892133E+03  0.19914892133E+03  0.00000000000E+00 0.  1.
         -6    2    1    2    0  503 -0.73472926686E+02  0.17743188740E+02 -0.98498576858E+02  0.21051838090E+03  0.17000860964E+03 0.  0.
        -24    2    3    3    0    0 -0.36109781160E+01 -0.21559251370E+02  0.32826541019E+01  0.80877019325E+02  0.77797660340E+02 0.  0.
          6    2    1    2  501    0  0.73472926686E+02 -0.17743188740E+02  0.15214941616E+03  0.24143030107E+03  0.17154023940E+03 0.  0.
         24    2    5    5    0    0  0.10732855563E+03 -0.38793320248E+02  0.84194161434E+02  0.16250427055E+03  0.79338770956E+02 0.  0.
          5    1    5    5  501    0 -0.33855628949E+02  0.21050131509E+02  0.67955254729E+02  0.78926030518E+02  0.47000000000E+01 0. -1.
        -11    1    6    6    0    0  0.61295933373E+02 -0.15893306342E+01  0.21694345390E+01  0.61354900914E+02  0.00000000000E+00 0.  1.
         12    1    6    6    0    0  0.46032622262E+02 -0.37203989614E+02  0.82024726895E+02  0.10114936964E+03  0.00000000000E+00 0. -1.
         -5    1    3    3    0  503 -0.69861948570E+02  0.39302440110E+02 -0.10178123096E+03  0.12964136158E+03  0.47000000000E+01 0.  1.
         11    1    4    4    0    0 -0.16237873090E+02 -0.87233856594E+01  0.37738904104E+02  0.41999891224E+02  0.00000000000E+00 0. -1.
        -12    1    4    4    0    0  0.12626894974E+02 -0.12835865710E+02 -0.34456250002E+02  0.38877128101E+02  0.00000000000E+00 0.  1.
</event>
<event>
12    1  0.8449700E-002  0.2011977E+03  0.7818608E-02  0.1149039E+00
         21   -1    0    0  503  502  0.00000000000E+00  0.00000000000E+00  0.12577240055E+04  0.12577240055E+04  0.00000000000E+00 0. -1.
         21   -1    0    0  501  503 -0.00000000000E+00 -0.00000000000E+00 -0.14758545541E+03  0.14758545541E+03  0.00000000000E+00 0.  1.
          6    2    1    2  501    0 -0.92484235728E+02  0.46718024660E+02 -0.66450109088E+02  0.21188703918E+03  0.17246620738E+03 0.  0.
         24    2    3    3    0    0 -0.12836313415E+03  0.17903991424E+02 -0.35308610943E+02  0.15612480491E+03  0.79565127938E+02 0.  0.
         -6    2    1    2    0  502  0.92484235728E+02 -0.46718024660E+02  0.11765886592E+04  0.11934224217E+04  0.17076386056E+03 0.  0.
        -24    2    5    5    0    0  0.77251344788E+02 -0.58061396540E+02  0.11631318179E+04  0.11696760614E+04  0.76990692140E+02 0.  0.
          5    1    3    3  501    0  0.35878898427E+02  0.28814033236E+02 -0.31141498146E+02  0.55762234266E+02  0.47000000000E+01 0. -1.
        -13    1    4    4    0    0 -0.10733781531E+03  0.27688345288E+02 -0.56756618948E+02  0.12453660046E+03  0.00000000000E+00 0.  1.
         14    1    4    4    0    0 -0.21025318845E+02 -0.97843538637E+01  0.21448008006E+02  0.31588204451E+02  0.00000000000E+00 0. -1.
         -5    1    5    5    0  502  0.15232890940E+02  0.11343371880E+02  0.13456841227E+02  0.23746360307E+02  0.47000000000E+01 0.  1.
         11    1    6    6    0    0  0.78708283466E+02 -0.30616551831E+02  0.60477329688E+03  0.61064155423E+03  0.00000000000E+00 0. -1.
        -12    1    6    6    0    0 -0.14569386782E+01 -0.27444844709E+02  0.55835852106E+03  0.55903450718E+03  0.00000000000E+00 0.  1.
</event>
<event>
12    1  0.8449700E-002  0.1734608E+03  0.7818608E-02  0.1174465E+00
         21   -1    0    0  503  502  0.00000000000E+00  0.00000000000E+00  0.45539672486E+03  0.45539672486E+03  0.00000000000E+00 0. -1.
         21   -1    0    0  501  503 -0.00000000000E+00 -0.00000000000E+00 -0.19948718828E+03  0.19948718828E+03  0.00000000000E+00 0. -1.
          6    2    1    2  501    0  0.18533840193E+02  0.20690631921E+02 -0.14018051875E+03  0.22247671110E+03  0.17051012775E+03 0.  0.
         24    2    3    3    0    0 -0.12469356713E+02  0.48606990509E+02 -0.15636310115E+02  0.91046611050E+02  0.74342900175E+02 0.  0.
         -6    2    1    2    0  502 -0.18533840193E+02 -0.20690631921E+02  0.39609005533E+03  0.43240720205E+03  0.17122222686E+03 0.  0.
        -24    2    5    5    0    0  0.43498826722E+02 -0.47511037733E+02  0.28109621942E+03  0.29894163259E+03  0.78750038050E+02 0.  0.
          5    1    3    3  501    0  0.31003196906E+02 -0.27916358588E+02 -0.12454420863E+03  0.13143010005E+03  0.47000000000E+01 0. -1.
        -13    1    4    4    0    0 -0.56408928020E+01 -0.10866923761E+02 -0.27423465062E+02  0.30032584632E+02  0.00000000000E+00 0.  1.
         14    1    4    4    0    0 -0.68284639110E+01  0.59473914270E+02  0.11787154947E+02  0.61014026418E+02  0.00000000000E+00 0. -1.
         -5    1    5    5    0  502 -0.62032666916E+02  0.26820405812E+02  0.11499383591E+03  0.13346556946E+03  0.47000000000E+01 0.  1.
         13    1    6    6    0    0  0.22716160209E+01 -0.58861590310E+02  0.15723124556E+03  0.16790328059E+03  0.00000000000E+00 0. -1.
        -14    1    6    6    0    0  0.41227210701E+02  0.11350552577E+02  0.12386497386E+03  0.13103835200E+03  0.00000000000E+00 0.  1.
</event>
<event>
12    1  0.8449700E-002  0.1786585E+03  0.7818608E-02  0.1170474E+00
         21   -1    0    0  503  502  0.00000000000E+00  0.00000000000E+00  0.51315933724E+03  0.51315933724E+03  0.00000000000E+00 0. -1.
         21   -1    0    0  501  503 -0.00000000000E+00 -0.00000000000E+00 -0.11338939537E+03  0.11338939537E+03  0.00000000000E+00 0. -1.
          6    2    1    2  501    0  0.37402460016E+02 -0.10988173814E+02 -0.12797251106E+02  0.17911628332E+03  0.17435363299E+03 0.  0.
         24    2    3    3    0    0  0.30428781301E+02 -0.26320824429E+02  0.57410129178E+02  0.10676375319E+03  0.80522540529E+02 0.  0.
         -6    2    1    2    0  502 -0.37402460016E+02  0.10988173814E+02  0.41256719298E+03  0.44743244929E+03  0.16871403017E+03 0.  0.
        -24    2    5    5    0    0 -0.24576853859E+02 -0.42377546503E+02  0.35775640937E+03  0.36972332320E+03  0.79409124644E+02 0.  0.
          5    1    3    3  501    0  0.69736787153E+01  0.15332650615E+02 -0.70207380284E+02  0.72352530129E+02  0.47000000000E+01 0. -1.
        -11    1    4    4    0    0 -0.23437568509E+02 -0.26582766036E+02  0.16335400012E+02  0.39023177232E+02  0.00000000000E+00 0.  1.
         12    1    4    4    0    0  0.53866349810E+02  0.26194160707E+00  0.41074729167E+02  0.67740575960E+02  0.00000000000E+00 0. -1.
         -5    1    5    5    0  502 -0.12825606157E+02  0.53365720317E+02  0.54810783609E+02  0.77709126093E+02  0.47000000000E+01 0.  1.
         11    1    6    6    0    0 -0.26093888680E+02 -0.29135477160E+02  0.59713660586E+02  0.71382689193E+02  0.00000000000E+00 0. -1.
        -12    1    6    6    0    0  0.15170348212E+01 -0.13242069344E+02  0.29804274878E+03  0.29834063400E+03  0.00000000000E+00 0.  1.
</event>
<event>
12    1  0.8449700E-002  0.1819803E+03  0.7818608E-02  0.1168718E+00
         21   -1    0    0  501  502  0.00000000000E+00  0.00000000000E+00  0.89608525794E+03  0.89608525794E+03  0.00000000000E+00 0.  1.
         21   -1    0    0  502  503 -0.00000000000E+00 -0.00000000000E+00 -0.89992117792E+02  0.89992117792E+02  0.00000000000E+00 0.  1.
         -6    2    1    2    0  503 -0.32252952692E+02  0.37755246007E+00  0.11550330002E+02  0.17096076416E+03  0.16749261851E+03 0.  0.
        -24    2    3    3    0    0  0.27965968892E+02 -0.44878230398E+02  0.98356217219E+01  0.95466164196E+02  0.78872669994E+02 0.  0.
          6    2    1    2  501    0  0.32252952692E+02 -0.37755246007E+00  0.79454281014E+03  0.81511661157E+03  0.17909890510E+03 0.  0.
         24    2    5    5    0    0 -0.20587060912E+01 -0.14687606701E+02  0.75896095317E+03  0.76344238079E+03  0.81256238498E+02 0.  0.
          5    1    5    5  501    0  0.34311658783E+02  0.14310054241E+02  0.35581856975E+02  0.51674230779E+02  0.47000000000E+01 0. -1.
        -13    1    6    6    0    0 -0.20801314855E+02  0.42407766977E+01  0.67550182969E+03  0.67583533557E+03  0.00000000000E+00 0.  1.
         14    1    6    6    0    0  0.18742608764E+02 -0.18928383399E+02  0.83459123479E+02  0.87607045226E+02  0.00000000000E+00 0. -1.
         -5    1    3    3    0  503 -0.60218921583E+02  0.45255782858E+02  0.17147082798E+01  0.75494599961E+02  0.47000000000E+01 0.  1.
         13    1    4    4    0    0  0.33889638278E+01 -0.59218790695E+02 -0.10833210836E+02  0.60296838260E+02  0.00000000000E+00 0. -1.
        -14    1    4    4    0    0  0.24577005064E+02  0.14340560296E+02  0.20668832558E+02  0.35169325936E+02  0.00000000000E+00 0.  1.
</event>
<event>
12    1  0.8449700E-002  0.2741662E+03  0.7818608E-02  0.1099019E+00
         21   -1    0    0  503  502  0.00000000000E+00  0.00000000000E+00  0.73776123016E+03  0.73776123016E+03  0.00000000000E+00 0. -1.
         21   -1    0    0  501  503 -0.00000000000E+00 -0.00000000000E+00 -0.38886813880E+03  0.38886813880E+03  0.00000000000E+00 0. -1.
          6    2    1    2  501    0 -0.20553914814E+03  0.55182822074E+02 -0.30976189586E+03  0.41319158220E+03  0.17170721070E+03 0.  0.
         24    2    3    3    0    0 -0.35872769779E+02  0.19116044083E+02 -0.16153528357E+03  0.18497959519E+03  0.80445783288E+02 0.  0.
         -6    2    1    2    0  502  0.20553914814E+03 -0.55182822074E+02  0.65865498721E+03  0.71343778676E+03  0.17284559042E+03 0.  0.
        -24    2    5    5    0    0  0.13089747958E+03  0.16770067516E+02  0.36921341663E+03  0.40595264925E+03  0.10518374918E+03 0.  0.
          5    1    3    3  501    0 -0.16966637836E+03  0.36066777991E+02 -0.14822661229E+03  0.22821198700E+03  0.47000000000E+01 0. -1.
        -13    1    4    4    0    0 -0.36772119949E+02  0.64898976529E+00 -0.19274682112E+02  0.41522564514E+02  0.00000000000E+00 0.  1.
         14    1    4    4    0    0  0.89935017041E+00  0.18467054318E+02 -0.14226060145E+03  0.14345703068E+03  0.00000000000E+00 0. -1.
         -5    1    5    5    0  502  0.74641668563E+02 -0.71952889590E+02  0.28944157059E+03  0.30748513751E+03  0.47000000000E+01 0.  1.
         11    1    6    6    0    0  0.95934841738E+02 -0.31979982580E+02  0.16900098167E+03  0.19694553803E+03  0.00000000000E+00 0. -1.
        -12    1    6    6    0    0  0.34962637841E+02  0.48750050096E+02  0.20021243495E+03  0.20900711121E+03  0.00000000000E+00 0.  1.
</event>
<event>
12    1  0.8449700E-002  0.1792548E+03  0.7818608E-02  0.1168796E+00
         21   -1    0    0  503  502  0.00000000000E+00  0.00000000000E+00  0.51853898382E+02  0.51853898382E+02  0.00000000000E+00 0. -1.
         21   -1    0    0  501  503 -0.00000000000E+00 -0.00000000000E+00 -0.96469741218E+03  0.96469741218E+03  0.00000000000E+00 0. -1.
          6    2    1    2  501    0  0.71033452240E+01  0.53817573044E+02 -0.76297158697E+03  0.78374608917E+03  0.17083764539E+03 0.  0.
         24    2    3    3    0    0  0.64147678149E+02  0.42045273375E+02 -0.60014192826E+03  0.61074831256E+03  0.83429237119E+02 0.  0.
         -6    2    1    2    0  502 -0.71033452240E+01 -0.53817573044E+02 -0.14987192682E+03  0.23280522138E+03  0.16967583202E+03 0.  0.
        -24    2    5    5    0    0 -0.65381609753E+02 -0.15353989489E+02 -0.64382395596E+02  0.12232285480E+03  0.79418436508E+02 0.  0.
          5    1    3    3  501    0 -0.57044332925E+02  0.11772299668E+02 -0.16282965871E+03  0.17299777662E+03  0.47000000000E+01 0. -1.
        -11    1    4    4    0    0  0.56164163763E+01 -0.17729400931E+02 -0.36843127043E+02  0.41270955896E+02  0.00000000000E+00 0.  1.
         12    1    4    4    0    0  0.58531261773E+02  0.59774674306E+02 -0.56329880122E+03  0.56947735666E+03  0.00000000000E+00 0. -1.
         -5    1    5    5    0  502  0.58278264529E+02 -0.38463583554E+02 -0.85489531224E+02  0.11048236658E+03  0.47000000000E+01 0.  1.
         11    1    6    6    0    0 -0.77712525972E+02 -0.30662132328E+02 -0.45802643053E+02  0.95274787654E+02  0.00000000000E+00 0. -1.
        -12    1    6    6    0    0  0.12330916219E+02  0.15308142839E+02 -0.18579752543E+02  0.27048067149E+02  0.00000000000E+00 0.  1.
</event>
<event>
12    1  0.8449700E-002  0.1780980E+03  0.7818608E-02  0.1169999E+00
         21   -1    0    0  503  502  0.00000000000E+00  0.00000000000E+00  0.12522692752E+03  0.12522692752E+03  0.00000000000E+00 0. -1.
         21   -1    0    0  501  503 -0.00000000000E+00 -0.00000000000E+00 -0.51312097955E+03  0.51312097955E+03  0.00000000000E+00 0. -1.
          6    2    1    2  501    0 -0.22914445991E+02 -0.32477381818E+02 -0.42155747076E+03  0.45709639224E+03  0.17218176001E+03 0.  0.
         24    2    3    3    0    0 -0.75485222818E+02 -0.35064728449E+02 -0.34705934129E+03  0.36575942145E+03  0.80013836028E+02 0.  0.
         -6    2    1    2    0  502  0.22914445991E+02  0.32477381818E+02  0.33663418738E+02  0.18125151483E+03  0.17360597254E+03 0.  0.
        -24    2    5    5    0    0 -0.51082565147E+02  0.33531266072E+02  0.45712056306E+01  0.10159528348E+03  0.81036605544E+02 0.  0.
          5    1    3    3  501    0  0.52570776828E+02  0.25873466307E+01 -0.74498129472E+02  0.91336970793E+02  0.47000000000E+01 0. -1.
        -13    1    4    4    0    0 -0.10693191237E+02 -0.39144566124E+02 -0.67477865828E+02  0.78739467693E+02  0.00000000000E+00 0.  1.
         14    1    4    4    0    0 -0.64792031582E+02  0.40798376750E+01 -0.27958147546E+03  0.28701995376E+03  0.00000000000E+00 0. -1.
         -5    1    5    5    0  502  0.73997011137E+02 -0.10538842539E+01  0.29092213107E+02  0.79656231349E+02  0.47000000000E+01 0.  1.
         11    1    6    6    0    0 -0.75380175989E+01 -0.24251986774E+02  0.13383455054E+02  0.28707097397E+02  0.00000000000E+00 0. -1.
        -12    1    6    6    0    0 -0.43544547548E+02  0.57783252845E+02 -0.88122494238E+01  0.72888186083E+02  0.00000000000E+00 0.  1.
</event>
<event>
12    1  0.8449700E-002  0.1839542E+03  0.7818608E-02  0.1164269E+00
         21   -1    0    0  503  502  0.00000000000E+00  0.00000000000E+00  0.99734686652E+02  0.99734686652E+02  0.00000000000E+00 0. -1.
         21   -1    0    0  501  503 -0.00000000000E+00 -0.00000000000E+00 -0.49970634439E+03  0.49970634439E+03  0.00000000000E+00 0. -1.
          6    2    1    2  501    0  0.62000495995E+02 -0.36725885792E+01 -0.37041527518E+03  0.41312753000E+03  0.17207361955E+03 0.  0.
         24    2    3    3    0    0  0.57551284178E+02 -0.58639882237E+02 -0.16177014571E+03  0.19726628079E+03  0.77418469341E+02 0.  0.
         -6    2    1    2    0  502 -0.62000495995E+02  0.36725885792E+01 -0.29556382557E+02  0.18631350104E+03  0.17315193187E+03 0.  0.
        -24    2    5    5    0    0 -0.25726282159E+02  0.67193048827E+02  0.91150068178E+00  0.10693435158E+03  0.79103585955E+02 0.  0.
          5    1    3    3  501    0  0.44492118170E+01  0.54967293658E+02 -0.20864512947E+03  0.21586124920E+03  0.47000000000E+01 0. -1.
        -11    1    4    4    0    0  0.11043738941E+02 -0.24761456934E+02 -0.12738024550E+03  0.13023371631E+03  0.00000000000E+00 0.  1.
         12    1    4    4    0    0  0.46507545236E+02 -0.33878425303E+02 -0.34389900209E+02  0.67032564484E+02  0.00000000000E+00 0. -1.
         -5    1    5    5    0  502 -0.36274213836E+02 -0.63520460248E+02 -0.30467883239E+02  0.79379149457E+02  0.47000000000E+01 0.  1.
         13    1    6    6    0    0  0.15378234225E+02 -0.10315928911E+02  0.47476300186E+01  0.19116706515E+02  0.00000000000E+00 0. -1.
        -14    1    6    6    0    0 -0.41104516385E+02  0.77508977738E+02 -0.38361293368E+01  0.87817645069E+02  0.00000000000E+00 0.  1.
</event>
<event>
12    1  0.8449700E-002  0.2879628E+03  0.7818608E-02  0.1091798E+00
         21   -1    0    0  501  502  0.00000000000E+00  0.00000000000E+00  0.73886253762E+03  0.73886253762E+03  0.00000000000E+00 0. -1.
         21   -1    0    0  502  503 -0.00000000000E+00 -0.00000000000E+00 -0.11247205625E+03  0.11247205625E+03  0.00000000000E+00 0. -1.
         -6    2    1    2    0  503  0.13162955934E+03 -0.18951880448E+03  0.26796874195E+03  0.39335710882E+03  0.17227550683E+03 0.  0.
        -24    2    3    3    0    0  0.56330004608E+01 -0.33393903411E+02  0.82625665218E+02  0.12018268894E+03  0.80436277198E+02 0.  0.
          6    2    1    2  501    0 -0.13162955934E+03  0.18951880448E+03  0.35842173943E+03  0.45797748505E+03  0.16743212170E+03 0.  0.
         24    2    5    5    0    0 -0.13043739050E+02  0.12307303638E+03  0.21460477947E+03  0.26003040919E+03  0.79015763737E+02 0.  0.
          5    1    5    5  501    0 -0.11858582029E+03  0.66445768105E+02  0.14381695996E+03  0.19794707587E+03  0.47000000000E+01 0. -1.
        -11    1    6    6    0    0 -0.18981120853E+02  0.67850035524E+01  0.77861328297E+02  0.80428264101E+02  0.00000000000E+00 0.  1.
         12    1    6    6    0    0  0.59373818024E+01  0.11628803282E+03  0.13674345117E+03  0.17960214509E+03  0.00000000000E+00 0. -1.
         -5    1    3    3    0  503  0.12599655888E+03 -0.15612490107E+03  0.18534307673E+03  0.27317441987E+03  0.47000000000E+01 0.  1.
         11    1    4    4    0    0  0.11469804330E+02 -0.45298424775E+02  0.11892405762E+02  0.48217559180E+02  0.00000000000E+00 0. -1.
        -12    1    4    4    0    0 -0.58368038691E+01  0.11904521365E+02  0.70733259456E+02  0.71965129762E+02  0.00000000000E+00 0.  1.
</event>
<event>
12    1  0.8449700E-002  0.2199562E+03  0.7818608E-02  0.1134567E+00
         21   -1    0    0  503  502  0.00000000000E+00  0.00000000000E+00  0.62153660538E+02  0.62153660538E+02  0.00000000000E+00 0. -1.
         21   -1    0    0  501  503 -0.00000000000E+00 -0.00000000000E+00 -0.90008067446E+03  0.90008067446E+03  0.00000000000E+00 0. -1.
          6    2    1    2  501    0 -0.12364911090E+02 -0.13149718858E+03 -0.60168540371E+03  0.63944830083E+03  0.17153542714E+03 0.  0.
         24    2    3    3    0    0  0.40259309941E+01 -0.11991314945E+02 -0.12759928620E+03  0.15023459461E+03  0.78287009292E+02 0.  0.
         -6    2    1    2    0  502  0.12364911090E+02  0.13149718858E+03 -0.23624161021E+03  0.32278603417E+03  0.17588724749E+03 0.  0.
        -24    2    5    5    0    0 -0.53510113407E+02  0.38105798030E+02 -0.12498551614E+03  0.16321949899E+03  0.81876990209E+02 0.  0.
          5    1    3    3  501    0 -0.16390842084E+02 -0.11950587363E+03 -0.47408611751E+03  0.48921370622E+03  0.47000000000E+01 0. -1.
        -11    1    4    4    0    0  0.31226813726E+02  0.14681010886E+02 -0.91344473512E+02  0.97644553444E+02  0.00000000000E+00 0.  1.
         12    1    4    4    0    0 -0.27200882732E+02 -0.26672325831E+02 -0.36254812690E+02  0.52590041166E+02  0.00000000000E+00 0. -1.
         -5    1    5    5    0  502  0.65875024496E+02  0.93391390548E+02 -0.11125609407E+03  0.15956653518E+03  0.47000000000E+01 0.  1.
         11    1    6    6    0    0 -0.33667308436E+02  0.63959975558E+02 -0.82772844442E+02  0.10988953502E+03  0.00000000000E+00 0. -1.
        -12    1    6    6    0    0 -0.19842804971E+02 -0.25854177529E+02 -0.42212671701E+02  0.53329963969E+02  0.00000000000E+00 0.  1.
</event>
<event>
12    1  0.8449700E-002  0.3097433E+03  0.7818608E-02  0.1081320E+00
         21   -1    0    0  503  502  0.00000000000E+00  0.00000000000E+00  0.96676471255E+03  0.96676471255E+03  0.00000000000E+00 0.  1.
         21   -1    0    0  501  503 -0.00000000000E+00 -0.00000000000E+00 -0.10109362968E+03  0.10109362968E+03  0.00000000000E+00 0.  1.
          6    2    1    2  501    0  0.12019321881E+03 -0.21870574290E+03  0.32072274475E+03  0.44103331505E+03  0.17137296798E+03 0.  0.
         24    2    3    3    0    0  0.13798511696E+03 -0.11911244676E+03  0.23839893246E+03  0.31051635696E+03  0.79741391197E+02 0.  0.
         -6    2    1    2    0  502 -0.12019321881E+03  0.21870574290E+03  0.54494833813E+03  0.62682502718E+03  0.18347291802E+03 0.  0.
        -24    2    5    5    0    0 -0.67684731486E+01  0.22523376109E+02  0.14701271959E+03  0.16886483189E+03  0.79683605770E+02 0.  0.
          5    1    3    3  501    0 -0.17791898152E+02 -0.99593296146E+02  0.82323812291E+02  0.13051695808E+03  0.47000000000E+01 0. -1.
        -13    1    4    4    0    0  0.58739750728E+02 -0.46655326277E+02  0.40216790143E+02  0.85114440579E+02  0.00000000000E+00 0.  1.
         14    1    4    4    0    0  0.79245366230E+02 -0.72457120480E+02  0.19818214231E+03  0.22540191638E+03  0.00000000000E+00 0. -1.
         -5    1    5    5    0  502 -0.11342474566E+03  0.19618236679E+03  0.39793561854E+03  0.45796019529E+03  0.47000000000E+01 0.  1.
         11    1    6    6    0    0  0.17272432894E+02  0.62485975805E+01  0.13689338144E+03  0.13812016432E+03  0.00000000000E+00 0. -1.
        -12    1    6    6    0    0 -0.24040906043E+02  0.16274778529E+02  0.10119338150E+02  0.30744667572E+02  0.00000000000E+00 0.  1.
</event>
<event>
12    1  0.8449700E-002  0.1939247E+03  0.7818608E-02  0.1156015E+00
         21   -1    0    0  503  502  0.00000000000E+00  0.00000000000E+00  0.10879887920E+03  0.10879887920E+03  0.00000000000E+00 0. -1.
         21   -1    0    0  501  503 -0.00000000000E+00 -0.00000000000E+00 -0.34191477271E+03  0.34191477271E+03  0.00000000000E+00 0. -1.
          6    2    1    2  501    0  0.58391847414E+02  0.46781488439E+02 -0.14408589693E+03  0.24159374454E+03  0.17890968728E+03 0.  0.
         24    2    3    3    0    0  0.78696728466E+02  0.80513565754E+02 -0.61711397789E+02  0.15017279867E+03  0.77897134109E+02 0.  0.
         -6    2    1    2    0  502 -0.58391847414E+02 -0.46781488439E+02 -0.89029996580E+02  0.20911990736E+03  0.17380069004E+03 0.  0.
        -24    2    5    5    0    0  0.25765586766E+02 -0.19154253977E+02 -0.84706485075E+02  0.12031382332E+03  0.79180026274E+02 0.  0.
          5    1    3    3  501    0 -0.20304881053E+02 -0.33732077314E+02 -0.82374499140E+02  0.91420945866E+02  0.47000000000E+01 0. -1.
        -13    1    4    4    0    0  0.62587203442E+02  0.68594312834E+02 -0.80358135541E+02  0.12279970576E+03  0.00000000000E+00 0.  1.
         14    1    4    4    0    0  0.16109525025E+02  0.11919252920E+02  0.18646737752E+02  0.27373092910E+02  0.00000000000E+00 0. -1.
         -5    1    5    5    0  502 -0.84157434180E+02 -0.27627234462E+02 -0.43235115054E+01  0.88806084046E+02  0.47000000000E+01 0.  1.
         13    1    6    6    0    0  0.12907246444E+02  0.66716011371E+01  0.12344543185E+02  0.19065545335E+02  0.00000000000E+00 0. -1.
        -14    1    6    6    0    0  0.12858340322E+02 -0.25825855114E+02 -0.97051028259E+02  0.10124827798E+03  0.00000000000E+00 0.  1.
</event>
<event>
12    1  0.8449700E-002  0.1917470E+03  0.7818608E-02  0.1157709E+00
         21   -1    0    0  503  502  0.00000000000E+00  0.00000000000E+00  0.48705002024E+03  0.48705002024E+03  0.00000000000E+00 0.  1.
         21   -1    0    0  501  503 -0.00000000000E+00 -0.00000000000E+00 -0.37301528256E+03  0.37301528256E+03  0.00000000000E+00 0.  1.
          6    2    1    2  501    0  0.23810701508E+02  0.71242491403E+02 -0.32784585719E+03  0.37980233919E+03  0.17642128186E+03 0.  0.
         24    2    3    3    0    0  0.78738025389E+02  0.30595701639E+02 -0.25242358856E+03  0.27792112880E+03  0.79916907910E+02 0.  0.
         -6    2    1    2    0  502 -0.23810701508E+02 -0.71242491403E+02  0.44188059487E+03  0.48026296360E+03  0.17248655600E+03 0.  0.
        -24    2    5    5    0    0  0.32817568423E+02 -0.83935220985E+02  0.36168604559E+03  0.38116138908E+03  0.79656103532E+02 0.  0.
          5    1    3    3  501    0 -0.54927323881E+02  0.40646789764E+02 -0.75422268630E+02  0.10188121040E+03  0.47000000000E+01 0. -1.
        -11    1    4    4    0    0  0.82588464146E+02  0.44501582360E+01 -0.14155733434E+03  0.16394858103E+03  0.00000000000E+00 0.  1.
         12    1    4    4    0    0 -0.38504387569E+01  0.26145543403E+02 -0.11086625422E+03  0.11397254776E+03  0.00000000000E+00 0. -1.
         -5    1    5    5    0  502 -0.56628269931E+02  0.12692729583E+02  0.80194549271E+02  0.99101574520E+02  0.47000000000E+01 0.  1.
         11    1    6    6    0    0  0.30799472986E+02 -0.50047618547E+02  0.90805815153E+02  0.10816222873E+03  0.00000000000E+00 0. -1.
        -12    1    6    6    0    0  0.20180954370E+01 -0.33887602438E+02  0.27088023044E+03  0.27299916035E+03  0.00000000000E+00 0.  1.
</event>
<event>
12    1  0.8449700E-002  0.2297336E+03  0.7818608E-02  0.1126991E+00
         21   -1    0    0  501  502  0.00000000000E+00  0.00000000000E+00  0.19317025167E+03  0.19317025167E+03  0.00000000000E+00 0. -1.
         21   -1    0    0  502  503 -0.00000000000E+00 -0.00000000000E+00 -0.29904166837E+03  0.29904166837E+03  0.00000000000E+00 0.  1.
         -6    2    1    2    0  503 -0.15118027716E+03  0.10856845679E+01 -0.12687569805E+03  0.26244044493E+03  0.17297655756E+03 0.  0.
        -24    2    3    3    0    0 -0.12691289079E+03  0.10969956386E+02 -0.16029863909E+03  0.21971120601E+03  0.79687756655E+02 0.  0.
          6    2    1    2  501    0  0.15118027716E+03 -0.10856845679E+01  0.21004281347E+02  0.22977147512E+03  0.17174718638E+03 0.  0.
         24    2    5    5    0    0  0.39665663497E+02  0.65088674574E+02  0.30193713520E+02  0.99690382977E+02  0.56715180540E+02 0.  0.
          5    1    5    5  501    0  0.11151461366E+03 -0.66174359142E+02 -0.91894321731E+01  0.13008109214E+03  0.47000000000E+01 0. -1.
        -13    1    6    6    0    0 -0.73563157670E+00  0.26887026832E+01 -0.13283281302E+02  0.13572613532E+02  0.00000000000E+00 0.  1.
         14    1    6    6    0    0  0.40401295073E+02  0.62399971890E+02  0.43476994822E+02  0.86117769445E+02  0.00000000000E+00 0. -1.
         -5    1    3    3    0  503 -0.24267386374E+02 -0.98842718185E+01  0.33422941043E+02  0.42729238921E+02  0.47000000000E+01 0.  1.
         13    1    4    4    0    0 -0.60879902116E+02 -0.31083611373E+02 -0.51081134119E+02  0.85333672372E+02  0.00000000000E+00 0. -1.
        -14    1    4    4    0    0 -0.66032988670E+02  0.42053567759E+02 -0.10921750497E+03  0.13437753364E+03  0.00000000000E+00 0.  1.
</event>
<event>
12    1  0.8449700E-002  0.2582137E+03  0.7818608E-02  0.1108338E+00
         21   -1    0    0  503  502  0.00000000000E+00  0.00000000000E+00  0.20440581434E+04  0.20440581434E+04  0.00000000000E+00 0.  1.
         21   -1    0    0  501  503 -0.00000000000E+00 -0.00000000000E+00 -0.35365222597E+02  0.35365222597E+02  0.00000000000E+00 0. -1.
          6    2    1    2  501    0 -0.87475391039E+02 -0.17079460823E+03  0.70812563090E+03  0.75347103235E+03  0.17162151731E+03 0.  0.
         24    2    3    3    0    0 -0.11639045572E+03 -0.10933610657E+03  0.58612656035E+03  0.61376028971E+03  0.87499863394E+02 0.  0.
         -6    2    1    2    0  502  0.87475391039E+02  0.17079460823E+03  0.13005672899E+04  0.13259523337E+04  0.17277607854E+03 0.  0.
        -24    2    5    5    0    0  0.12697768661E+02  0.15201683993E+03  0.71809778404E+03  0.73838351840E+03  0.79217673899E+02 0.  0.
          5    1    3    3  501    0  0.28915064680E+02 -0.61458501667E+02  0.12199907056E+03  0.13971074264E+03  0.47000000000E+01 0. -1.
        -13    1    4    4    0    0 -0.32220748782E+02  0.16347118787E+01  0.21408364128E+03  0.21650093394E+03  0.00000000000E+00 0.  1.
         14    1    4    4    0    0 -0.84169706937E+02 -0.11097081845E+03  0.37204291907E+03  0.39725935576E+03  0.00000000000E+00 0. -1.
         -5    1    5    5    0  502  0.74777622378E+02  0.18777768303E+02  0.58246950590E+03  0.58756881528E+03  0.47000000000E+01 0.  1.
         13    1    6    6    0    0  0.36630904499E+02  0.73717735571E+02  0.25069362653E+03  0.26386250603E+03  0.00000000000E+00 0. -1.
        -14    1    6    6    0    0 -0.23933135838E+02  0.78299104361E+02  0.46740415750E+03  0.47452101238E+03  0.00000000000E+00 0.  1.
</event>
<event>
12    1  0.8449700E-002  0.1971772E+03  0.7818608E-02  0.1152493E+00
         21   -1    0    0  501  502  0.00000000000E+00  0.00000000000E+00  0.27984834802E+02  0.27984834802E+02  0.00000000000E+00 0.  1.
         21   -1    0    0  502  503 -0.00000000000E+00 -0.00000000000E+00 -0.14582463761E+04  0.14582463761E+04  0.00000000000E+00 0.  1.
         -6    2    1    2    0  503  0.13440586746E+02 -0.95014217201E+02 -0.88681079830E+03  0.90811568749E+03  0.17038884658E+03 0.  0.
        -24    2    3    3    0    0  0.26534351285E+02 -0.25576474484E+01 -0.23029449864E+03  0.24497512495E+03  0.79162127205E+02 0.  0.
          6    2    1    2  501    0 -0.13440586746E+02  0.95014217201E+02 -0.54345074303E+03  0.57811552345E+03  0.17225126271E+03 0.  0.
         24    2    5    5    0    0  0.37144372994E+01  0.74821103080E+02 -0.54009946561E+03  0.55099767382E+03  0.79240199981E+02 0.  0.
          5    1    5    5  501    0 -0.17155024045E+02  0.20193114120E+02 -0.33512774195E+01  0.27117849624E+02  0.47000000000E+01 0. -1.
        -13    1    6    6    0    0 -0.38134112974E+01  0.38366595208E+02 -0.74251960733E+02  0.83665353679E+02  0.00000000000E+00 0.  1.
         14    1    6    6    0    0  0.75278485968E+01  0.36454507873E+02 -0.46584750488E+03  0.46733232014E+03  0.00000000000E+00 0. -1.
         -5    1    3    3    0  503 -0.13093764540E+02 -0.92456569752E+02 -0.65651629966E+03  0.66314056254E+03  0.47000000000E+01 0.  1.
         13    1    4    4    0    0  0.13590560979E+01 -0.36290761980E+02 -0.65542669884E+02  0.74931355346E+02  0.00000000000E+00 0. -1.
        -14    1    4    4    0    0  0.25175295188E+02  0.33733114531E+02 -0.16475182876E+03  0.17004376961E+03  0.00000000000E+00 0.  1.
</event>
<event>
12    1  0.8449700E-002  0.2082010E+03  0.7818608E-02  0.1144525E+00
         21   -1    0    0  501  502  0.00000000000E+00  0.00000000000E+00  0.43490577033E+03  0.43490577033E+03  0.00000000000E+00 0. -1.
         21   -1    0    0  502  503 -0.00000000000E+00 -0.00000000000E+00 -0.14998016254E+03  0.14998016254E+03  0.00000000000E+00 0.  1.
         -6    2    1    2    0  503  0.11049088035E+03  0.36903587937E+02 -0.34432615344E+02  0.20365458347E+03  0.16346092783E+03 0.  0.
        -24    2    3    3    0    0  0.42601410874E+02  0.79429295076E+02 -0.14871092144E+02  0.12105822142E+03  0.79435826099E+02 0.  0.
          6    2    1    2  501    0 -0.11049088035E+03 -0.36903587937E+02  0.31935822314E+03  0.38123134939E+03  0.17256175020E+03 0.  0.
         24    2    5    5    0    0 -0.45992376748E+02 -0.10729353989E+02  0.29083640377E+03  0.30586072070E+03  0.82064297663E+02 0.  0.
          5    1    5    5  501    0 -0.64498503604E+02 -0.26174233948E+02  0.28521819362E+02  0.75370628693E+02  0.47000000000E+01 0. -1.
        -11    1    6    6    0    0  0.11559452709E+02  0.18796881915E+02  0.14016733331E+03  0.14189371037E+03  0.00000000000E+00 0.  1.
         12    1    6    6    0    0 -0.57551829457E+02 -0.29526235904E+02  0.15066907046E+03  0.16396701033E+03  0.00000000000E+00 0. -1.
         -5    1    3    3    0  503  0.67889469477E+02 -0.42525707140E+02 -0.19561523200E+02  0.82596362048E+02  0.47000000000E+01 0.  1.
         13    1    4    4    0    0  0.82981151970E+01  0.91722594441E+01  0.28913999471E+02  0.31448504329E+02  0.00000000000E+00 0. -1.
        -14    1    4    4    0    0  0.34303295677E+02  0.70257035632E+02 -0.43785091615E+02  0.89609717095E+02  0.00000000000E+00 0.  1.
</event>
<event>
12    1  0.8449700E-002  0.3609309E+03  0.7818608E-02  0.1058272E+00
         21   -1    0    0  503  502  0.00000000000E+00  0.00000000000E+00  0.77271576941E+03  0.77271576941E+03  0.00000000000E+00 0.  1.
         21   -1    0    0  501  503 -0.00000000000E+00 -0.00000000000E+00 -0.26113809367E+03  0.26113809367E+03  0.00000000000E+00 0. -1.
          6    2    1    2  501    0 -0.23056145530E+03  0.21685411213E+03 -0.52261199474E+02  0.36469485036E+03  0.17345549944E+03 0.  0.
         24    2    3    3    0    0 -0.11977316439E+03  0.11972178479E+03  0.38709266144E+02  0.19147115096E+03  0.80522529165E+02 0.  0.
         -6    2    1    2    0  502  0.23056145530E+03 -0.21685411213E+03  0.56383887522E+03  0.66915901273E+03  0.17226496015E+03 0.  0.
        -24    2    5    5    0    0  0.13416412543E+03 -0.46130715147E+02  0.19648320541E+03  0.25273230655E+03  0.71693188878E+02 0.  0.
          5    1    3    3  501    0 -0.11078829091E+03  0.97132327344E+02 -0.90970465618E+02  0.17322369940E+03  0.47000000000E+01 0. -1.
        -11    1    4    4    0    0  0.80085313008E+01  0.22825432311E+02  0.17174074512E+02  0.29666239552E+02  0.00000000000E+00 0.  1.
         12    1    4    4    0    0 -0.12778169569E+03  0.96896352477E+02  0.21535191632E+02  0.16180491141E+03  0.00000000000E+00 0. -1.
         -5    1    5    5    0  502  0.96397329868E+02 -0.17072339699E+03  0.36735566980E+03  0.41642670618E+03  0.47000000000E+01 0.  1.
         11    1    6    6    0    0  0.50410431980E+02 -0.43913472846E+01  0.22921352512E+02  0.55550733428E+02  0.00000000000E+00 0. -1.
        -12    1    6    6    0    0  0.83753693452E+02 -0.41739367862E+02  0.17356185290E+03  0.19718157312E+03  0.00000000000E+00 0.  1.
</event>
<event>
12    1  0.8449700E-002  0.1774867E+03  0.7818608E-02  0.1172414E+00
         21   -1    0    0  503  502  0.00000000000E+00  0.00000000000E+00  0.20014587751E+03  0.20014587751E+03  0.00000000000E+00 0.  1.
         21   -1    0    0  501  503 -0.00000000000E+00 -0.00000000000E+00 -0.15156406818E+03  0.15156406818E+03  0.00000000000E+00 0.  1.
          6    2    1    2  501    0 -0.54038442990E+01 -0.65205702664E+01  0.66024117066E+01  0.17760946357E+03  0.17728454625E+03 0.  0.
         24    2    3    3    0    0 -0.36339011257E+02  0.36895253691E+02 -0.42298748234E+02  0.10511579648E+03  0.81107108706E+02 0.  0.
         -6    2    1    2    0  502  0.54038442990E+01  0.65205702664E+01  0.41979397619E+02  0.17410048212E+03  0.16875126275E+03 0.  0.
        -24    2    5    5    0    0  0.47831962401E+02  0.34784308643E+02  0.65105879911E+02  0.11792301069E+03  0.78544357514E+02 0.  0.
          5    1    3    3  501    0  0.30935166958E+02 -0.43415823958E+02  0.48901159941E+02  0.72493667091E+02  0.47000000000E+01 0. -1.
        -11    1    4    4    0    0 -0.13597174742E+02 -0.21742070447E+02  0.53690087041E+01  0.26199752723E+02  0.00000000000E+00 0.  1.
         12    1    4    4    0    0 -0.22741836515E+02  0.58637324139E+02 -0.47667756938E+02  0.78916043754E+02  0.00000000000E+00 0. -1.
         -5    1    5    5    0  502 -0.42428118102E+02 -0.28263738377E+02 -0.23126482292E+02  0.56177471427E+02  0.47000000000E+01 0.  1.
         11    1    6    6    0    0  0.28033570029E+02 -0.19908084527E+02  0.44455268661E+02  0.56200389588E+02  0.00000000000E+00 0. -1.
        -12    1    6    6    0    0  0.19798392372E+02  0.54692393170E+02  0.20650611249E+02  0.61722621106E+02  0.00000000000E+00 0.  1.
</event>
<event>
12    1  0.8449700E-002  0.2051557E+03  0.7818608E-02  0.1145548E+00
         21   -1    0    0  503  502  0.00000000000E+00  0.00000000000E+00  0.22235898749E+03  0.22235898749E+03  0.00000000000E+00 0. -1.
         21   -1    0    0  501  503 -0.00000000000E+00 -0.00000000000E+00 -0.18951121503E+03  0.18951121503E+03  0.00000000000E+00 0. -1.
          6    2    1    2  501    0 -0.11079070052E+03 -0.63137470893E+01  0.28219325410E+02  0.20666229705E+03  0.17204223891E+03 0.  0.
         24    2    3    3    0    0 -0.58963219419E+01  0.14573372096E+02 -0.26696353877E+02  0.86342206302E+02  0.80592378623E+02 0.  0.
         -6    2    1    2    0  502  0.11079070052E+03  0.63137470893E+01  0.46284470475E+01  0.20520790547E+03  0.17255265638E+03 0.  0.
        -24    2    5    5    0    0  0.11174139368E+03  0.59963176302E+02 -0.46690851310E+01  0.15054805570E+03  0.81001204602E+02 0.  0.
          5    1    3    3  501    0 -0.10489437858E+03 -0.20887119185E+02  0.54915679287E+02  0.12032009074E+03  0.47000000000E+01 0. -1.
        -13    1    4    4    0    0  0.18629380624E+02 -0.20482078572E+02  0.10538796377E+02  0.29624915091E+02  0.00000000000E+00 0.  1.
         14    1    4    4    0    0 -0.24525702566E+02  0.35055450668E+02 -0.37235150253E+02  0.56717291211E+02  0.00000000000E+00 0. -1.
         -5    1    5    5    0  502 -0.95069315673E+00 -0.53649429213E+02  0.92975321785E+01  0.54659849771E+02  0.47000000000E+01 0.  1.
         13    1    6    6    0    0  0.48004356591E+02  0.70840717431E+02  0.15809876236E+01  0.85588112608E+02  0.00000000000E+00 0. -1.
        -14    1    6    6    0    0  0.63737037086E+02 -0.10877541129E+02 -0.62500727546E+01  0.64959943095E+02  0.00000000000E+00 0.  1.
</event>
<event>
12    1  0.8449700E-002  0.1849245E+03  0.7818608E-02  0.1167539E+00
         21   -1    0    0  503  502  0.00000000000E+00  0.00000000000E+00  0.10374809542E+03  0.10374809542E+03  0.00000000000E+00 0.  1.
         21   -1    0    0  501  503 -0.00000000000E+00 -0.00000000000E+00 -0.43736505588E+03  0.43736505588E+03  0.00000000000E+00 0.  1.
          6    2    1    2  501    0  0.45114570433E+02  0.52899400587E+02 -0.32494503830E+03  0.37388010649E+03  0.17135747742E+03 0.  0.
         24    2    3    3    0    0 -0.30406556138E+02  0.91363166692E+01 -0.14680576064E+03  0.17545042042E+03  0.90680139657E+02 0.  0.
         -6    2    1    2    0  502 -0.45114570433E+02 -0.52899400587E+02 -0.86719221601E+01  0.16723304480E+03  0.15184866806E+03 0.  0.
        -24    2    5    5    0    0  0.72803444955E+00 -0.82731772228E+02  0.44669117584E+01  0.11078631082E+03  0.73543029546E+02 0.  0.
          5    1    3    3  501    0  0.75521126572E+02  0.43763083918E+02 -0.17813927766E+03  0.19842968608E+03  0.47000000000E+01 0. -1.
        -13    1    4    4    0    0 -0.89657827558E+01  0.36594175716E+02 -0.13256450542E+03  0.13781461118E+03  0.00000000000E+00 0.  1.
         14    1    4    4    0    0 -0.21440773383E+02 -0.27457859047E+02 -0.14241255220E+02  0.37635809237E+02  0.00000000000E+00 0. -1.
         -5    1    5    5    0  502 -0.45842604883E+02  0.29832371641E+02 -0.13138833918E+02  0.56446733979E+02  0.47000000000E+01 0.  1.
         11    1    6    6    0    0  0.20422703534E+02 -0.12065420154E+02  0.25145433857E+02  0.34568107078E+02  0.00000000000E+00 0. -1.
        -12    1    6    6    0    0 -0.19694669085E+02 -0.70666352074E+02 -0.20678522098E+02  0.76218203744E+02  0.00000000000E+00 0.  1.
</event>
<event>
12    1  0.8449700E-002  0.2043635E+03  0.7818608E-02  0.1147767E+00
         21   -1    0    0  503  502  0.00000000000E+00  0.00000000000E+00  0.64637572856E+03  0.64637572856E+03  0.00000000000E+00 0. -1.
         21   -1    0    0  501  503 -0.00000000000E+00 -0.00000000000E+00 -0.63811860948E+02  0.63811860948E+02  0.00000000000E+00 0.  1.
          6    2    1    2  501    0  0.11101332314E+03  0.15942167252E+02  0.34324225330E+03  0.39548253750E+03  0.16128571668E+03 0.  0.
         24    2    3    3    0    0  0.50275003762E+02  0.52235689272E+02  0.15033108998E+03  0.18995110409E+03  0.90696428245E+02 0.  0.
         -6    2    1    2    0  502 -0.11101332314E+03 -0.15942167252E+02  0.23932161431E+03  0.31470505201E+03  0.17084005406E+03 0.  0.
        -24    2    5    5    0    0 -0.83406937759E+02  0.65617189149E+01  0.25124544200E+03  0.27685264028E+03  0.80767189409E+02 0.  0.
          5    1    3    3  501    0  0.60738319379E+02 -0.36293522021E+02  0.19291116333E+03  0.20553143341E+03  0.47000000000E+01 0. -1.
        -11    1    4    4    0    0  0.44137422257E+02 -0.62801289254E+01  0.24094524113E+02  0.50676406296E+02  0.00000000000E+00 0.  1.
         12    1    4    4    0    0  0.61375815043E+01  0.58515818198E+02  0.12623656586E+03  0.13927469780E+03  0.00000000000E+00 0. -1.
         -5    1    5    5    0  502 -0.27606385382E+02 -0.22503886167E+02 -0.11923827691E+02  0.37852411723E+02  0.47000000000E+01 0.  1.
         11    1    6    6    0    0 -0.37454363486E+02 -0.36521060736E+02  0.96273785069E+02  0.10956851242E+03  0.00000000000E+00 0. -1.
        -12    1    6    6    0    0 -0.45952574273E+02  0.43082779651E+02  0.15497165693E+03  0.16728412787E+03  0.00000000000E+00 0.  1.
</event>
<event>
12    1  0.8449700E-002  0.2388322E+03  0.7818608E-02  0.1120613E+00
         21   -1    0    0  501  502  0.00000000000E+00  0.00000000000E+00  0.49027149924E+03  0.49027149924E+03  0.00000000000E+00 0. -1.
         21   -1    0    0  502  503 -0.00000000000E+00 -0.00000000000E+00 -0.16703691493E+03  0.16703691493E+03  0.00000000000E+00 0.  1.
         -6    2    1    2    0  503  0.16389565647E+03 -0.16328613054E+02 -0.19582073302E+02  0.23963366776E+03  0.17295209543E+03 0.  0.
        -24    2    3    3    0    0  0.14345261078E+03  0.17373060266E+02 -0.67472326355E+02  0.17743007269E+03  0.77771724344E+02 0.  0.
          6    2    1    2  501    0 -0.16389565647E+03  0.16328613054E+02  0.34281665761E+03  0.41767474641E+03  0.17262828054E+03 0.  0.
         24    2    5    5    0    0 -0.10951118207E+03 -0.82929067154E+00  0.10326094288E+03  0.17138001408E+03  0.81944494503E+02 0.  0.
          5    1    5    5  501    0 -0.54384474399E+02  0.17157903725E+02  0.23955571473E+03  0.24629473233E+03  0.47000000000E+01 0. -1.
        -11    1    6    6    0    0 -0.79766271376E+02 -0.34726531976E+02  0.45743249528E+02  0.98290563889E+02  0.00000000000E+00 0.  1.
         12    1    6    6    0    0 -0.29744910696E+02  0.33897241305E+02  0.57517693353E+02  0.73089450190E+02  0.00000000000E+00 0. -1.
         -5    1    3    3    0  503  0.20443045689E+02 -0.33701673320E+02  0.47890253053E+02  0.62203595066E+02  0.47000000000E+01 0.  1.
         13    1    4    4    0    0  0.47998496425E+02 -0.52224574899E+01  0.13611856756E+02  0.50163855171E+02  0.00000000000E+00 0. -1.
        -14    1    4    4    0    0  0.95454114358E+02  0.22595517756E+02 -0.81084183112E+02  0.12726621752E+03  0.00000000000E+00 0.  1.
</event>
<event>
12    1  0.8449700E-002  0.1905732E+03  0.7818608E-02  0.1159242E+00
         21   -1    0    0  501  502  0.00000000000E+00  0.00000000000E+00  0.21922216264E+02  0.21922216264E+02  0.00000000000E+00 0.  1.
         21   -1    0    0  502  503 -0.00000000000E+00 -0.00000000000E+00 -0.17767574034E+04  0.17767574034E+04  0.00000000000E+00 0.  1.
         -6    2    1    2    0  503 -0.44345692078E+02  0.68360984062E+02 -0.11668348929E+04  0.11822951382E+04  0.17227408967E+03 0.  0.
        -24    2    3    3    0    0 -0.48824185520E+02  0.57524996466E+02 -0.11638857176E+04  0.11693235089E+04  0.83633597268E+02 0.  0.
          6    2    1    2  501    0  0.44345692078E+02 -0.68360984062E+02 -0.58800029430E+03  0.61638448152E+03  0.16596902851E+03 0.  0.
         24    2    5    5    0    0  0.74458640088E+02 -0.40776194267E+02 -0.54225919249E+03  0.55488611846E+03  0.81527820466E+02 0.  0.
          5    1    5    5  501    0 -0.30112948011E+02 -0.27584789795E+02 -0.45741101802E+02  0.61498363068E+02  0.47000000000E+01 0. -1.
        -13    1    6    6    0    0  0.12593525386E+02  0.17954250900E+02 -0.23451774639E+03  0.23554092081E+03  0.00000000000E+00 0.  1.
         14    1    6    6    0    0  0.61865114702E+02 -0.58730445166E+02 -0.30774144611E+03  0.31934519764E+03  0.00000000000E+00 0. -1.
         -5    1    3    3    0  503  0.44784934423E+01  0.10835987596E+02 -0.29491752867E+01  0.12971629256E+02  0.47000000000E+01 0.  1.
         11    1    4    4    0    0 -0.31792276337E+02 -0.15819384063E+02 -0.28148103941E+03  0.28371213808E+03  0.00000000000E+00 0. -1.
        -12    1    4    4    0    0 -0.17031909183E+02  0.73344380529E+02 -0.88240467819E+03  0.88561137085E+03  0.00000000000E+00 0.  1.
</event>
<event>
12    1  0.8449700E-002  0.2550465E+03  0.7818608E-02  0.1110617E+00
         21   -1    0    0  501  502  0.00000000000E+00  0.00000000000E+00  0.15513002785E+04  0.15513002785E+04  0.00000000000E+00 0.  1.
         21   -1    0    0  502  503 -0.00000000000E+00 -0.00000000000E+00 -0.50179764930E+02  0.50179764930E+02  0.00000000000E+00 0. -1.
         -6    2    1    2    0  503 -0.21376117285E+02  0.18483801130E+03  0.42010789445E+03  0.49146654224E+03  0.17443248077E+03 0.  0.
        -24    2    3    3    0    0  0.20386083567E+02  0.17697872925E+03  0.39803671511E+03  0.44335129838E+03  0.79938002136E+02 0.  0.
          6    2    1    2  501    0  0.21376117285E+02 -0.18483801130E+03  0.10810126191E+04  0.11100135012E+04  0.17005781758E+03 0.  0.
         24    2    5    5    0    0  0.42630795463E+02 -0.45570986779E+02  0.60549303160E+03  0.61404169395E+03  0.80816403250E+02 0.  0.
          5    1    5    5  501    0 -0.21254678178E+02 -0.13926702452E+03  0.47551958752E+03  0.49597180724E+03  0.47000000000E+01 0. -1.
        -11    1    6    6    0    0  0.38497343765E+02 -0.32779731886E+02  0.59458291609E+03  0.59672891701E+03  0.00000000000E+00 0.  1.
         12    1    6    6    0    0  0.41334516982E+01 -0.12791254893E+02  0.10910115514E+02  0.17312776936E+02  0.00000000000E+00 0. -1.
         -5    1    3    3    0  503 -0.41762200852E+02  0.78592820489E+01  0.22071179338E+02  0.48115243859E+02  0.47000000000E+01 0.  1.
         11    1    4    4    0    0  0.35857170047E+02  0.59697185205E+02  0.93030375651E+02  0.11620732059E+03  0.00000000000E+00 0. -1.
        -12    1    4    4    0    0 -0.15471086480E+02  0.11728154405E+03  0.30500633946E+03  0.32714397779E+03  0.00000000000E+00 0.  1.
</event>
<event>
12    1  0.8449700E-002  0.1996364E+03  0.7818608E-02  0.1152535E+00
         21   -1    0    0  501  502  0.00000000000E+00  0.00000000000E+00  0.29081503156E+02  0.29081503156E+02  0.00000000000E+00 0. -1.
         21   -1    0    0  502  503 -0.00000000000E+00 -0.00000000000E+00 -0.18957225634E+04  0.18957225634E+04  0.00000000000E+00 0. -1.
         -6    2    1    2    0  503 -0.80962795148E+02  0.18008344743E+02 -0.14569752770E+04  0.14690840382E+04  0.16897242025E+03 0.  0.
        -24    2    3    3    0    0 -0.18820929112E+02  0.57474115980E+01 -0.32845596423E+03  0.33877882663E+03  0.80625757796E+02 0.  0.
          6    2    1    2  501    0  0.80962795148E+02 -0.18008344743E+02 -0.40966578326E+03  0.45572002838E+03  0.18159134234E+03 0.  0.
         24    2    5    5    0    0  0.79976341894E+02  0.46409331342E+02 -0.33434257481E+03  0.35649157574E+03  0.82165959773E+02 0.  0.
          5    1    5    5  501    0  0.98645325409E+00 -0.64417676085E+02 -0.75323208454E+02  0.99228452644E+02  0.47000000000E+01 0. -1.
        -11    1    6    6    0    0  0.57123581552E+02  0.20622247294E+01 -0.26483413787E+03  0.27093260587E+03  0.00000000000E+00 0.  1.
         12    1    6    6    0    0  0.22852760342E+02  0.44347106612E+02 -0.69508436937E+02  0.85558969872E+02  0.00000000000E+00 0. -1.
         -5    1    3    3    0  503 -0.62141866036E+02  0.12260933145E+02 -0.11285193128E+04  0.11303052116E+04  0.47000000000E+01 0.  1.
         11    1    4    4    0    0 -0.26305096035E+02  0.40025822347E+02 -0.18688553035E+03  0.19292544152E+03  0.00000000000E+00 0. -1.
        -12    1    4    4    0    0  0.74841669234E+01 -0.34278410749E+02 -0.14157043388E+03  0.14585338511E+03  0.00000000000E+00 0.  1.
</event>
<event>
12    1  0.8449700E-002  0.1911279E+03  0.7818608E-02  0.1157713E+00
         21   -1    0    0  501  502  0.00000000000E+00  0.00000000000E+00  0.70818569980E+02  0.70818569980E+02  0.00000000000E+00 0.  1.
         21   -1    0    0  502  503 -0.00000000000E+00 -0.00000000000E+00 -0.63847218073E+03  0.63847218073E+03  0.00000000000E+00 0. -1.
         -6    2    1    2    0  503  0.20960493881E+02 -0.78530900386E+02 -0.44055825612E+03  0.47976277936E+03  0.17168081665E+03 0.  0.
        -24    2    3    3    0    0 -0.51855014819E+02 -0.64850924455E+02 -0.26405048262E+03  0.28827825217E+03  0.80542587092E+02 0.  0.
          6    2    1    2  501    0 -0.20960493881E+02  0.78530900386E+02 -0.12709535463E+03  0.22952797135E+03  0.17298386007E+03 0.  0.
         24    2    5    5    0    0 -0.58994965061E+02  0.66127815069E+02 -0.28044797183E+02  0.12260014310E+03  0.79943671491E+02 0.  0.
          5    1    5    5  501    0  0.38034471179E+02  0.12403085317E+02 -0.99050557443E+02  0.10692782824E+03  0.47000000000E+01 0. -1.
        -11    1    6    6    0    0 -0.28539933188E-01  0.43785374260E+02  0.14964241354E+02  0.46271895713E+02  0.00000000000E+00 0.  1.
         12    1    6    6    0    0 -0.58966425127E+02  0.22342440809E+02 -0.43009038538E+02  0.76328247390E+02  0.00000000000E+00 0. -1.
         -5    1    3    3    0  503  0.72815508701E+02 -0.13679975930E+02 -0.17650777350E+03  0.19148452720E+03  0.47000000000E+01 0.  1.
         11    1    4    4    0    0 -0.64331712113E+02 -0.22817710326E+02 -0.12427038481E+03  0.14178274094E+03  0.00000000000E+00 0. -1.
        -12    1    4    4    0    0  0.12476697293E+02 -0.42033214129E+02 -0.13978009781E+03  0.14649551123E+03  0.00000000000E+00 0.  1.
</event>
<event>
12    1  0.8449700E-002  0.2400111E+03  0.7818608E-02  0.1120009E+00
         21   -1    0    0  501  502  0.00000000000E+00  0.00000000000E+00  0.11219753322E+03  0.11219753322E+03  0.00000000000E+00 0. -1.
         21   -1    0    0  502  503 -0.00000000000E+00 -0.00000000000E+00 -0.83015227806E+03  0.83015227806E+03  0.00000000000E+00 0. -1.
         -6    2    1    2    0  503  0.14479915599E+03  0.83330211496E+02 -0.65193497367E+03  0.69471183209E+03  0.17232121178E+03 0.  0.
        -24    2    3    3    0    0  0.66802745955E+02 -0.18644720208E+02 -0.22187957890E+03  0.24587772103E+03  0.80094155287E+02 0.  0.
          6    2    1    2  501    0 -0.14479915599E+03 -0.83330211496E+02 -0.66019771166E+02  0.24763797919E+03  0.17045597328E+03 0.  0.
         24    2    5    5    0    0 -0.58844472965E+02 -0.38926124955E+02 -0.98482050141E+02  0.14548211792E+03  0.80550712170E+02 0.  0.
          5    1    5    5  501    0 -0.85954683026E+02 -0.44404086542E+02  0.32462278975E+02  0.10215586127E+03  0.47000000000E+01 0. -1.
        -11    1    6    6    0    0 -0.23971578600E+02 -0.30204412424E+02  0.21516246872E+01  0.38620882942E+02  0.00000000000E+00 0.  1.
         12    1    6    6    0    0 -0.34872894365E+02 -0.87217125310E+01 -0.10063367483E+03  0.10686123497E+03  0.00000000000E+00 0. -1.
         -5    1    3    3    0  503  0.77996410036E+02  0.10197493170E+03 -0.43005539478E+03  0.44883411106E+03  0.47000000000E+01 0.  1.
         11    1    4    4    0    0  0.13093690457E+02  0.12832273342E+02 -0.14859247260E+03  0.14971918676E+03  0.00000000000E+00 0. -1.
        -12    1    4    4    0    0  0.53709055499E+02 -0.31476993550E+02 -0.73287106292E+02  0.96158534276E+02  0.00000000000E+00 0.  1.
</event>
<event>
12    1  0.8449700E-002  0.2140079E+03  0.7818608E-02  0.1138864E+00
         21   -1    0    0  501  502  0.00000000000E+00  0.00000000000E+00  0.21010170893E+04  0.21010170893E+04  0.00000000000E+00 0. -1.
         21   -1    0    0  502  503 -0.00000000000E+00 -0.00000000000E+00 -0.26353561780E+02  0.26353561780E+02  0.00000000000E+00 0. -1.
         -6    2    1    2    0  503 -0.12647862215E+03  0.88317523462E+01  0.57982355684E+03  0.61728922180E+03  0.16963426711E+03 0.  0.
        -24    2    3    3    0    0 -0.83951167995E+02 -0.88068002415E+01  0.17507017654E+03  0.20989863311E+03  0.79262293236E+02 0.  0.
          6    2    1    2  501    0  0.12647862215E+03 -0.88317523462E+01  0.14948399707E+04  0.15100814293E+04  0.17240807229E+03 0.  0.
         24    2    5    5    0    0  0.89167514169E+02 -0.23543057741E+02  0.14176869121E+04  0.14229997106E+04  0.81159561328E+02 0.  0.
          5    1    5    5  501    0  0.37311107981E+02  0.14711305395E+02  0.77153058626E+02  0.87081718750E+02  0.47000000000E+01 0. -1.
        -11    1    6    6    0    0  0.21489449163E+02  0.23093969492E+02  0.68330388914E+03  0.68403167526E+03  0.00000000000E+00 0.  1.
         12    1    6    6    0    0  0.67678065006E+02 -0.46637027233E+02  0.73438302296E+03  0.73896803531E+03  0.00000000000E+00 0. -1.
         -5    1    3    3    0  503 -0.42527454155E+02  0.17638552588E+02  0.40475338029E+03  0.40739058869E+03  0.47000000000E+01 0.  1.
         11    1    4    4    0    0 -0.52506189526E+02 -0.33855624347E+02  0.15007497924E+03  0.16255953565E+03  0.00000000000E+00 0. -1.
        -12    1    4    4    0    0 -0.31444978469E+02  0.25048824105E+02  0.24995197307E+02  0.47339097461E+02  0.00000000000E+00 0.  1.
</event>
<event>
12    1  0.8449700E-002  0.1814946E+03  0.7818608E-02  0.1166993E+00
         21   -1    0    0  503  502  0.00000000000E+00  0.00000000000E+00  0.72112354506E+02  0.72112354506E+02  0.00000000000E+00 0.  1.
         21   -1    0    0  501  503 -0.00000000000E+00 -0.00000000000E+00 -0.48995174060E+03  0.48995174060E+03  0.00000000000E+00 0. -1.
          6    2    1    2  501    0  0.28406478178E+02  0.38048879648E+02 -0.28752069527E+03  0.33862894443E+03  0.17247250955E+03 0.  0.
         24    2    3    3    0    0 -0.47668771187E+02  0.10935009855E+02 -0.11150434770E+03  0.14491149526E+03  0.78576305042E+02 0.  0.
         -6    2    1    2    0  502 -0.28406478178E+02 -0.38048879648E+02 -0.13031869082E+03  0.22343515068E+03  0.17517322894E+03 0.  0.
        -24    2    5    5    0    0 -0.11431515165E+01  0.37648748783E+02 -0.10939687980E+03  0.14016911854E+03  0.79126287684E+02 0.  0.
          5    1    3    3  501    0  0.76075249365E+02  0.27113869793E+02 -0.17601634757E+03  0.19371744917E+03  0.47000000000E+01 0. -1.
        -13    1    4    4    0    0 -0.30366455259E+02  0.44792880841E+02 -0.72150711568E+02  0.90190071288E+02  0.00000000000E+00 0.  1.
         14    1    4    4    0    0 -0.17302315928E+02 -0.33857870987E+02 -0.39353636134E+02  0.54721423968E+02  0.00000000000E+00 0. -1.
         -5    1    5    5    0  502 -0.27263326661E+02 -0.75697628431E+02 -0.20921811016E+02  0.83266032131E+02  0.47000000000E+01 0.  1.
         13    1    6    6    0    0 -0.39447423257E+02  0.13676430406E+02 -0.43764045767E+02  0.60485003531E+02  0.00000000000E+00 0. -1.
        -14    1    6    6    0    0  0.38304271740E+02  0.23972318377E+02 -0.65632834036E+02  0.79684115014E+02  0.00000000000E+00 0.  1.
</event>
<event>
12    1  0.8449700E-002  0.2439513E+03  0.7818608E-02  0.1117284E+00
         21   -1    0    0  503  502  0.00000000000E+00  0.00000000000E+00  0.57199015110E+03  0.57199015110E+03  0.00000000000E+00 0. -1.
         21   -1    0    0  501  503 -0.00000000000E+00 -0.00000000000E+00 -0.11247486133E+03  0.11247486133E+03  0.00000000000E+00 0. -1.
          6    2    1    2  501    0 -0.17119744288E+03 -0.13668239832E+02  0.32508543335E+03  0.40643914689E+03  0.17325373277E+03 0.  0.
         24    2    3    3    0    0 -0.92256575524E+02 -0.64857204111E+02  0.12914572389E+03  0.18903070559E+03  0.79600609328E+02 0.  0.
         -6    2    1    2    0  502  0.17119744288E+03  0.13668239832E+02  0.13442985642E+03  0.27802586554E+03  0.17242856602E+03 0.  0.
        -24    2    5    5    0    0  0.17367501617E+03 -0.33660187843E+02  0.94729087068E+02  0.21602296623E+03  0.79976887373E+02 0.  0.
          5    1    3    3  501    0 -0.78940867361E+02  0.51188964279E+02  0.19593970946E+03  0.21740844130E+03  0.47000000000E+01 0. -1.
        -13    1    4    4    0    0 -0.10612459167E+02 -0.54547414233E+02  0.47439930655E+02  0.73065667106E+02  0.00000000000E+00 0.  1.
         14    1    4    4    0    0 -0.81644116357E+02 -0.10309789878E+02  0.81705793234E+02  0.11596503849E+03  0.00000000000E+00 0. -1.
         -5    1    5    5    0  502 -0.24775732880E+01  0.47328427675E+02  0.39700769350E+02  0.62002899308E+02  0.47000000000E+01 0.  1.
         11    1    6    6    0    0  0.41129330485E+02  0.15210544565E+02  0.52858257049E+02  0.68680257937E+02  0.00000000000E+00 0. -1.
        -12    1    6    6    0    0  0.13254568569E+03 -0.48870732408E+02  0.41870830019E+02  0.14734270829E+03  0.00000000000E+00 0.  1.
</event>
<event>
12    1  0.8449700E-002  0.1835291E+03  0.7818608E-02  0.1164439E+00
         21   -1    0    0  501  502  0.00000000000E+00  0.00000000000E+00  0.17614816508E+03  0.17614816508E+03  0.00000000000E+00 0. -1.
         21   -1    0    0  502  503 -0.00000000000E+00 -0.00000000000E+00 -0.20492174434E+03  0.20492174434E+03  0.00000000000E+00 0. -1.
         -6    2    1    2    0  503 -0.27006868374E+02 -0.57723480228E+02 -0.63721972068E+02  0.19427667357E+03  0.17210916611E+03 0.  0.
        -24    2    3    3    0    0 -0.79709649740E+02 -0.20016051278E+02 -0.19597448394E+02  0.11573689415E+03  0.79099292754E+02 0.  0.
          6    2    1    2  501    0  0.27006868374E+02  0.57723480228E+02  0.34948392803E+02  0.18679323584E+03  0.17207251869E+03 0.  0.
         24    2    5    5    0    0 -0.43435107415E+02  0.17681999989E+02  0.65309242647E+02  0.10013723031E+03  0.59690083250E+02 0.  0.
          5    1    5    5  501    0  0.70441975789E+02  0.40041480239E+02 -0.30360849843E+02  0.86656005539E+02  0.47000000000E+01 0. -1.
        -13    1    6    6    0    0 -0.12318099746E+02 -0.21998189431E+02  0.17862100505E+02  0.30898390800E+02  0.00000000000E+00 0.  1.
         14    1    6    6    0    0 -0.31117007669E+02  0.39680189420E+02  0.47447142141E+02  0.69238839505E+02  0.00000000000E+00 0. -1.
         -5    1    3    3    0  503  0.52702781365E+02 -0.37707428950E+02 -0.44124523675E+02  0.78539779419E+02  0.47000000000E+01 0.  1.
         11    1    4    4    0    0 -0.50521966297E+01 -0.37090395863E+02 -0.48652490360E+01  0.37747752307E+02  0.00000000000E+00 0. -1.
        -12    1    4    4    0    0 -0.74657453110E+02  0.17074344585E+02 -0.14732199358E+02  0.77989141845E+02  0.00000000000E+00 0.  1.
</event>
<event>
12    1  0.8449700E-002  0.2778450E+03  0.7818608E-02  0.1097030E+00
         21   -1    0    0  503  502  0.00000000000E+00  0.00000000000E+00  0.29956272912E+03  0.29956272912E+03  0.00000000000E+00 0.  1.
         21   -1    0    0  501  503 -0.00000000000E+00 -0.00000000000E+00 -0.50521789743E+03  0.50521789743E+03  0.00000000000E+00 0.  1.
          6    2    1    2  501    0  0.19167168611E+02 -0.21695124032E+03 -0.38497209933E+03  0.47409588978E+03  0.17066978178E+03 0.  0.
         24    2    3    3    0    0  0.47865837505E+02 -0.17828419528E+03 -0.37352108482E+03  0.42437698290E+03  0.80631446195E+02 0.  0.
         -6    2    1    2    0  502 -0.19167168611E+02  0.21695124032E+03  0.17931693101E+03  0.33068473678E+03  0.17251844064E+03 0.  0.
        -24    2    5    5    0    0  0.71213772948E+01  0.44575171054E+02  0.33261496775E+02  0.10317896373E+03  0.86613575718E+02 0.  0.
          5    1    3    3  501    0 -0.28698668893E+02 -0.38667045040E+02 -0.11451014501E+02  0.49718906882E+02  0.47000000000E+01 0. -1.
        -11    1    4    4    0    0  0.65607021022E+02 -0.90026025063E+02 -0.20956146632E+03  0.23732883214E+03  0.00000000000E+00 0.  1.
         12    1    4    4    0    0 -0.17741183517E+02 -0.88258170220E+02 -0.16395961850E+03  0.18704815076E+03  0.00000000000E+00 0. -1.
         -5    1    5    5    0  502 -0.26288545906E+02  0.17237606927E+03  0.14605543423E+03  0.22750577305E+03  0.47000000000E+01 0.  1.
         11    1    6    6    0    0 -0.21654634865E+02  0.25005707387E+02  0.53515999598E+02  0.62913995470E+02  0.00000000000E+00 0. -1.
        -12    1    6    6    0    0  0.28776012160E+02  0.19569463667E+02 -0.20254502822E+02  0.40264968255E+02  0.00000000000E+00 0.  1.
</event>
<event>
12    1  0.8449700E-002  0.3288881E+03  0.7818608E-02  0.1071716E+00
         21   -1    0    0  501  502  0.00000000000E+00  0.00000000000E+00  0.10066091651E+04  0.10066091651E+04  0.00000000000E+00 0. -1.
         21   -1    0    0  502  503 -0.00000000000E+00 -0.00000000000E+00 -0.17414902199E+03  0.17414902199E+03  0.00000000000E+00 0.  1.
         -6    2    1    2    0  503  0.19108467981E+02  0.27895917666E+03  0.50493350084E+02  0.33274153453E+03  0.17315887101E+03 0.  0.
        -24    2    3    3    0    0 -0.55785972659E+02  0.15042493197E+03  0.17189634793E+02  0.18022446418E+03  0.80284737285E+02 0.  0.
          6    2    1    2  501    0 -0.19108467981E+02 -0.27895917666E+03  0.78196679299E+03  0.84801665252E+03  0.17168815283E+03 0.  0.
         24    2    5    5    0    0  0.25586174073E+02 -0.24666768596E+03  0.53608337323E+03  0.59598273117E+03  0.79438235090E+02 0.  0.
          5    1    5    5  501    0 -0.44694642054E+02 -0.32291490697E+02  0.24588341975E+03  0.25203392135E+03  0.47000000000E+01 0. -1.
        -13    1    6    6    0    0 -0.20161819918E+02 -0.14207794627E+03  0.25504980240E+03  0.29264832735E+03  0.00000000000E+00 0.  1.
         14    1    6    6    0    0  0.45747993991E+02 -0.10458973969E+03  0.28103357084E+03  0.30333440382E+03  0.00000000000E+00 0. -1.
         -5    1    3    3    0  503  0.74894440641E+02  0.12853424469E+03  0.33303715291E+02  0.15251707035E+03  0.47000000000E+01 0.  1.
         13    1    4    4    0    0 -0.57400864317E+02  0.13908269149E+03  0.39135225179E+02  0.15546838954E+03  0.00000000000E+00 0. -1.
        -14    1    4    4    0    0  0.16148916580E+01  0.11342240482E+02 -0.21945590387E+02  0.24756074641E+02  0.00000000000E+00 0.  1.
</event>
<event>
12    1  0.8449700E-002  0.2093435E+03  0.7818608E-02  0.1142366E+00
         21   -1    0    0  503  502  0.00000000000E+00  0.00000000000E+00  0.35548174899E+03  0.35548174899E+03  0.00000000000E+00 0. -1.
         21   -1    0    0  501  503 -0.00000000000E+00 -0.00000000000E+00 -0.15130033817E+03  0.15130033817E+03  0.00000000000E+00 0. -1.
          6    2    1    2  501    0 -0.11549596797E+03 -0.30280334698E+02 -0.82593057724E+01  0.20950640201E+03  0.17195493324E+03 0.  0.
         24    2    3    3    0    0 -0.12517975386E+03  0.24659196500E+02 -0.23394162435E+02  0.15151259473E+03  0.78298996010E+02 0.  0.
         -6    2    1    2    0  502  0.11549596797E+03  0.30280334698E+02  0.21244071660E+03  0.29727568515E+03  0.17025145412E+03 0.  0.
        -24    2    5    5    0    0 -0.83764207851E+00 -0.18869185512E+02  0.91769933390E+02  0.12253956387E+03  0.78977694524E+02 0.  0.
          5    1    3    3  501    0  0.96837858923E+01 -0.54939531197E+02  0.15134856663E+02  0.57993807287E+02  0.47000000000E+01 0. -1.
        -11    1    4    4    0    0 -0.38780642554E+02  0.42611881845E+02  0.73102752813E+01  0.58078832943E+02  0.00000000000E+00 0.  1.
         12    1    4    4    0    0 -0.86399111305E+02 -0.17952685346E+02 -0.30704437716E+02  0.93433761783E+02  0.00000000000E+00 0. -1.
         -5    1    5    5    0  502  0.11633361005E+03  0.49149520209E+02  0.12067078321E+03  0.17473612129E+03  0.47000000000E+01 0.  1.
         11    1    6    6    0    0  0.21015531269E+02  0.15882982378E+01  0.90128870820E+02  0.92560189073E+02  0.00000000000E+00 0. -1.
        -12    1    6    6    0    0 -0.21853173348E+02 -0.20457483749E+02  0.16410625698E+01  0.29979374795E+02  0.00000000000E+00 0.  1.
</event>
<event>
12    1  0.8449700E-002  0.1742335E+03  0.7818608E-02  0.1174364E+00
         21   -1    0    0  503  502  0.00000000000E+00  0.00000000000E+00  0.10648653635E+03  0.10648653635E+03  0.00000000000E+00 0.  1.
         21   -1    0    0  501  503 -0.00000000000E+00 -0.00000000000E+00 -0.29635887025E+03  0.29635887025E+03  0.00000000000E+00 0.  1.
          6    2    1    2  501    0 -0.21951278545E+02  0.17325406572E+02 -0.14197183907E+03  0.22214741556E+03  0.16855694234E+03 0.  0.
         24    2    3    3    0    0 -0.50913659936E+02  0.39286091244E+02 -0.35562903555E+02  0.10960390058E+03  0.81318492238E+02 0.  0.
         -6    2    1    2    0  502  0.21951278545E+02 -0.17325406572E+02 -0.47900494827E+02  0.18069799103E+03  0.17197464411E+03 0.  0.
        -24    2    5    5    0    0  0.69834422588E+02 -0.28592161940E+02  0.28757728233E+01  0.10984564727E+03  0.79771159277E+02 0.  0.
          5    1    3    3  501    0  0.28962381392E+02 -0.21960684672E+02 -0.10640893551E+03  0.11254351498E+03  0.47000000000E+01 0. -1.
        -11    1    4    4    0    0 -0.35964814064E+02  0.58390768277E+01  0.21118450022E+02  0.42113556015E+02  0.00000000000E+00 0.  1.
         12    1    4    4    0    0 -0.14948845872E+02  0.33447014416E+02 -0.56681353577E+02  0.67490344565E+02  0.00000000000E+00 0. -1.
         -5    1    5    5    0  502 -0.47883144044E+02  0.11266755369E+02 -0.50776267650E+02  0.70852343762E+02  0.47000000000E+01 0.  1.
         11    1    6    6    0    0 -0.45268053385E+01  0.60828024085E+01  0.23960285845E+02  0.25131409620E+02  0.00000000000E+00 0. -1.
        -12    1    6    6    0    0  0.74361227927E+02 -0.34674964349E+02 -0.21084513022E+02  0.84714237651E+02  0.00000000000E+00 0.  1.
</event>
<event>
12    1  0.8449700E-002  0.1800067E+03  0.7818608E-02  0.1167885E+00
         21   -1    0    0  501  502  0.00000000000E+00  0.00000000000E+00  0.40884838079E+03  0.40884838079E+03  0.00000000000E+00 0.  1.
         21   -1    0    0  502  503 -0.00000000000E+00 -0.00000000000E+00 -0.29551818355E+03  0.29551818355E+03  0.00000000000E+00 0. -1.
         -6    2    1    2    0  503 -0.51482389367E+02 -0.97886530834E+01 -0.24474248022E+03  0.30359424850E+03  0.17182645883E+03 0.  0.
        -24    2    3    3    0    0 -0.20392885281E+02 -0.68510072625E+02 -0.18547208631E+03  0.21443241826E+03  0.80447917187E+02 0.  0.
          6    2    1    2  501    0  0.51482389367E+02  0.97886530834E+01  0.35807267746E+03  0.40077231584E+03  0.17220961837E+03 0.  0.
         24    2    5    5    0    0  0.86222226170E+02  0.47018148719E+02  0.27778117312E+03  0.30557931571E+03  0.81063922007E+02 0.  0.
          5    1    5    5  501    0 -0.34739836803E+02 -0.37229495635E+02  0.80291504334E+02  0.95193000135E+02  0.47000000000E+01 0. -1.
        -13    1    6    6    0    0  0.47676231378E+02 -0.42197390905E+01  0.19545709839E+03  0.20123197198E+03  0.00000000000E+00 0.  1.
         14    1    6    6    0    0  0.38545994792E+02  0.51237887809E+02  0.82324074728E+02  0.10434734372E+03  0.00000000000E+00 0. -1.
         -5    1    3    3    0  503 -0.31089504086E+02  0.58721419542E+02 -0.59270393907E+02  0.89161830237E+02  0.47000000000E+01 0.  1.
         13    1    4    4    0    0  0.30858783622E+02 -0.19699035945E+02 -0.70006388719E+02  0.79001335465E+02  0.00000000000E+00 0. -1.
        -14    1    4    4    0    0 -0.51251668902E+02 -0.48811036680E+02 -0.11546569760E+03  0.13543108280E+03  0.00000000000E+00 0.  1.
</event>
<event>
12    1  0.8449700E-002  0.1986364E+03  0.7818608E-02  0.1150927E+00
         21   -1    0    0  503  502  0.00000000000E+00  0.00000000000E+00  0.64505696490E+03  0.64505696490E+03  0.00000000000E+00 0. -1.
         21   -1    0    0  501  503 -0.00000000000E+00 -0.00000000000E+00 -0.71203045594E+02  0.71203045594E+02  0.00000000000E+00 0. -1.
          6    2    1    2  501    0 -0.96049905185E+02  0.18924176110E+02  0.15207222284E+03  0.25004522766E+03  0.17266425858E+03 0.  0.
         24    2    3    3    0    0 -0.49112308880E+02  0.40019604868E+02  0.17665506781E+02  0.10604727496E+03  0.83188741660E+02 0.  0.
         -6    2    1    2    0  502  0.96049905185E+02 -0.18924176110E+02  0.42178169647E+03  0.46621478283E+03  0.17283725156E+03 0.  0.
        -24    2    5    5    0    0  0.41548026605E+02 -0.60231587917E+02  0.35310120433E+03  0.36917944371E+03  0.79113326677E+02 0.  0.
          5    1    3    3  501    0 -0.46937596305E+02 -0.21095428758E+02  0.13440671606E+03  0.14399795270E+03  0.47000000000E+01 0. -1.
        -13    1    4    4    0    0  0.20644903452E+02  0.11145676494E+02 -0.10185628080E+02  0.25577043661E+02  0.00000000000E+00 0.  1.
         14    1    4    4    0    0 -0.69757212332E+02  0.28873928374E+02  0.27851134862E+02  0.80470231298E+02  0.00000000000E+00 0. -1.
         -5    1    5    5    0  502  0.54501878580E+02  0.41307411806E+02  0.68680492133E+02  0.97035339122E+02  0.47000000000E+01 0.  1.
         13    1    6    6    0    0  0.11339671933E+02 -0.25762109465E+02  0.28905827492E+03  0.29042548226E+03  0.00000000000E+00 0. -1.
        -14    1    6    6    0    0  0.30208354672E+02 -0.34469478452E+02  0.64042929411E+02  0.78753961451E+02  0.00000000000E+00 0.  1.
</event>
<event>
12    1  0.8449700E-002  0.1818992E+03  0.7818608E-02  0.1166358E+00
         21   -1    0    0  503  502  0.00000000000E+00  0.00000000000E+00  0.17357074217E+03  0.17357074217E+03  0.00000000000E+00 0.  1.
         21   -1    0    0  501  503 -0.00000000000E+00 -0.00000000000E+00 -0.47253526574E+03  0.47253526574E+03  0.00000000000E+00 0.  1.
          6    2    1    2  501    0  0.11120063023E+01 -0.54715579565E+02 -0.39947530188E+03  0.43828459177E+03  0.17180755330E+03 0.  0.
         24    2    3    3    0    0 -0.42307320082E+02 -0.78283098679E+02 -0.22903971968E+03  0.26077108936E+03  0.87316750867E+02 0.  0.
         -6    2    1    2    0  502 -0.11120063023E+01  0.54715579565E+02  0.10051077831E+03  0.20782141614E+03  0.17347130381E+03 0.  0.
        -24    2    5    5    0    0  0.41474039709E+02 -0.21028067896E+02  0.58714833487E+02  0.11128301731E+03  0.82305544528E+02 0.  0.
          5    1    3    3  501    0  0.43419326384E+02  0.23567519114E+02 -0.17043558219E+03  0.17751350241E+03  0.47000000000E+01 0. -1.
        -13    1    4    4    0    0 -0.83105881698E+01 -0.19295796829E+01 -0.13374368207E+03  0.13401552763E+03  0.00000000000E+00 0.  1.
         14    1    4    4    0    0 -0.33996731912E+02 -0.76353518996E+02 -0.95296037618E+02  0.12675556173E+03  0.00000000000E+00 0. -1.
         -5    1    5    5    0  502 -0.42586046011E+02  0.75743647461E+02  0.41795944824E+02  0.96538398833E+02  0.47000000000E+01 0.  1.
         13    1    6    6    0    0 -0.16029073273E+02 -0.26453187991E+02  0.40009089480E+02  0.50571035049E+02  0.00000000000E+00 0. -1.
        -14    1    6    6    0    0  0.57503112982E+02  0.54251200951E+01  0.18705744007E+02  0.60711982257E+02  0.00000000000E+00 0.  1.
</event>
<event>
12    1  0.8449700E-002  0.1941987E+03  0.7818608E-02  0.1154755E+00
         21   -1    0    0  501  502  0.00000000000E+00  0.00000000000E+00  0.27444224679E+03  0.27444224679E+03  0.00000000000E+00 0. -1.
         21   -1    0    0  502  503 -0.00000000000E+00 -0.00000000000E+00 -0.17500116146E+03  0.17500116146E+03  0.00000000000E+00 0. -1.
         -6    2    1    2    0  503 -0.95198418023E+01  0.89668588602E+02 -0.54556059097E+02  0.20159616713E+03  0.17185333237E+03 0.  0.
        -24    2    3    3    0    0 -0.58727741807E+02  0.60142093955E+02  0.86520831659E+01  0.11609417559E+03  0.79605150210E+02 0.  0.
          6    2    1    2  501    0  0.95198418023E+01 -0.89668588602E+02  0.15399714442E+03  0.24784724111E+03  0.17199433498E+03 0.  0.
         24    2    5    5    0    0 -0.41113943889E+02 -0.53078373868E+01  0.45977409718E+02  0.10165945200E+03  0.80636173379E+02 0.  0.
          5    1    5    5  501    0  0.50633785691E+02 -0.84360751216E+02  0.10801973471E+03  0.14618778911E+03  0.47000000000E+01 0. -1.
        -11    1    6    6    0    0 -0.17386535008E+02 -0.36272252566E+02 -0.14496434395E+01  0.40250085365E+02  0.00000000000E+00 0.  1.
         12    1    6    6    0    0 -0.23727408881E+02  0.30964415179E+02  0.47427053157E+02  0.61409366637E+02  0.00000000000E+00 0. -1.
         -5    1    3    3    0  503  0.49207900004E+02  0.29526494648E+02 -0.63208142263E+02  0.85501991540E+02  0.47000000000E+01 0.  1.
         11    1    4    4    0    0 -0.57484774842E+02  0.26660823102E+01 -0.22037160834E+01  0.57588746280E+02  0.00000000000E+00 0. -1.
        -12    1    4    4    0    0 -0.12429669644E+01  0.57476011644E+02  0.10855799249E+02  0.58505429310E+02  0.00000000000E+00 0.  1.
</event>
<event>
12    1  0.8449700E-002  0.1808147E+03  0.7818608E-02  0.1167192E+00
         21   -1    0    0  503  502  0.00000000000E+00  0.00000000000E+00  0.87854824425E+03  0.87854824425E+03  0.00000000000E+00 0.  1.
         21   -1    0    0  501  503 -0.00000000000E+00 -0.00000000000E+00 -0.19526051279E+03  0.19526051279E+03  0.00000000000E+00 0.  1.
          6    2    1    2  501    0 -0.34170565425E+02 -0.41299981965E+02 -0.14149307371E+03  0.22959580144E+03  0.17268649652E+03 0.  0.
         24    2    3    3    0    0 -0.16488666331E+02 -0.44561621223E+02 -0.17105189618E+03  0.19468016265E+03  0.79899939554E+02 0.  0.
         -6    2    1    2    0  502  0.34170565425E+02  0.41299981965E+02  0.82478080517E+03  0.84421295559E+03  0.17192679187E+03 0.  0.
        -24    2    5    5    0    0  0.75224863373E+02  0.66319248873E+02  0.66588784338E+03  0.67813922979E+03  0.80057305563E+02 0.  0.
          5    1    3    3  501    0 -0.17681899094E+02  0.32616392578E+01  0.29558822471E+02  0.34915638790E+02  0.47000000000E+01 0. -1.
        -13    1    4    4    0    0 -0.65828490824E+01 -0.67236362567E+02 -0.13490166282E+03  0.15087253224E+03  0.00000000000E+00 0.  1.
         14    1    4    4    0    0 -0.99058172488E+01  0.22674741344E+02 -0.36150233356E+02  0.43807630409E+02  0.00000000000E+00 0. -1.
         -5    1    5    5    0  502 -0.41054297948E+02 -0.25019266908E+02  0.15889296178E+03  0.16607372580E+03  0.47000000000E+01 0.  1.
         11    1    6    6    0    0  0.58538092902E+02  0.50422917924E+02  0.25123350166E+03  0.26284491878E+03  0.00000000000E+00 0. -1.
        -12    1    6    6    0    0  0.16686770471E+02  0.15896330949E+02  0.41465434173E+03  0.41529431101E+03  0.00000000000E+00 0.  1.
</event>
<event>
12    1  0.8449700E-002  0.1974342E+03  0.7818608E-02  0.1152113E+00
         21   -1    0    0  503  502  0.00000000000E+00  0.00000000000E+00  0.49406766922E+03  0.49406766922E+03  0.00000000000E+00 0. -1.
         21   -1    0    0  501  503 -0.00000000000E+00 -0.00000000000E+00 -0.10009689828E+03  0.10009689828E+03  0.00000000000E+00 0. -1.
          6    2    1    2  501    0 -0.50878698315E+02  0.81081581220E+02  0.58778803485E+02  0.20514798844E+03  0.17166212357E+03 0.  0.
         24    2    3    3    0    0 -0.11603840496E+02  0.92209428066E+02  0.93291868267E+02  0.15148622298E+03  0.74883077727E+02 0.  0.
         -6    2    1    2    0  502  0.50878698315E+02 -0.81081581220E+02  0.33519196745E+03  0.38901657906E+03  0.17267709455E+03 0.  0.
        -24    2    5    5    0    0  0.99725091873E+02 -0.40138308677E+02  0.22650850858E+03  0.26293523245E+03  0.79200089849E+02 0.  0.
          5    1    3    3  501    0 -0.39274857819E+02 -0.11127846845E+02 -0.34513064782E+02  0.53661765464E+02  0.47000000000E+01 0. -1.
        -11    1    4    4    0    0 -0.22285308469E+02  0.10112887049E+03  0.89969182937E+02  0.13717921599E+03  0.00000000000E+00 0.  1.
         12    1    4    4    0    0  0.10681467973E+02 -0.89194424281E+01  0.33226853303E+01  0.14307006993E+02  0.00000000000E+00 0. -1.
         -5    1    5    5    0  502 -0.48846393557E+02 -0.40943272543E+02  0.10868345887E+03  0.12608134661E+03  0.47000000000E+01 0.  1.
         13    1    6    6    0    0  0.50725452306E+02 -0.34094021084E+00  0.17267678064E+03  0.17997349339E+03  0.00000000000E+00 0. -1.
        -14    1    6    6    0    0  0.48999639566E+02 -0.39797368466E+02  0.53831727941E+02  0.82961739058E+02  0.00000000000E+00 0.  1.
</event>
<event>
12    1  0.8449700E-002  0.3262366E+03  0.7818608E-02  0.1072996E+00
         21   -1    0    0  503  502  0.00000000000E+00  0.00000000000E+00  0.47066866382E+03  0.47066866382E+03  0.00000000000E+00 0. -1.
         21   -1    0    0  501  503 -0.00000000000E+00 -0.00000000000E+00 -0.13283193590E+04  0.13283193590E+04  0.00000000000E+00 0.  1.
          6    2    1    2  501    0  0.25988695628E+03  0.94543709008E+02 -0.12487840664E+04  0.12906943653E+04  0.17306229250E+03 0.  0.
         24    2    3    3    0    0  0.12100002133E+03  0.43359783349E+02 -0.33768979518E+03  0.36764277625E+03  0.67865581732E+02 0.  0.
         -6    2    1    2    0  502 -0.25988695628E+03 -0.94543709008E+02  0.39113337126E+03  0.50829365750E+03  0.16999230919E+03 0.  0.
        -24    2    5    5    0    0 -0.12649575885E+03 -0.18927862998E+02  0.28256238839E+03  0.32035559313E+03  0.80167086200E+02 0.  0.
          5    1    3    3  501    0  0.13888693495E+03  0.51183925659E+02 -0.91109427123E+03  0.92305158903E+03  0.47000000000E+01 0. -1.
        -11    1    4    4    0    0  0.24000468465E+02  0.66336000546E+01 -0.15976550044E+03  0.16169428644E+03  0.00000000000E+00 0.  1.
         12    1    4    4    0    0  0.96999552865E+02  0.36726183294E+02 -0.17792429474E+03  0.20594848981E+03  0.00000000000E+00 0. -1.
         -5    1    5    5    0  502 -0.13339119742E+03 -0.75615846010E+02  0.10857098287E+03  0.18793806437E+03  0.47000000000E+01 0.  1.
         11    1    6    6    0    0  0.89248611887E+01 -0.91186960450E+01  0.11445889321E+02  0.17140949424E+02  0.00000000000E+00 0. -1.
        -12    1    6    6    0    0 -0.13542062004E+03 -0.98091669526E+01  0.27111649907E+03  0.30321464371E+03  0.00000000000E+00 0.  1.
</event>
<event>
12    1  0.8449700E-002  0.2034139E+03  0.7818608E-02  0.1147120E+00
         21   -1    0    0  501  502  0.00000000000E+00  0.00000000000E+00  0.14963137204E+03  0.14963137204E+03  0.00000000000E+00 0.  1.
         21   -1    0    0  502  503 -0.00000000000E+00 -0.00000000000E+00 -0.42187504110E+03  0.42187504110E+03  0.00000000000E+00 0.  1.
         -6    2    1    2    0  503  0.92072094310E+02  0.52165409351E+02 -0.30447324427E+03  0.36555504768E+03  0.17241820067E+03 0.  0.
        -24    2    3    3    0    0  0.94560576245E+02  0.12466781241E+02 -0.10767898901E+03  0.16472615902E+03  0.80267176208E+02 0.  0.
          6    2    1    2  501    0 -0.92072094310E+02 -0.52165409351E+02  0.32229575207E+02  0.20595136547E+03  0.17372023180E+03 0.  0.
         24    2    5    5    0    0 -0.27785581253E+02 -0.95374417256E+02  0.84268189691E+01  0.12478218825E+03  0.75041756605E+02 0.  0.
          5    1    5    5  501    0 -0.64286513057E+02  0.43209007905E+02  0.23802756238E+02  0.81169177215E+02  0.47000000000E+01 0. -1.
        -11    1    6    6    0    0 -0.43199253057E+02 -0.83639179326E+02 -0.13972178564E+02  0.95167796847E+02  0.00000000000E+00 0.  1.
         12    1    6    6    0    0  0.15413671804E+02 -0.11735237930E+02  0.22398997533E+02  0.29614391404E+02  0.00000000000E+00 0. -1.
         -5    1    3    3    0  503 -0.24884819353E+01  0.39698628110E+02 -0.19679425526E+03  0.20082888866E+03  0.47000000000E+01 0.  1.
         11    1    4    4    0    0  0.15393337771E+02  0.15892764860E+02  0.88310478619E+01  0.23822725053E+02  0.00000000000E+00 0. -1.
        -12    1    4    4    0    0  0.79167238474E+02 -0.34259836187E+01 -0.11651003687E+03  0.14090343396E+03  0.00000000000E+00 0.  1.
</event>
<event>
12    1  0.8449700E-002  0.1839080E+03  0.7818608E-02  0.1164361E+00
         21   -1    0    0  503  502  0.00000000000E+00  0.00000000000E+00  0.71511789805E+02  0.71511789805E+02  0.00000000000E+00 0. -1.
         21   -1    0    0  501  503 -0.00000000000E+00 -0.00000000000E+00 -0.50441877126E+03  0.50441877126E+03  0.00000000000E+00 0. -1.
          6    2    1    2  501    0 -0.37854831516E+02 -0.46175702276E+02 -0.29118519794E+03  0.34375128793E+03  0.17265846259E+03 0.  0.
         24    2    3    3    0    0 -0.43481931882E+02 -0.22910625209E+02 -0.49013053485E+02  0.10035374148E+03  0.72477712911E+02 0.  0.
         -6    2    1    2    0  502  0.37854831516E+02  0.46175702276E+02 -0.14172178351E+03  0.23217927313E+03  0.17394529945E+03 0.  0.
        -24    2    5    5    0    0  0.80656335934E+02 -0.69198703056E+01 -0.69202909115E+02  0.13251892117E+03  0.78859956303E+02 0.  0.
          5    1    3    3  501    0  0.56271003655E+01 -0.23265077068E+02 -0.24217214446E+03  0.24339754646E+03  0.47000000000E+01 0. -1.
        -11    1    4    4    0    0 -0.12842313394E+02  0.26479071272E+02 -0.15469721523E+02  0.33247233159E+02  0.00000000000E+00 0.  1.
         12    1    4    4    0    0 -0.30639618488E+02 -0.49389696480E+02 -0.33543331962E+02  0.67106508318E+02  0.00000000000E+00 0. -1.
         -5    1    5    5    0  502 -0.42801504418E+02  0.53095572582E+02 -0.72518874392E+02  0.99660351953E+02  0.47000000000E+01 0.  1.
         13    1    6    6    0    0  0.63898989115E+02  0.27962142184E+02 -0.25796739967E+02  0.74366887782E+02  0.00000000000E+00 0. -1.
        -14    1    6    6    0    0  0.16757346819E+02 -0.34882012489E+02 -0.43406169147E+02  0.58152033393E+02  0.00000000000E+00 0.  1.
</event>
<event>
12    1  0.8449700E-002  0.1783680E+03  0.7818608E-02  0.1169619E+00
         21   -1    0    0  503  502  0.00000000000E+00  0.00000000000E+00  0.34248469875E+02  0.34248469875E+02  0.00000000000E+00 0.  1.
         21   -1    0    0  501  503 -0.00000000000E+00 -0.00000000000E+00 -0.15475759634E+04  0.15475759634E+04  0.00000000000E+00 0.  1.
          6    2    1    2  501    0 -0.29853783844E+02  0.32270693738E+02 -0.12574801530E+04  0.12699382231E+04  0.17191308608E+03 0.  0.
         24    2    3    3    0    0 -0.14308188376E+02 -0.41010317914E+02 -0.91005863101E+03  0.91450106105E+03  0.78860055551E+02 0.  0.
         -6    2    1    2    0  502  0.29853783844E+02 -0.32270693738E+02 -0.25584734054E+03  0.31188621021E+03  0.17286555578E+03 0.  0.
        -24    2    5    5    0    0 -0.12335590996E+02  0.11667367844E+02 -0.52879073358E+02  0.99922288547E+02  0.83066076539E+02 0.  0.
          5    1    3    3  501    0 -0.15545595468E+02  0.73281011652E+02 -0.34742152200E+03  0.35543716203E+03  0.47000000000E+01 0. -1.
        -11    1    4    4    0    0 -0.40675529121E+02 -0.10856533388E+02 -0.27748210792E+03  0.28065759067E+03  0.00000000000E+00 0.  1.
         12    1    4    4    0    0  0.26367340745E+02 -0.30153784526E+02 -0.63257652309E+03  0.63384347038E+03  0.00000000000E+00 0. -1.
         -5    1    5    5    0  502  0.42189374840E+02 -0.43938061581E+02 -0.20296826718E+03  0.21196392166E+03  0.47000000000E+01 0.  1.
         11    1    6    6    0    0 -0.18125978053E+00  0.46461884934E+02 -0.38571720507E+02  0.60386399376E+02  0.00000000000E+00 0. -1.
        -12    1    6    6    0    0 -0.12154331215E+02 -0.34794517091E+02 -0.14307352851E+02  0.39535889170E+02  0.00000000000E+00 0.  1.
</event>
<event>
12    1  0.8449700E-002  0.1861515E+03  0.7818608E-02  0.1161980E+00
         21   -1    0    0  503  502  0.00000000000E+00  0.00000000000E+00  0.17242333121E+04  0.17242333121E+04  0.00000000000E+00 0.  1.
         21   -1    0    0  501  503 -0.00000000000E+00 -0.00000000000E+00 -0.33450735815E+02  0.33450735815E+02  0.00000000000E+00 0.  1.
          6    2    1    2  501    0  0.13212280711E+02  0.74437446590E+02  0.29010366290E+03  0.34468942710E+03  0.17010340417E+03 0.  0.
         24    2    3    3    0    0  0.37035164554E+02  0.99675158186E+02  0.27722708737E+03  0.30737497844E+03  0.79484456532E+02 0.  0.
         -6    2    1    2    0  502 -0.13212280711E+02 -0.74437446590E+02  0.14006789134E+04  0.14129946208E+04  0.17010844255E+03 0.  0.
        -24    2    5    5    0    0  0.46933914801E+02 -0.44208246857E+01  0.54994368401E+03  0.55725376478E+03  0.76624844104E+02 0.  0.
          5    1    3    3  501    0 -0.23822883843E+02 -0.25237711596E+02  0.12876575532E+02  0.37314448657E+02  0.47000000000E+01 0. -1.
        -11    1    4    4    0    0  0.31732791705E+02  0.59756335638E+02  0.74297173914E+02  0.10048810760E+03  0.00000000000E+00 0.  1.
         12    1    4    4    0    0  0.53023728483E+01  0.39918822548E+02  0.20292991345E+03  0.20688687084E+03  0.00000000000E+00 0. -1.
         -5    1    5    5    0  502 -0.60146195512E+02 -0.70016621904E+02  0.85073522938E+03  0.85574085604E+03  0.47000000000E+01 0.  1.
         11    1    6    6    0    0  0.97302270168E+01 -0.25972018113E+02  0.68611617455E+02  0.74005250439E+02  0.00000000000E+00 0. -1.
        -12    1    6    6    0    0  0.37203687784E+02  0.21551193428E+02  0.48133206655E+03  0.48324851434E+03  0.00000000000E+00 0.  1.
</event>
<event>
12    1  0.8449700E-002  0.2114839E+03  0.7818608E-02  0.1141206E+00
         21   -1    0    0  503  502  0.00000000000E+00  0.00000000000E+00  0.22813335847E+03  0.22813335847E+03  0.00000000000E+00 0. -1.
         21   -1    0    0  501  503 -0.00000000000E+00 -0.00000000000E+00 -0.20262553733E+03  0.20262553733E+03  0.00000000000E+00 0. -1.
          6    2    1    2  501    0  0.79740485672E+02  0.80103500099E+02  0.61534268279E+02  0.22025415860E+03  0.17874650325E+03 0.  0.
         24    2    3    3    0    0  0.46064301228E+02  0.28470339686E+02  0.10613587846E+03  0.14402121110E+03  0.80899965760E+02 0.  0.
         -6    2    1    2    0  502 -0.79740485672E+02 -0.80103500099E+02 -0.36026447137E+02  0.21050473721E+03  0.17389428890E+03 0.  0.
        -24    2    5    5    0    0  0.24271883558E+02 -0.48903239463E+02 -0.38774524573E+01  0.97157143167E+02  0.80273436886E+02 0.  0.
          5    1    3    3  501    0  0.33676184444E+02  0.51633160413E+02 -0.44601610184E+02  0.76232947496E+02  0.47000000000E+01 0. -1.
        -11    1    4    4    0    0 -0.30132899869E+01 -0.24022262041E+02  0.17287351277E+02  0.29748974844E+02  0.00000000000E+00 0.  1.
         12    1    4    4    0    0  0.49077591215E+02  0.52492601727E+02  0.88848527187E+02  0.11427223626E+03  0.00000000000E+00 0. -1.
         -5    1    5    5    0  502 -0.10401236923E+03 -0.31200260637E+02 -0.32148994680E+02  0.11334759404E+03  0.47000000000E+01 0.  1.
         13    1    6    6    0    0 -0.13434540557E+02 -0.24742055405E+02  0.29896123819E+02  0.41066219756E+02  0.00000000000E+00 0. -1.
        -14    1    6    6    0    0  0.37706424115E+02 -0.24161184058E+02 -0.33773576276E+02  0.56090923411E+02  0.00000000000E+00 0.  1.
</event>
<event>
12    1  0.8449700E-002  0.1805597E+03  0.7818608E-02  0.1167521E+00
         21   -1    0    0  503  502  0.00000000000E+00  0.00000000000E+00  0.17450864238E+02  0.17450864238E+02  0.00000000000E+00 0.  1.
         21   -1    0    0  501  503 -0.00000000000E+00 -0.00000000000E+00 -0.25684829671E+04  0.25684829671E+04  0.00000000000E+00 0. -1.
          6    2    1    2  501    0 -0.53769292342E+02  0.96393044535E+01 -0.19586803318E+04  0.19669851206E+04  0.17209813908E+03 0.  0.
         24    2    3    3    0    0 -0.66510864400E+02 -0.34397361197E+02 -0.17449579098E+04  0.17483508615E+04  0.79030085606E+02 0.  0.
         -6    2    1    2    0  502  0.53769292342E+02 -0.96393044535E+01 -0.59235177101E+03  0.61894871070E+03  0.17097611780E+03 0.  0.
        -24    2    5    5    0    0  0.87540805724E+02  0.25866458930E+02 -0.49637849702E+03  0.51108706937E+03  0.80535171215E+02 0.  0.
          5    1    3    3  501    0  0.12741572058E+02  0.44036665650E+02 -0.21372242201E+03  0.21863425909E+03  0.47000000000E+01 0. -1.
        -11    1    4    4    0    0 -0.69465760632E+01  0.23718877526E+02 -0.31121655703E+03  0.31219638922E+03  0.00000000000E+00 0.  1.
         12    1    4    4    0    0 -0.59564288337E+02 -0.58116238722E+02 -0.14337413528E+04  0.14361544723E+04  0.00000000000E+00 0. -1.
         -5    1    5    5    0  502 -0.33771513382E+02 -0.35505763383E+02 -0.95973273993E+02  0.10786164133E+03  0.47000000000E+01 0.  1.
         11    1    6    6    0    0  0.40310035742E+01  0.30817136966E+02 -0.22415499860E+03  0.22629937764E+03  0.00000000000E+00 0. -1.
        -12    1    6    6    0    0  0.83509802150E+02 -0.49506780364E+01 -0.27222349842E+03  0.28478769173E+03  0.00000000000E+00 0.  1.
</event>
<event>
12    1  0.8449700E-002  0.1738499E+03  0.7818608E-02  0.1174255E+00
         21   -1    0    0  501  502  0.00000000000E+00  0.00000000000E+00  0.16189135076E+04  0.16189135076E+04  0.00000000000E+00 0.  1.
         21   -1    0    0  502  503 -0.00000000000E+00 -0.00000000000E+00 -0.26176221742E+02  0.26176221742E+02  0.00000000000E+00 0.  1.
         -6    2    1    2    0  503  0.90718137272E+01  0.21973738072E+02  0.34908214397E+03  0.38934218059E+03  0.17077425854E+03 0.  0.
        -24    2    3    3    0    0  0.71267812270E+02 -0.43146995426E+01  0.18837910280E+03  0.21496620281E+03  0.75007094868E+02 0.  0.
          6    2    1    2  501    0 -0.90718137272E+01 -0.21973738072E+02  0.12436551419E+04  0.12557475487E+04  0.17221687279E+03 0.  0.
         24    2    5    5    0    0 -0.33471378696E+02 -0.21603178464E+02  0.12129091856E+04  0.12162142727E+04  0.80258545714E+02 0.  0.
          5    1    5    5  501    0  0.24399564969E+02 -0.37055960750E+00  0.30745956298E+02  0.39533276031E+02  0.47000000000E+01 0. -1.
        -11    1    6    6    0    0  0.78084727137E+01  0.25635196061E+02  0.38546284490E+03  0.38639324570E+03  0.00000000000E+00 0.  1.
         12    1    6    6    0    0 -0.41279851410E+02 -0.47238374525E+02  0.82744634066E+03  0.82982102699E+03  0.00000000000E+00 0. -1.
         -5    1    3    3    0  503 -0.62195998543E+02  0.26288437614E+02  0.16070304117E+03  0.17437597778E+03  0.47000000000E+01 0.  1.
         11    1    4    4    0    0  0.30035330465E-01  0.98843236511E+01  0.10035455433E+03  0.10084015733E+03  0.00000000000E+00 0. -1.
        -12    1    4    4    0    0  0.71237776940E+02 -0.14199023194E+02  0.88024548474E+02  0.11412604548E+03  0.00000000000E+00 0.  1.
</event>
<event>
12    1  0.8449700E-002  0.2180443E+03  0.7818608E-02  0.1137596E+00
         21   -1    0    0  501  502  0.00000000000E+00  0.00000000000E+00  0.15623108013E+03  0.15623108013E+03  0.00000000000E+00 0.  1.
         21   -1    0    0  502  503 -0.00000000000E+00 -0.00000000000E+00 -0.29208116924E+03  0.29208116924E+03  0.00000000000E+00 0.  1.
         -6    2    1    2    0  503 -0.10723952768E+03  0.50104480249E+02 -0.94986955639E+02  0.23783573894E+03  0.18311892785E+03 0.  0.
        -24    2    3    3    0    0 -0.86205137613E+02 -0.24386111887E+02 -0.10644838773E+03  0.15944729395E+03  0.77885634706E+02 0.  0.
          6    2    1    2  501    0  0.10723952768E+03 -0.50104480249E+02 -0.40863133469E+02  0.21047651043E+03  0.16917384705E+03 0.  0.
         24    2    5    5    0    0  0.91117515174E+01 -0.59172311093E+02  0.21181879146E+02  0.93930555536E+02  0.69209037295E+02 0.  0.
          5    1    5    5  501    0  0.98127776161E+02  0.90678308443E+01 -0.62045012616E+02  0.11654595489E+03  0.47000000000E+01 0. -1.
        -13    1    6    6    0    0  0.18923524046E+02 -0.40596326242E+02 -0.18948909487E+02  0.48633554645E+02  0.00000000000E+00 0.  1.
         14    1    6    6    0    0 -0.98117725284E+01 -0.18575984851E+02  0.40130788634E+02  0.45297000891E+02  0.00000000000E+00 0. -1.
         -5    1    3    3    0  503 -0.21034390066E+02  0.74490592136E+02  0.11461432092E+02  0.78388444989E+02  0.47000000000E+01 0.  1.
         13    1    4    4    0    0 -0.26923712652E+02  0.28432571379E+02 -0.39034385595E+02  0.55289969045E+02  0.00000000000E+00 0. -1.
        -14    1    4    4    0    0 -0.59281424961E+02 -0.52818683266E+02 -0.67414002137E+02  0.10415732491E+03  0.00000000000E+00 0.  1.
</event>
<event>
12    1  0.8449700E-002  0.2157768E+03  0.7818608E-02  0.1137793E+00
         21   -1    0    0  501  502  0.00000000000E+00  0.00000000000E+00  0.82335541514E+03  0.82335541514E+03  0.00000000000E+00 0.  1.
         21   -1    0    0  502  503 -0.00000000000E+00 -0.00000000000E+00 -0.68375436685E+02  0.68375436685E+02  0.00000000000E+00 0. -1.
         -6    2    1    2    0  503  0.92733442069E+02  0.91080747871E+02  0.18724405334E+03  0.28569210313E+03  0.17223370277E+03 0.  0.
        -24    2    3    3    0    0  0.96624334466E+02  0.33507661293E+02  0.18778819959E+03  0.22779404239E+03  0.78528290872E+02 0.  0.
          6    2    1    2  501    0 -0.92733442069E+02 -0.91080747871E+02  0.56773592512E+03  0.60603874870E+03  0.16752220850E+03 0.  0.
         24    2    5    5    0    0  0.12963702198E+02 -0.23950140726E+02  0.26896571278E+03  0.28205706017E+03  0.80448515979E+02 0.  0.
          5    1    5    5  501    0 -0.10569714427E+03 -0.67130607146E+02  0.29877021234E+03  0.32398168853E+03  0.47000000000E+01 0. -1.
        -11    1    6    6    0    0  0.12083218248E+02  0.13034610871E+02  0.21984966968E+03  0.22056695696E+03  0.00000000000E+00 0.  1.
         12    1    6    6    0    0  0.88048394953E+00 -0.36984751597E+02  0.49116043099E+02  0.61490103207E+02  0.00000000000E+00 0. -1.
         -5    1    3    3    0  503 -0.38908923969E+01  0.57573086578E+02 -0.54414625547E+00  0.57898060735E+02  0.47000000000E+01 0.  1.
         11    1    4    4    0    0  0.75525101945E+02 -0.23332340876E+01  0.70471582355E+02  0.10332341905E+03  0.00000000000E+00 0. -1.
        -12    1    4    4    0    0  0.21099232521E+02  0.35840895381E+02  0.11731661724E+03  0.12447062334E+03  0.00000000000E+00 0.  1.
</event>
<event>
12    1  0.8449700E-002  0.1991554E+03  0.7818608E-02  0.1151296E+00
         21   -1    0    0  503  502  0.00000000000E+00  0.00000000000E+00  0.99374207964E+02  0.99374207964E+02  0.00000000000E+00 0.  1.
         21   -1    0    0  501  503 -0.00000000000E+00 -0.00000000000E+00 -0.12485456592E+04  0.12485456592E+04  0.00000000000E+00 0.  1.
          6    2    1    2  501    0  0.70197007966E+02  0.72878117143E+02 -0.11348243931E+04  0.11521672064E+04  0.17153433602E+03 0.  0.
         24    2    3    3    0    0 -0.34501563077E+01  0.77400382610E+02 -0.87745191683E+03  0.88438550943E+03  0.78823474462E+02 0.  0.
         -6    2    1    2    0  502 -0.70197007966E+02 -0.72878117143E+02 -0.14347058218E+02  0.19575266085E+03  0.16695636036E+03 0.  0.
        -24    2    5    5    0    0  0.20504328736E+02 -0.65404245486E+02 -0.11410999392E+02  0.10457535184E+03  0.78151458595E+02 0.  0.
          5    1    3    3  501    0  0.73647164273E+02 -0.45222654675E+01 -0.25737247623E+03  0.26778169693E+03  0.47000000000E+01 0. -1.
        -11    1    4    4    0    0 -0.10494305160E+02 -0.14752104967E+02 -0.14337046666E+03  0.14450898156E+03  0.00000000000E+00 0.  1.
         12    1    4    4    0    0  0.70441488519E+01  0.92152487577E+02 -0.73408145017E+03  0.73987652786E+03  0.00000000000E+00 0. -1.
         -5    1    5    5    0  502 -0.90701336702E+02 -0.74738716569E+01 -0.29360588260E+01  0.91177309011E+02  0.47000000000E+01 0.  1.
         11    1    6    6    0    0  0.40833745162E+02 -0.85002831365E+01 -0.14266516045E+02  0.44081549853E+02  0.00000000000E+00 0. -1.
        -12    1    6    6    0    0 -0.20329416426E+02 -0.56903962349E+02  0.28555166537E+01  0.60493801985E+02  0.00000000000E+00 0.  1.
</event>
<event>
12    1  0.8449700E-002  0.1985345E+03  0.7818608E-02  0.1151272E+00
         21   -1    0    0  501  502  0.00000000000E+00  0.00000000000E+00  0.36428361909E+03  0.36428361909E+03  0.00000000000E+00 0.  1.
         21   -1    0    0  502  503 -0.00000000000E+00 -0.00000000000E+00 -0.14719874648E+03  0.14719874648E+03  0.00000000000E+00 0.  1.
         -6    2    1    2    0  503 -0.53645020103E+02 -0.79877833694E+02 -0.24060095852E+02  0.19998708627E+03  0.17365969586E+03 0.  0.
        -24    2    3    3    0    0 -0.12139517534E+02 -0.51985633736E+02 -0.80077347360E+02  0.12474943593E+03  0.79373586316E+02 0.  0.
          6    2    1    2  501    0  0.53645020103E+02  0.79877833694E+02  0.24114496846E+03  0.31149527930E+03  0.17210507464E+03 0.  0.
         24    2    5    5    0    0 -0.17763860427E+02  0.33200014335E+02  0.19575862483E+03  0.21474789057E+03  0.79858760441E+02 0.  0.
          5    1    5    5  501    0  0.71408880530E+02  0.46677819360E+02  0.45386343631E+02  0.96747388734E+02  0.47000000000E+01 0. -1.
        -13    1    6    6    0    0  0.24252251458E+02  0.91086741096E+01  0.20841204340E+02  0.33248991611E+02  0.00000000000E+00 0.  1.
         14    1    6    6    0    0 -0.42016111885E+02  0.24091340225E+02  0.17491742049E+03  0.18149889896E+03  0.00000000000E+00 0. -1.
         -5    1    3    3    0  503 -0.41505502569E+02 -0.27892199958E+02  0.56017251508E+02  0.75237650339E+02  0.47000000000E+01 0.  1.
         13    1    4    4    0    0  0.14384360719E+02  0.39865528499E+01  0.81072381316E+01  0.16986163400E+02  0.00000000000E+00 0. -1.
        -14    1    4    4    0    0 -0.26523878253E+02 -0.55972186586E+02 -0.88184585492E+02  0.10776327253E+03  0.00000000000E+00 0.  1.
</event>
<event>
12    1  0.8449700E-002  0.4159776E+03  0.7818608E-02  0.1038398E+00
         21   -1    0    0  501  502  0.00000000000E+00  0.00000000000E+00  0.14081760074E+03  0.14081760074E+03  0.00000000000E+00 0. -1.
         21   -1    0    0  502  503 -0.00000000000E+00 -0.00000000000E+00 -0.13939449300E+04  0.13939449300E+04  0.00000000000E+00 0. -1.
         -6    2    1    2    0  503 -0.17296725510E+03 -0.33673444350E+03 -0.89099175959E+03  0.98323775826E+03  0.17199539773E+03 0.  0.
        -24    2    3    3    0    0 -0.26751925911E+02 -0.78076325112E+02 -0.31193120556E+03  0.33237974001E+03  0.79772404248E+02 0.  0.
          6    2    1    2  501    0  0.17296725510E+03  0.33673444350E+03 -0.36213556971E+03  0.55152477252E+03  0.17242287281E+03 0.  0.
         24    2    5    5    0    0  0.19979335356E+02  0.85853241680E+02 -0.93225764706E+02  0.15317661544E+03  0.83678428308E+02 0.  0.
          5    1    5    5  501    0  0.15298791975E+03  0.25088120182E+03 -0.26890980501E+03  0.39834815708E+03  0.47000000000E+01 0. -1.
        -11    1    6    6    0    0  0.11709700207E+02  0.98257536115E+02 -0.57454910797E+02  0.11442345589E+03  0.00000000000E+00 0.  1.
         12    1    6    6    0    0  0.82696351493E+01 -0.12404294435E+02 -0.35770853909E+02  0.38753159552E+02  0.00000000000E+00 0. -1.
         -5    1    3    3    0  503 -0.14621532919E+03 -0.25865811839E+03 -0.57906055403E+03  0.65085801826E+03  0.47000000000E+01 0.  1.
         11    1    4    4    0    0 -0.27909894775E+02 -0.93532908318E+02 -0.24613653951E+03  0.26478399356E+03  0.00000000000E+00 0. -1.
        -12    1    4    4    0    0  0.11579688641E+01  0.15456583206E+02 -0.65794666053E+02  0.67595746444E+02  0.00000000000E+00 0.  1.
</event>
<event>
12    1  0.8449700E-002  0.2086042E+03  0.7818608E-02  0.1143164E+00
         21   -1    0    0  501  502  0.00000000000E+00  0.00000000000E+00  0.27948305877E+03  0.27948305877E+03  0.00000000000E+00 0.  1.
         21   -1    0    0  502  503 -0.00000000000E+00 -0.00000000000E+00 -0.17717025845E+03  0.17717025845E+03  0.00000000000E+00 0.  1.
         -6    2    1    2    0  503 -0.79094268035E+02  0.81300568968E+02  0.13417181507E+03  0.24802783296E+03  0.17507154026E+03 0.  0.
        -24    2    3    3    0    0 -0.33384485106E+02  0.12098358040E+03  0.97982583173E+02  0.17734632082E+03  0.78099810051E+02 0.  0.
          6    2    1    2  501    0  0.79094268035E+02 -0.81300568968E+02 -0.31859014749E+02  0.20862548427E+03  0.17217406923E+03 0.  0.
         24    2    5    5    0    0  0.49140586433E+02 -0.12213525013E+03 -0.11050071296E+02  0.15367281049E+03  0.78494662551E+02 0.  0.
          5    1    5    5  501    0  0.29953681603E+02  0.40834681164E+02 -0.20808943452E+02  0.54952673774E+02  0.47000000000E+01 0. -1.
        -13    1    6    6    0    0  0.47449542290E+02 -0.71476611350E+02 -0.40693217525E+02  0.94954215210E+02  0.00000000000E+00 0.  1.
         14    1    6    6    0    0  0.16910441427E+01 -0.50658638782E+02  0.29643146229E+02  0.58718595282E+02  0.00000000000E+00 0. -1.
         -5    1    3    3    0  503 -0.45709782929E+02 -0.39683011437E+02  0.36189231900E+02  0.70681512134E+02  0.47000000000E+01 0.  1.
         13    1    4    4    0    0 -0.95904735483E+01  0.70635284918E+02  0.82783835681E+01  0.71762471340E+02  0.00000000000E+00 0. -1.
        -14    1    4    4    0    0 -0.23794011558E+02  0.50348295487E+02  0.89704199605E+02  0.10558384948E+03  0.00000000000E+00 0.  1.
</event>
<event>
12    1  0.8449700E-002  0.1957006E+03  0.7818608E-02  0.1153673E+00
         21   -1    0    0  503  502  0.00000000000E+00  0.00000000000E+00  0.50725978231E+02  0.50725978231E+02  0.00000000000E+00 0. -1.
         21   -1    0    0  501  503 -0.00000000000E+00 -0.00000000000E+00 -0.82618767030E+03  0.82618767030E+03  0.00000000000E+00 0. -1.
          6    2    1    2  501    0  0.86193980188E+02 -0.30058218209E+02 -0.51938426340E+03  0.55461814434E+03  0.17178001707E+03 0.  0.
         24    2    3    3    0    0  0.29457067699E+02 -0.77999469977E+02 -0.36769344719E+03  0.38565177318E+03  0.81099832925E+02 0.  0.
         -6    2    1    2    0  502 -0.86193980188E+02  0.30058218209E+02 -0.25607742867E+03  0.32229550419E+03  0.17310645235E+03 0.  0.
        -24    2    5    5    0    0 -0.89484866870E+02  0.65534838820E+02 -0.12125871544E+03  0.18276917698E+03  0.79990871282E+02 0.  0.
          5    1    3    3  501    0  0.56736912489E+02  0.47941251768E+02 -0.15169081621E+03  0.16896637116E+03  0.47000000000E+01 0. -1.
        -13    1    4    4    0    0 -0.21937678085E+02 -0.33553805886E+02 -0.21230743700E+03  0.21605917572E+03  0.00000000000E+00 0.  1.
         14    1    4    4    0    0  0.51394745785E+02 -0.44445664090E+02 -0.15538601019E+03  0.16959259746E+03  0.00000000000E+00 0. -1.
         -5    1    5    5    0  502  0.32908866824E+01 -0.35476620611E+02 -0.13481871323E+03  0.13952632720E+03  0.47000000000E+01 0.  1.
         13    1    6    6    0    0 -0.91046841116E+02  0.22691181122E+02 -0.85443715621E+02  0.12690565597E+03  0.00000000000E+00 0. -1.
        -14    1    6    6    0    0  0.15619742455E+01  0.42843657698E+02 -0.35814999815E+02  0.55863521015E+02  0.00000000000E+00 0.  1.
</event>
<event>
12    1  0.8449700E-002  0.1943253E+03  0.7818608E-02  0.1154638E+00
         21   -1    0    0  503  502  0.00000000000E+00  0.00000000000E+00  0.17213052576E+04  0.17213052576E+04  0.00000000000E+00 0.  1.
         21   -1    0    0  501  503 -0.00000000000E+00 -0.00000000000E+00 -0.82426145496E+02  0.82426145496E+02  0.00000000000E+00 0. -1.
          6    2    1    2  501    0 -0.39708084396E+02  0.80827069385E+02  0.46734179176E+02  0.19977136188E+03  0.17208941401E+03 0.  0.
         24    2    3    3    0    0 -0.13574714058E+00 -0.20796281799E+02  0.38631276987E+02  0.90313505128E+02  0.78940799862E+02 0.  0.
         -6    2    1    2    0  502  0.39708084396E+02 -0.80827069385E+02  0.15921449329E+04  0.16039600412E+04  0.17219924286E+03 0.  0.
        -24    2    5    5    0    0 -0.14897838147E+02 -0.10090875854E+03  0.12652324690E+04  0.12718773255E+04  0.80338081418E+02 0.  0.
          5    1    3    3  501    0 -0.39572337256E+02  0.10162335118E+03  0.81029021892E+01  0.10945785676E+03  0.47000000000E+01 0. -1.
        -11    1    4    4    0    0  0.34002331462E+02  0.97549640034E+01  0.12174885740E+02  0.37410502674E+02  0.00000000000E+00 0.  1.
         12    1    4    4    0    0 -0.34138078603E+02 -0.30551245803E+02  0.26456391246E+02  0.52903002453E+02  0.00000000000E+00 0. -1.
         -5    1    5    5    0  502  0.54605922543E+02  0.20081689153E+02  0.32691246392E+03  0.33208271572E+03  0.47000000000E+01 0.  1.
         13    1    6    6    0    0 -0.30872700686E+02 -0.34894610880E+01  0.28784787631E+03  0.28951977460E+03  0.00000000000E+00 0. -1.
        -14    1    6    6    0    0  0.15974862539E+02 -0.97419297450E+02  0.97738459266E+03  0.98235755086E+03  0.00000000000E+00 0.  1.
</event>
<event>
12    1  0.8449700E-002  0.2142129E+03  0.7818608E-02  0.1138368E+00
         21   -1    0    0  501  502  0.00000000000E+00  0.00000000000E+00  0.93413709855E+02  0.93413709855E+02  0.00000000000E+00 0.  1.
         21   -1    0    0  502  503 -0.00000000000E+00 -0.00000000000E+00 -0.62986067140E+03  0.62986067140E+03  0.00000000000E+00 0.  1.
         -6    2    1    2    0  503 -0.12351338497E+03 -0.29659469904E+02 -0.43833880622E+03  0.48766370842E+03  0.17187129792E+03 0.  0.
        -24    2    3    3    0    0 -0.11551239838E+03 -0.18772864602E+02 -0.17976208585E+03  0.22869161672E+03  0.79308974427E+02 0.  0.
          6    2    1    2  501    0  0.12351338497E+03  0.29659469904E+02 -0.98108155330E+02  0.23561067284E+03  0.17248750271E+03 0.  0.
         24    2    5    5    0    0  0.13151629546E+03 -0.48826625499E+01 -0.27932307185E+02  0.15684554633E+03  0.80622175947E+02 0.  0.
          5    1    5    5  501    0 -0.80029104901E+01  0.34542132454E+02 -0.70175848145E+02  0.78765126506E+02  0.47000000000E+01 0. -1.
        -13    1    6    6    0    0  0.11081045717E+03  0.27729052867E+02 -0.30191421371E+02  0.11814981894E+03  0.00000000000E+00 0.  1.
         14    1    6    6    0    0  0.20705838296E+02 -0.32611715416E+02  0.22591141859E+01  0.38695727398E+02  0.00000000000E+00 0. -1.
         -5    1    3    3    0  503 -0.80009865939E+01 -0.10886605302E+02 -0.25857672037E+03  0.25897209170E+03  0.47000000000E+01 0.  1.
         13    1    4    4    0    0 -0.58567221888E+02 -0.28302056384E+02 -0.37319666779E+02  0.74992555655E+02  0.00000000000E+00 0. -1.
        -14    1    4    4    0    0 -0.56945176490E+02  0.95291917826E+01 -0.14244241907E+03  0.15369906106E+03  0.00000000000E+00 0.  1.
</event>
<event>
12    1  0.8449700E-002  0.1926108E+03  0.7818608E-02  0.1156129E+00
         21   -1    0    0  501  502  0.00000000000E+00  0.00000000000E+00  0.59843451058E+02  0.59843451058E+02  0.00000000000E+00 0. -1.
         21   -1    0    0  502  503 -0.00000000000E+00 -0.00000000000E+00 -0.62356364347E+03  0.62356364347E+03  0.00000000000E+00 0. -1.
         -6    2    1    2    0  503  0.83061554414E+02 -0.26858796596E+02 -0.30800433480E+03  0.36327068326E+03  0.17169246427E+03 0.  0.
        -24    2    3    3    0    0  0.11968143422E+03 -0.89654207765E+01 -0.19041948100E+03  0.23873363521E+03  0.79562210689E+02 0.  0.
          6    2    1    2  501    0 -0.83061554414E+02  0.26858796596E+02 -0.25571585761E+03  0.32013641126E+03  0.17168606584E+03 0.  0.
         24    2    5    5    0    0 -0.11449711084E+02 -0.42930757097E+02 -0.14857584839E+03  0.17350793692E+03  0.77820791972E+02 0.  0.
          5    1    5    5  501    0 -0.71611843329E+02  0.69789553693E+02 -0.10714000922E+03  0.14662847434E+03  0.47000000000E+01 0. -1.
        -11    1    6    6    0    0 -0.16921778434E+02 -0.20911759372E+02 -0.14840003612E+03  0.15081849683E+03  0.00000000000E+00 0.  1.
         12    1    6    6    0    0  0.54720673501E+01 -0.22018997725E+02 -0.17581226635E+00  0.22689440095E+02  0.00000000000E+00 0. -1.
         -5    1    3    3    0  503 -0.36619879805E+02 -0.17893375820E+02 -0.11758485380E+03  0.12453704806E+03  0.47000000000E+01 0.  1.
         13    1    4    4    0    0  0.41712959124E+02  0.22152956707E+02 -0.12068959094E+03  0.12960209030E+03  0.00000000000E+00 0. -1.
        -14    1    4    4    0    0  0.77968475094E+02 -0.31118377483E+02 -0.69729890057E+02  0.10913154490E+03  0.00000000000E+00 0.  1.
</event>
<event>
12    1  0.8449700E-002  0.2246940E+03  0.7818608E-02  0.1130485E+00
         21   -1    0    0  501  502  0.00000000000E+00  0.00000000000E+00  0.84504219821E+03  0.84504219821E+03  0.00000000000E+00 0.  1.
         21   -1    0    0  502  503 -0.00000000000E+00 -0.00000000000E+00 -0.11824692678E+03  0.11824692678E+03  0.00000000000E+00 0.  1.
         -6    2    1    2    0  503  0.12194770428E+02  0.14399154794E+03  0.24270013747E+02  0.22570581109E+03  0.17167353112E+03 0.  0.
        -24    2    3    3    0    0  0.31811842777E+02  0.57880972718E+02  0.70922625396E+02  0.12571372707E+03  0.80073229217E+02 0.  0.
          6    2    1    2  501    0 -0.12194770428E+02 -0.14399154794E+03  0.70252525768E+03  0.73758331389E+03  0.17206141040E+03 0.  0.
         24    2    5    5    0    0 -0.57765371679E+02 -0.13871232352E+03  0.62152279406E+03  0.64437366299E+03  0.79679904347E+02 0.  0.
          5    1    5    5  501    0  0.45570601252E+02 -0.52792244181E+01  0.81002463622E+02  0.93209650904E+02  0.47000000000E+01 0. -1.
        -13    1    6    6    0    0 -0.43005253166E+02 -0.90671384457E+02  0.53485752631E+03  0.54419052289E+03  0.00000000000E+00 0.  1.
         14    1    6    6    0    0 -0.14760118514E+02 -0.48040939068E+02  0.86665267750E+02  0.10018314010E+03  0.00000000000E+00 0. -1.
         -5    1    3    3    0  503 -0.19617072350E+02  0.86110575225E+02 -0.46652611648E+02  0.99992084021E+02  0.47000000000E+01 0.  1.
         11    1    4    4    0    0  0.20592476447E+02 -0.13169699577E+02 -0.35869905800E+00  0.24446262254E+02  0.00000000000E+00 0. -1.
        -12    1    4    4    0    0  0.11219366330E+02  0.71050672295E+02  0.71281324454E+02  0.10126746482E+03  0.00000000000E+00 0.  1.
</event>
<event>
12    1  0.8449700E-002  0.2132399E+03  0.7818608E-02  0.1139721E+00
         21   -1    0    0  501  502  0.00000000000E+00  0.00000000000E+00  0.84285463179E+03  0.84285463179E+03  0.00000000000E+00 0.  1.
         21   -1    0    0  502  503 -0.00000000000E+00 -0.00000000000E+00 -0.12336889810E+03  0.12336889810E+03  0.00000000000E+00 0.  1.
         -6    2    1    2    0  503  0.22151986135E+02  0.11839939704E+03 -0.62752313578E+01  0.20978433874E+03  0.17164196032E+03 0.  0.
        -24    2    3    3    0    0 -0.28249321774E+02  0.57335913799E+02  0.49051047882E+02  0.11307793772E+03  0.79342192483E+02 0.  0.
          6    2    1    2  501    0 -0.22151986135E+02 -0.11839939704E+03  0.72576096505E+03  0.75643919115E+03  0.17596063140E+03 0.  0.
         24    2    5    5    0    0  0.16618736165E+02 -0.41538197331E+02  0.57996394741E+03  0.58705892877E+03  0.79236363691E+02 0.  0.
          5    1    5    5  501    0 -0.38770722300E+02 -0.76861199707E+02  0.14579701765E+03  0.16938026238E+03  0.47000000000E+01 0. -1.
        -13    1    6    6    0    0 -0.29224525199E+02 -0.64023508593E+01  0.27926247342E+03  0.28086044939E+03  0.00000000000E+00 0.  1.
         14    1    6    6    0    0  0.45843261365E+02 -0.35135846472E+02  0.30070147399E+03  0.30619847938E+03  0.00000000000E+00 0. -1.
         -5    1    3    3    0  503  0.50401307909E+02  0.61063483240E+02 -0.55326279240E+02  0.96706401023E+02  0.47000000000E+01 0.  1.
         13    1    4    4    0    0  0.29950446865E+01  0.16258529527E+02  0.58341574804E+02  0.60638679287E+02  0.00000000000E+00 0. -1.
        -14    1    4    4    0    0 -0.31244366461E+02  0.41077384272E+02 -0.92905269221E+01  0.52439258429E+02  0.00000000000E+00 0.  1.
</event>
<event>
12    1  0.8449700E-002  0.1813120E+03  0.7818608E-02  0.1167114E+00
         21   -1    0    0  501  502  0.00000000000E+00  0.00000000000E+00  0.43205019143E+03  0.43205019143E+03  0.00000000000E+00 0. -1.
         21   -1    0    0  502  503 -0.00000000000E+00 -0.00000000000E+00 -0.97115535695E+02  0.97115535695E+02  0.00000000000E+00 0. -1.
         -6    2    1    2    0  503  0.13535792813E+02  0.54994677235E+02  0.42329444638E+02  0.18618761477E+03  0.17223940839E+03 0.  0.
        -24    2    3    3    0    0 -0.42814776577E+02  0.41416901973E+02  0.70506031965E+02  0.12156755036E+03  0.79114498638E+02 0.  0.
          6    2    1    2  501    0 -0.13535792813E+02 -0.54994677235E+02  0.29260521110E+03  0.34297811235E+03  0.16973079797E+03 0.  0.
         24    2    5    5    0    0 -0.24708158398E+02 -0.91144416334E+02  0.27355088013E+03  0.30035437579E+03  0.80404411048E+02 0.  0.
          5    1    5    5  501    0  0.11172365585E+02  0.36149739099E+02  0.19054330967E+02  0.42623736560E+02  0.47000000000E+01 0. -1.
        -11    1    6    6    0    0 -0.39842328378E+02 -0.69988161886E+02  0.11938107438E+03  0.14400553758E+03  0.00000000000E+00 0.  1.
         12    1    6    6    0    0  0.15134169980E+02 -0.21156254448E+02  0.15416980575E+03  0.15634883821E+03  0.00000000000E+00 0. -1.
         -5    1    3    3    0  503  0.56350569390E+02  0.13577775263E+02 -0.28176587327E+02  0.64620064415E+02  0.47000000000E+01 0.  1.
         13    1    4    4    0    0 -0.58996132029E+02  0.61354191647E+01  0.34468323887E+02  0.68602130538E+02  0.00000000000E+00 0. -1.
        -14    1    4    4    0    0  0.16181355453E+02  0.35281482808E+02  0.36037708078E+02  0.52965419822E+02  0.00000000000E+00 0.  1.
</event>
<event>
12    1  0.8449700E-002  0.2028132E+03  0.7818608E-02  0.1147396E+00
         21   -1    0    0  503  502  0.00000000000E+00  0.00000000000E+00  0.51270058036E+03  0.51270058036E+03  0.00000000000E+00 0. -1.
         21   -1    0    0  501  503 -0.00000000000E+00 -0.00000000000E+00 -0.20401227682E+03  0.20401227682E+03  0.00000000000E+00 0. -1.
          6    2    1    2  501    0 -0.69294840014E+01 -0.10664576210E+03 -0.12480704488E+03  0.23813858397E+03  0.17237125747E+03 0.  0.
         24    2    3    3    0    0  0.19765383674E+02 -0.60777280830E+02  0.44432924268E+00  0.10202638667E+03  0.79527592016E+02 0.  0.
         -6    2    1    2    0  502  0.69294840014E+01  0.10664576210E+03  0.43349534843E+03  0.47857427321E+03  0.17231883687E+03 0.  0.
        -24    2    5    5    0    0 -0.36120102285E+02  0.11437866989E+03  0.39255219996E+03  0.41847854832E+03  0.81485727590E+02 0.  0.
          5    1    3    3  501    0 -0.26694867676E+02 -0.45868481266E+02 -0.12525137413E+03  0.13611219730E+03  0.47000000000E+01 0. -1.
        -11    1    4    4    0    0 -0.10644433213E+02 -0.53487263892E+02  0.27134397787E+02  0.60913601932E+02  0.00000000000E+00 0.  1.
         12    1    4    4    0    0  0.30409816887E+02 -0.72900169381E+01 -0.26690068545E+02  0.41112784739E+02  0.00000000000E+00 0. -1.
         -5    1    5    5    0  502  0.43049586287E+02 -0.77329077909E+01  0.40943148476E+02  0.60095724885E+02  0.47000000000E+01 0.  1.
         11    1    6    6    0    0 -0.50132475862E+02  0.82487917586E+02  0.19172924302E+03  0.21465699223E+03  0.00000000000E+00 0. -1.
        -12    1    6    6    0    0  0.14012373577E+02  0.31890752302E+02  0.20082295693E+03  0.20382155609E+03  0.00000000000E+00 0.  1.
</event>
<event>
12    1  0.8449700E-002  0.2058857E+03  0.7818608E-02  0.1144940E+00
         21   -1    0    0  501  502  0.00000000000E+00  0.00000000000E+00  0.16776254026E+03  0.16776254026E+03  0.00000000000E+00 0. -1.
         21   -1    0    0  502  503 -0.00000000000E+00 -0.00000000000E+00 -0.25226370920E+03  0.25226370920E+03  0.00000000000E+00 0. -1.
         -6    2    1    2    0  503  0.27698079707E+01  0.11247998225E+03 -0.39789870125E+02  0.20969541646E+03  0.17242249179E+03 0.  0.
        -24    2    3    3    0    0 -0.21167558459E+02  0.35202281442E+02  0.31709402708E+02  0.10162564006E+03  0.87378592050E+02 0.  0.
          6    2    1    2  501    0 -0.27698079707E+01 -0.11247998225E+03 -0.44711298812E+02  0.21033083300E+03  0.17198994397E+03 0.  0.
         24    2    5    5    0    0 -0.63509781465E+02 -0.37229459435E+02 -0.29923762265E+02  0.11238826411E+03  0.79474306352E+02 0.  0.
          5    1    5    5  501    0  0.60739973494E+02 -0.75250522816E+02 -0.14787536546E+02  0.97942568892E+02  0.47000000000E+01 0. -1.
        -11    1    6    6    0    0 -0.10519727575E+02  0.14093319689E+02  0.17403586286E+02  0.24742092550E+02  0.00000000000E+00 0.  1.
         12    1    6    6    0    0 -0.52990053889E+02 -0.51322779125E+02 -0.47327348552E+02  0.87646171561E+02  0.00000000000E+00 0. -1.
         -5    1    3    3    0  503  0.23937366430E+02  0.77277700810E+02 -0.71499272833E+02  0.10806977639E+03  0.47000000000E+01 0.  1.
         11    1    4    4    0    0  0.34259255976E+02  0.15474713160E+02  0.98295802137E+01  0.38855939244E+02  0.00000000000E+00 0. -1.
        -12    1    4    4    0    0 -0.55426814435E+02  0.19727568281E+02  0.21879822494E+02  0.62769700820E+02  0.00000000000E+00 0.  1.
</event>
<event>
12    1  0.8449700E-002  0.2221216E+03  0.7818608E-02  0.1133832E+00
         21   -1    0    0  501  502  0.00000000000E+00  0.00000000000E+00  0.40713229132E+02  0.40713229132E+02  0.00000000000E+00 0.  1.
         21   -1    0    0  502  503 -0.00000000000E+00 -0.00000000000E+00 -0.13495751767E+04  0.13495751767E+04  0.00000000000E+00 0. -1.
         -6    2    1    2    0  503  0.13271480960E+03 -0.36772351312E+02 -0.89881719258E+03  0.92394657546E+03  0.16382765976E+03 0.  0.
        -24    2    3    3    0    0  0.30510940281E+02  0.23249387704E+02 -0.52689151342E+03  0.53356337797E+03  0.74858265334E+02 0.  0.
          6    2    1    2  501    0 -0.13271480960E+03  0.36772351312E+02 -0.41004475500E+03  0.46634183040E+03  0.17427729389E+03 0.  0.
         24    2    5    5    0    0 -0.86083533836E+02 -0.29114449291E+02 -0.18317667614E+03  0.22549590127E+03  0.95061458278E+02 0.  0.
          5    1    5    5  501    0 -0.46631275765E+02  0.65886800603E+02 -0.22686807886E+03  0.24084592913E+03  0.47000000000E+01 0. -1.
        -11    1    6    6    0    0 -0.32469454423E+02 -0.59271821096E+02 -0.11721367275E+03  0.13530136484E+03  0.00000000000E+00 0.  1.
         12    1    6    6    0    0 -0.53614079412E+02  0.30157371805E+02 -0.65963003389E+02  0.90194536428E+02  0.00000000000E+00 0. -1.
         -5    1    3    3    0  503  0.10220386932E+03 -0.60021739016E+02 -0.37192567917E+03  0.39038319749E+03  0.47000000000E+01 0.  1.
         13    1    4    4    0    0  0.14935426321E+02  0.15125373043E+02 -0.50521664596E+03  0.50566362656E+03  0.00000000000E+00 0. -1.
        -14    1    4    4    0    0  0.15575513959E+02  0.81240146612E+01 -0.21674867462E+02  0.27899751411E+02  0.00000000000E+00 0.  1.
</event>
<event>
12    1  0.8449700E-002  0.2280159E+03  0.7818608E-02  0.1128268E+00
         21   -1    0    0  503  502  0.00000000000E+00  0.00000000000E+00  0.26519660251E+03  0.26519660251E+03  0.00000000000E+00 0.  1.
         21   -1    0    0  501  503 -0.00000000000E+00 -0.00000000000E+00 -0.22990503883E+03  0.22990503883E+03  0.00000000000E+00 0. -1.
          6    2    1    2  501    0 -0.14281647182E+03  0.45199568304E+02 -0.78813211885E+02  0.24125253634E+03  0.17190613231E+03 0.  0.
         24    2    3    3    0    0 -0.80377205456E+01 -0.13671407539E+02 -0.29646547766E+02  0.86105656087E+02  0.79270132333E+02 0.  0.
         -6    2    1    2    0  502  0.14281647182E+03 -0.45199568304E+02  0.11410477557E+03  0.25384910501E+03  0.17023490450E+03 0.  0.
        -24    2    5    5    0    0  0.36179456181E+02  0.33435735914E+02  0.35728625978E+02  0.99836524360E+02  0.79144774916E+02 0.  0.
          5    1    3    3  501    0 -0.13477875127E+03  0.58870975843E+02 -0.49166664119E+02  0.15514688025E+03  0.47000000000E+01 0. -1.
        -13    1    4    4    0    0 -0.38654974725E+02 -0.36951741783E+01  0.45938404398E+01  0.39101978890E+02  0.00000000000E+00 0.  1.
         14    1    4    4    0    0  0.30617254179E+02 -0.99762333606E+01 -0.34240388206E+02  0.47003677197E+02  0.00000000000E+00 0. -1.
         -5    1    5    5    0  502  0.10663701564E+03 -0.78635304218E+02  0.78376149587E+02  0.15401258065E+03  0.47000000000E+01 0.  1.
         11    1    6    6    0    0  0.48096511921E+02 -0.87133428027E+01  0.13456579291E+02  0.50697892737E+02  0.00000000000E+00 0. -1.
        -12    1    6    6    0    0 -0.11917055740E+02  0.42149078717E+02  0.22272046687E+02  0.49138631623E+02  0.00000000000E+00 0.  1.
</event>
<event>
12    1  0.8449700E-002  0.2338543E+03  0.7818608E-02  0.1124784E+00
         21   -1    0    0  503  502  0.00000000000E+00  0.00000000000E+00  0.14772124143E+04  0.14772124143E+04  0.00000000000E+00 0.  1.
         21   -1    0    0  501  503 -0.00000000000E+00 -0.00000000000E+00 -0.81697613765E+02  0.81697613765E+02  0.00000000000E+00 0. -1.
          6    2    1    2  501    0 -0.87923825563E+02  0.12300559101E+03  0.11337336305E+03  0.25561632487E+03  0.17211975937E+03 0.  0.
         24    2    3    3    0    0 -0.69947998617E+02  0.15927390415E+02  0.99291594229E+02  0.14602956650E+03  0.79494712595E+02 0.  0.
         -6    2    1    2    0  502  0.87923825563E+02 -0.12300559101E+03  0.12821414375E+04  0.13032937032E+04  0.17840077515E+03 0.  0.
        -24    2    5    5    0    0  0.70985754080E+02 -0.14228195355E+03  0.12457181052E+04  0.12584916323E+04  0.81880763901E+02 0.  0.
          5    1    3    3  501    0 -0.17975826946E+02  0.10707820059E+03  0.14081768825E+02  0.10958675837E+03  0.47000000000E+01 0. -1.
        -13    1    4    4    0    0  0.36909739197E+01  0.57712290951E+01 -0.11039739576E+02  0.12992544926E+02  0.00000000000E+00 0.  1.
         14    1    4    4    0    0 -0.73638972536E+02  0.10156161320E+02  0.11033133380E+03  0.13303702157E+03  0.00000000000E+00 0. -1.
         -5    1    5    5    0  502  0.16938071482E+02  0.19276362538E+02  0.36423332328E+02  0.44802070891E+02  0.47000000000E+01 0.  1.
         11    1    6    6    0    0  0.36035388492E+02 -0.13896728064E+03  0.97773314382E+03  0.98821685618E+03  0.00000000000E+00 0. -1.
        -12    1    6    6    0    0  0.34950365588E+02 -0.33146729079E+01  0.26798496135E+03  0.27027477615E+03  0.00000000000E+00 0.  1.
</event>
<event>
12    1  0.8449700E-002  0.1877077E+03  0.7818608E-02  0.1161131E+00
         21   -1    0    0  503  502  0.00000000000E+00  0.00000000000E+00  0.92282556785E+02  0.92282556785E+02  0.00000000000E+00 0.  1.
         21   -1    0    0  501  503 -0.00000000000E+00 -0.00000000000E+00 -0.38250648220E+03  0.38250648220E+03  0.00000000000E+00 0. -1.
          6    2    1    2  501    0  0.58834211873E+01 -0.73916311254E+02 -0.17347699542E+03  0.25373694223E+03  0.16967596235E+03 0.  0.
         24    2    3    3    0    0  0.15778745151E+02 -0.89654609781E+02 -0.53206889385E+02  0.13194778064E+03  0.79324182210E+02 0.  0.
         -6    2    1    2    0  502 -0.58834211873E+01  0.73916311254E+02 -0.11674693000E+03  0.22105209676E+03  0.17244114388E+03 0.  0.
        -24    2    5    5    0    0 -0.32349709721E+02  0.49956730167E+02 -0.14457715284E+03  0.17554234772E+03  0.79814686063E+02 0.  0.
          5    1    3    3  501    0 -0.98953239641E+01  0.15738298527E+02 -0.12027010603E+03  0.12178916159E+03  0.47000000000E+01 0. -1.
        -11    1    4    4    0    0  0.15289208218E+02 -0.46878753614E+01  0.15805253951E+02  0.22484263736E+02  0.00000000000E+00 0.  1.
         12    1    4    4    0    0  0.48953693381E+00 -0.84966734420E+02 -0.69012143335E+02  0.10946351690E+03  0.00000000000E+00 0. -1.
         -5    1    5    5    0  502  0.26466288533E+02  0.23959581087E+02  0.27830222836E+02  0.45509749040E+02  0.47000000000E+01 0.  1.
         11    1    6    6    0    0 -0.37891404110E+02  0.68263386788E+02 -0.98763821462E+02  0.12589654845E+03  0.00000000000E+00 0. -1.
        -12    1    6    6    0    0  0.55416943894E+01 -0.18306656621E+02 -0.45813331376E+02  0.49645799270E+02  0.00000000000E+00 0.  1.
</event>
<event>
12    1  0.8449700E-002  0.1825740E+03  0.7818608E-02  0.1165441E+00
         21   -1    0    0  503  502  0.00000000000E+00  0.00000000000E+00  0.45264091728E+02  0.45264091728E+02  0.00000000000E+00 0.  1.
         21   -1    0    0  501  503 -0.00000000000E+00 -0.00000000000E+00 -0.73462754916E+03  0.73462754916E+03  0.00000000000E+00 0.  1.
          6    2    1    2  501    0  0.39899064178E+02  0.42575751648E+02 -0.34666914404E+03  0.39180702935E+03  0.17299891001E+03 0.  0.
         24    2    3    3    0    0  0.44205804947E+02  0.78958369374E+01 -0.34307999684E+03  0.35636388504E+03  0.85292654438E+02 0.  0.
         -6    2    1    2    0  502 -0.39899064178E+02 -0.42575751648E+02 -0.34269431339E+03  0.38808461155E+03  0.17252722491E+03 0.  0.
        -24    2    5    5    0    0  0.18702856717E+02 -0.62406338839E+02 -0.12991536841E+03  0.16644434727E+03  0.81125642135E+02 0.  0.
          5    1    3    3  501    0 -0.43067407693E+01  0.34679914711E+02 -0.35891472048E+01  0.35443144303E+02  0.47000000000E+01 0. -1.
        -11    1    4    4    0    0  0.14628808945E+02  0.41158019731E+02 -0.24210553664E+03  0.24601438070E+03  0.00000000000E+00 0.  1.
         12    1    4    4    0    0  0.29576996002E+02 -0.33262182793E+02 -0.10097446020E+03  0.11034950434E+03  0.00000000000E+00 0. -1.
         -5    1    5    5    0  502 -0.58601920895E+02  0.19830587191E+02 -0.21277894498E+03  0.22164026427E+03  0.47000000000E+01 0.  1.
         11    1    6    6    0    0 -0.38596706274E+01 -0.52111041025E+00 -0.88608525798E+02  0.88694077917E+02  0.00000000000E+00 0. -1.
        -12    1    6    6    0    0  0.22562527345E+02 -0.61885228429E+02 -0.41306842617E+02  0.77750269356E+02  0.00000000000E+00 0.  1.
</event>
<event>
12    1  0.8449700E-002  0.1737172E+03  0.7818608E-02  0.1174340E+00
         21   -1    0    0  503  502  0.00000000000E+00  0.00000000000E+00  0.12651511423E+04  0.12651511423E+04  0.00000000000E+00 0.  1.
         21   -1    0    0  501  503 -0.00000000000E+00 -0.00000000000E+00 -0.41078539048E+02  0.41078539048E+02  0.00000000000E+00 0.  1.
          6    2    1    2  501    0 -0.11821394214E+02  0.19034387162E+02  0.18578130578E+03  0.25350632102E+03  0.17102253642E+03 0.  0.
         24    2    3    3    0    0 -0.54089309459E+02  0.58410557128E+02  0.13669630804E+03  0.17755576852E+03  0.80639467534E+02 0.  0.
         -6    2    1    2    0  502  0.11821394214E+02 -0.19034387162E+02  0.10382912974E+04  0.10527233603E+04  0.17226607827E+03 0.  0.
        -24    2    5    5    0    0  0.17816006526E+02  0.44451463311E+02  0.37390405160E+03  0.38526632721E+03  0.79577386229E+02 0.  0.
          5    1    3    3  501    0  0.42267915245E+02 -0.39376169966E+02  0.49084997742E+02  0.75950552491E+02  0.47000000000E+01 0. -1.
        -11    1    4    4    0    0 -0.18925595250E+02  0.13568799413E+02 -0.58760289119E+01  0.24017039552E+02  0.00000000000E+00 0.  1.
         12    1    4    4    0    0 -0.35163714209E+02  0.44841757715E+02  0.14257233695E+03  0.15353872897E+03  0.00000000000E+00 0. -1.
         -5    1    5    5    0  502 -0.59946123113E+01 -0.63485850473E+02  0.66438724584E+03  0.66745703309E+03  0.47000000000E+01 0.  1.
         11    1    6    6    0    0 -0.17555228037E+02 -0.40374255643E+01  0.22740647352E+02  0.29010754533E+02  0.00000000000E+00 0. -1.
        -12    1    6    6    0    0  0.35371234563E+02  0.48488888875E+02  0.35116340425E+03  0.35625557268E+03  0.00000000000E+00 0.  1.
</event>
<event>
12    1  0.8449700E-002  0.1761306E+03  0.7818608E-02  0.1171610E+00
         21   -1    0    0  503  502  0.00000000000E+00  0.00000000000E+00  0.34291730308E+04  0.34291730308E+04  0.00000000000E+00 0. -1.
         21   -1    0    0  501  503 -0.00000000000E+00 -0.00000000000E+00 -0.10938216778E+02  0.10938216778E+02  0.00000000000E+00 0. -1.
          6    2    1    2  501    0 -0.38925202923E+02 -0.46357659649E+00  0.99331562913E+03  0.10088039752E+04  0.17173856553E+03 0.  0.
         24    2    3    3    0    0 -0.14353468141E+02  0.64673822655E+02  0.46160153451E+03  0.47253107882E+03  0.76294943474E+02 0.  0.
         -6    2    1    2    0  502  0.38925202923E+02  0.46357659649E+00  0.24249191849E+04  0.24313072724E+04  0.17177489152E+03 0.  0.
        -24    2    5    5    0    0 -0.40054416222E+02 -0.26784901414E+01  0.15348588494E+04  0.15377317895E+04  0.84946090918E+02 0.  0.
          5    1    3    3  501    0 -0.24571734782E+02 -0.65137399252E+02  0.53171409461E+03  0.53627289633E+03  0.47000000000E+01 0. -1.
        -13    1    4    4    0    0 -0.44683828810E+02  0.25553167451E+02  0.24392875567E+03  0.24930071554E+03  0.00000000000E+00 0.  1.
         14    1    4    4    0    0  0.30330360669E+02  0.39120655204E+02  0.21767277884E+03  0.22323036328E+03  0.00000000000E+00 0. -1.
         -5    1    5    5    0  502  0.78979619145E+02  0.31420667378E+01  0.89006033550E+03  0.89357548291E+03  0.47000000000E+01 0.  1.
         11    1    6    6    0    0 -0.25938502086E+02 -0.40073434524E+02  0.55188205789E+03  0.55394267922E+03  0.00000000000E+00 0. -1.
        -12    1    6    6    0    0 -0.14115914136E+02  0.37394944382E+02  0.98297679147E+03  0.98378911026E+03  0.00000000000E+00 0.  1.
</event>
<event>
12    1  0.8449700E-002  0.1796803E+03  0.7818608E-02  0.1168361E+00
         21   -1    0    0  503  502  0.00000000000E+00  0.00000000000E+00  0.10507316446E+04  0.10507316446E+04  0.00000000000E+00 0. -1.
         21   -1    0    0  501  503 -0.00000000000E+00 -0.00000000000E+00 -0.44219543559E+02  0.44219543559E+02  0.00000000000E+00 0. -1.
          6    2    1    2  501    0  0.15041954446E+02  0.47121754172E+02  0.19987585857E+03  0.26876639675E+03  0.17273765390E+03 0.  0.
         24    2    3    3    0    0 -0.26190583817E+02 -0.28539788748E+02  0.66721650181E+02  0.11009401573E+03  0.78539464438E+02 0.  0.
         -6    2    1    2    0  502 -0.15041954446E+02 -0.47121754172E+02  0.80663624246E+03  0.82618479139E+03  0.17167574601E+03 0.  0.
        -24    2    5    5    0    0  0.47995424194E+02 -0.14004017590E+01  0.31016806229E+03  0.32362444965E+03  0.78886219815E+02 0.  0.
          5    1    3    3  501    0  0.41232538263E+02  0.75661542921E+02  0.13315420838E+03  0.15867238102E+03  0.47000000000E+01 0. -1.
        -11    1    4    4    0    0 -0.17402015393E+02 -0.29293813337E+02  0.84025786836E+02  0.90671332255E+02  0.00000000000E+00 0.  1.
         12    1    4    4    0    0 -0.87885684240E+01  0.75402458859E+00 -0.17304136654E+02  0.19422683475E+02  0.00000000000E+00 0. -1.
         -5    1    5    5    0  502 -0.63037378640E+02 -0.45721352413E+02  0.49646818017E+03  0.50256034174E+03  0.47000000000E+01 0.  1.
         11    1    6    6    0    0  0.33832045869E+02 -0.38187485961E+02  0.20665773765E+03  0.21286219003E+03  0.00000000000E+00 0. -1.
        -12    1    6    6    0    0  0.14163378325E+02  0.36787084202E+02  0.10351032464E+03  0.11076225962E+03  0.00000000000E+00 0.  1.
</event>
<event>
12    1  0.8449700E-002  0.1750496E+03  0.7818608E-02  0.1172709E+00
         21   -1    0    0  501  502  0.00000000000E+00  0.00000000000E+00  0.41382311752E+03  0.41382311752E+03  0.00000000000E+00 0.  1.
         21   -1    0    0  502  503 -0.00000000000E+00 -0.00000000000E+00 -0.14699122169E+03  0.14699122169E+03  0.00000000000E+00 0.  1.
         -6    2    1    2    0  503  0.19110317134E+02  0.25739788381E+02 -0.64158116110E+02  0.18643664983E+03  0.17208898748E+03 0.  0.
        -24    2    3    3    0    0 -0.48057029413E+02 -0.15037367133E+02 -0.24302097025E+02  0.98205016555E+02  0.80734335139E+02 0.  0.
          6    2    1    2  501    0 -0.19110317134E+02 -0.25739788381E+02  0.33099001193E+03  0.37437768937E+03  0.17197827006E+03 0.  0.
         24    2    5    5    0    0  0.37488946166E+02 -0.59124856421E+02  0.23317414543E+03  0.25644519549E+03  0.80577828592E+02 0.  0.
          5    1    5    5  501    0 -0.56599263300E+02  0.33385068040E+02  0.97815866499E+02  0.11793249388E+03  0.47000000000E+01 0. -1.
        -11    1    6    6    0    0 -0.58513311982E+01 -0.62842892419E+02  0.14416336427E+03  0.15737389492E+03  0.00000000000E+00 0.  1.
         12    1    6    6    0    0  0.43340277364E+02  0.37180359985E+01  0.89010781161E+02  0.99071300570E+02  0.00000000000E+00 0. -1.
         -5    1    3    3    0  503  0.67167346547E+02  0.40777155514E+02 -0.39856019084E+02  0.88231633280E+02  0.47000000000E+01 0.  1.
         13    1    4    4    0    0 -0.23974317721E+02 -0.48378418964E+02 -0.14984579431E+02  0.56033712641E+02  0.00000000000E+00 0. -1.
        -14    1    4    4    0    0 -0.24082711692E+02  0.33341051831E+02 -0.93175175939E+01  0.42171303913E+02  0.00000000000E+00 0.  1.
</event>
<event>
12    1  0.8449700E-002  0.1789631E+03  0.7818608E-02  0.1169238E+00
         21   -1    0    0  503  502  0.00000000000E+00  0.00000000000E+00  0.12731791730E+03  0.12731791730E+03  0.00000000000E+00 0. -1.
         21   -1    0    0  501  503 -0.00000000000E+00 -0.00000000000E+00 -0.15325946738E+04  0.15325946738E+04  0.00000000000E+00 0. -1.
          6    2    1    2  501    0 -0.94096376551E+01  0.31845013003E+02 -0.14615930013E+04  0.14722977663E+04  0.17408034031E+03 0.  0.
         24    2    3    3    0    0  0.30022150945E+02 -0.14906924717E+02 -0.12148631959E+04  0.12180571390E+04  0.81529524243E+02 0.  0.
         -6    2    1    2    0  502  0.94096376551E+01 -0.31845013003E+02  0.56316244795E+02  0.18761482487E+03  0.17585550020E+03 0.  0.
        -24    2    5    5    0    0  0.96865863738E+01 -0.76754962622E+02 -0.51891575438E+01  0.11131289310E+03  0.79865377800E+02 0.  0.
          5    1    3    3  501    0 -0.39431788600E+02  0.46751937720E+02 -0.24672980549E+03  0.25424062726E+03  0.47000000000E+01 0. -1.
        -13    1    4    4    0    0  0.48537058278E+02 -0.29056432167E+02 -0.57651346530E+03  0.57928222651E+03  0.00000000000E+00 0.  1.
         14    1    4    4    0    0 -0.18514907333E+02  0.14149507450E+02 -0.63834973055E+03  0.63877491251E+03  0.00000000000E+00 0. -1.
         -5    1    5    5    0  502 -0.27694871869E+00  0.44909949619E+02  0.61505402339E+02  0.76301931773E+02  0.47000000000E+01 0.  1.
         13    1    6    6    0    0 -0.25935814612E+02 -0.82582291745E+01  0.15579691707E+02  0.31362264306E+02  0.00000000000E+00 0. -1.
        -14    1    6    6    0    0  0.35622400986E+02 -0.68496733447E+02 -0.20768849251E+02  0.79950628792E+02  0.00000000000E+00 0.  1.
</event>
<event>
12    1  0.8449700E-002  0.1972195E+03  0.7818608E-02  0.1153079E+00
         21   -1    0    0  503  502  0.00000000000E+00  0.00000000000E+00  0.63577433129E+03  0.63577433129E+03  0.00000000000E+00 0. -1.
         21   -1    0    0  501  503 -0.00000000000E+00 -0.00000000000E+00 -0.23571961612E+03  0.23571961612E+03  0.00000000000E+00 0. -1.
          6    2    1    2  501    0 -0.82720125352E+02  0.45363163556E+02 -0.17582421248E+03  0.26421520351E+03  0.17319088985E+03 0.  0.
         24    2    3    3    0    0 -0.43748115022E+02 -0.33441617532E+02 -0.46941670271E+02  0.10813249852E+03  0.80354697914E+02 0.  0.
         -6    2    1    2    0  502  0.82720125352E+02 -0.45363163556E+02  0.57587892765E+03  0.60727874390E+03  0.16807884384E+03 0.  0.
        -24    2    5    5    0    0  0.11999682664E+03 -0.55605096439E+02  0.45686574970E+03  0.48205623725E+03  0.78490365444E+02 0.  0.
          5    1    3    3  501    0 -0.38972010330E+02  0.78804781088E+02 -0.12888254221E+03  0.15608270499E+03  0.47000000000E+01 0. -1.
        -11    1    4    4    0    0 -0.29900457064E+00 -0.48608579434E+02 -0.11251662525E+02  0.49894722245E+02  0.00000000000E+00 0.  1.
         12    1    4    4    0    0 -0.43449110451E+02  0.15166961902E+02 -0.35690007746E+02  0.58237776273E+02  0.00000000000E+00 0. -1.
         -5    1    5    5    0  502 -0.37276701290E+02  0.10241932883E+02  0.11901317795E+03  0.12522250666E+03  0.47000000000E+01 0.  1.
         13    1    6    6    0    0  0.44428434963E+01 -0.34539726467E+02  0.13530477108E+03  0.13971439668E+03  0.00000000000E+00 0. -1.
        -14    1    6    6    0    0  0.11555398315E+03 -0.21065369972E+02  0.32156097862E+03  0.34234184057E+03  0.00000000000E+00 0.  1.
</event>
<event>
12    1  0.8449700E-002  0.1836595E+03  0.7818608E-02  0.1164528E+00
         21   -1    0    0  501  502  0.00000000000E+00  0.00000000000E+00  0.30945377737E+03  0.30945377737E+03  0.00000000000E+00 0.  1.
         21   -1    0    0  502  503 -0.00000000000E+00 -0.00000000000E+00 -0.10855566858E+03  0.10855566858E+03  0.00000000000E+00 0.  1.
         -6    2    1    2    0  503 -0.40272145918E+02 -0.50835697561E+02  0.94106325035E+02  0.20636575044E+03  0.17182755501E+03 0.  0.
        -24    2    3    3    0    0 -0.52371723824E+02 -0.57032915781E+02 -0.27788054473E+00  0.11089180864E+03  0.79381137984E+02 0.  0.
          6    2    1    2  501    0  0.40272145918E+02  0.50835697561E+02  0.10679178376E+03  0.21164369551E+03  0.17082872969E+03 0.  0.
         24    2    5    5    0    0  0.17127474121E+02  0.89750934290E+02  0.11363063320E+03  0.16561184410E+03  0.78528857936E+02 0.  0.
          5    1    5    5  501    0  0.23144671797E+02 -0.38915236729E+02 -0.68388494437E+01  0.46031851407E+02  0.47000000000E+01 0. -1.
        -13    1    6    6    0    0  0.11949579088E+02  0.28147934532E+02  0.96838016321E+02  0.10155146510E+03  0.00000000000E+00 0.  1.
         14    1    6    6    0    0  0.51778950328E+01  0.61602999757E+02  0.16792616883E+02  0.64060379002E+02  0.00000000000E+00 0. -1.
         -5    1    3    3    0  503  0.12099577906E+02  0.61972182208E+01  0.94384205579E+02  0.95473941796E+02  0.47000000000E+01 0.  1.
         13    1    4    4    0    0 -0.11210175861E+02 -0.40422926051E+02  0.34651574016E+02  0.54409673543E+02  0.00000000000E+00 0. -1.
        -14    1    4    4    0    0 -0.41161547962E+02 -0.16609989731E+02 -0.34929454560E+02  0.56482135100E+02  0.00000000000E+00 0.  1.
</event>
<event>
12    1  0.8449700E-002  0.3158334E+03  0.7818608E-02  0.1077914E+00
         21   -1    0    0  503  502  0.00000000000E+00  0.00000000000E+00  0.23371284545E+03  0.23371284545E+03  0.00000000000E+00 0.  1.
         21   -1    0    0  501  503 -0.00000000000E+00 -0.00000000000E+00 -0.49011054349E+03  0.49011054349E+03  0.00000000000E+00 0. -1.
          6    2    1    2  501    0 -0.21883672180E+03 -0.14509010463E+03 -0.26260029625E+03  0.41074280218E+03  0.17552801682E+03 0.  0.
         24    2    3    3    0    0 -0.55940228650E+02 -0.14930978403E+02 -0.43336031967E+02  0.10812824006E+03  0.80383215500E+02 0.  0.
         -6    2    1    2    0  502  0.21883672180E+03  0.14509010463E+03  0.62025982034E+01  0.31308058676E+03  0.17041224225E+03 0.  0.
        -24    2    5    5    0    0  0.16511498001E+03  0.31575139046E+02 -0.39371817567E+01  0.18699895412E+03  0.81811743714E+02 0.  0.
          5    1    3    3  501    0 -0.16289649315E+03 -0.13015912622E+03 -0.21926426428E+03  0.30261456213E+03  0.47000000000E+01 0. -1.
        -11    1    4    4    0    0 -0.12934707801E+02 -0.44836545092E+02 -0.21437514289E+02  0.51353573007E+02  0.00000000000E+00 0.  1.
         12    1    4    4    0    0 -0.43005520848E+02  0.29905566688E+02 -0.21898517678E+02  0.56774667052E+02  0.00000000000E+00 0. -1.
         -5    1    5    5    0  502  0.53721741789E+02  0.11351496558E+03  0.10139779960E+02  0.12608163264E+03  0.47000000000E+01 0.  1.
         13    1    6    6    0    0  0.47154276263E+02  0.10525106302E+02  0.36482066130E+02  0.60541265114E+02  0.00000000000E+00 0. -1.
        -14    1    6    6    0    0  0.11796070375E+03  0.21050032744E+02 -0.40419247887E+02  0.12645768900E+03  0.00000000000E+00 0.  1.
</event>
<event>
12    1  0.8449700E-002  0.1832392E+03  0.7818608E-02  0.1164775E+00
         21   -1    0    0  501  502  0.00000000000E+00  0.00000000000E+00  0.99019849065E+02  0.99019849065E+02  0.00000000000E+00 0.  1.
         21   -1    0    0  502  503 -0.00000000000E+00 -0.00000000000E+00 -0.42815227997E+03  0.42815227997E+03  0.00000000000E+00 0.  1.
         -6    2    1    2    0  503  0.19643640228E+02 -0.59360011392E+02 -0.28504993346E+03  0.33870491991E+03  0.17192461910E+03 0.  0.
        -24    2    3    3    0    0  0.29992100828E+01 -0.92881334228E+02 -0.27111331284E+03  0.29849253956E+03  0.83423199792E+02 0.  0.
          6    2    1    2  501    0 -0.19643640228E+02  0.59360011392E+02 -0.44082497438E+02  0.18846720912E+03  0.17224151294E+03 0.  0.
         24    2    5    5    0    0  0.62354689180E+01  0.32300107866E+02  0.32300407877E+02  0.10327093635E+03  0.92408830235E+02 0.  0.
          5    1    5    5  501    0 -0.25879109146E+02  0.27059903526E+02 -0.76382905315E+02  0.85196272767E+02  0.47000000000E+01 0. -1.
        -13    1    6    6    0    0  0.39392750403E+02  0.25958845251E+02 -0.10924956098E+02  0.48425252677E+02  0.00000000000E+00 0.  1.
         14    1    6    6    0    0 -0.33157281485E+02  0.63412626152E+01  0.43225363975E+02  0.54845683676E+02  0.00000000000E+00 0. -1.
         -5    1    3    3    0  503  0.16644430145E+02  0.33521322836E+02 -0.13936620628E+02  0.40212380358E+02  0.47000000000E+01 0.  1.
         11    1    4    4    0    0  0.19548304312E+02  0.30867630685E+01 -0.16083654355E+02  0.25501926303E+02  0.00000000000E+00 0. -1.
        -12    1    4    4    0    0 -0.16549094230E+02 -0.95968097296E+02 -0.25502965848E+03  0.27299061325E+03  0.00000000000E+00 0.  1.
</event>
<event>
12    1  0.8449700E-002  0.1900000E+03  0.7818608E-02  0.1158521E+00
         21   -1    0    0  503  502  0.00000000000E+00  0.00000000000E+00  0.21980485911E+02  0.21980485911E+02  0.00000000000E+00 0. -1.
         21   -1    0    0  501  503 -0.00000000000E+00 -0.00000000000E+00 -0.16406454537E+04  0.16406454537E+04  0.00000000000E+00 0.  1.
          6    2    1    2  501    0  0.35747216201E+02 -0.72524830762E+02 -0.79462418175E+03  0.81702362752E+03  0.17193691619E+03 0.  0.
         24    2    3    3    0    0 -0.54441251768E+01 -0.91289721212E+02 -0.35619902812E+03  0.37624300968E+03  0.79483350490E+02 0.  0.
         -6    2    1    2    0  502 -0.35747216201E+02  0.72524830762E+02 -0.82404078603E+03  0.84560231209E+03  0.17164596886E+03 0.  0.
        -24    2    5    5    0    0 -0.61061113314E+01 -0.19943229560E+02 -0.51346664264E+03  0.52016825453E+03  0.80572966397E+02 0.  0.
          5    1    3    3  501    0  0.41191341377E+02  0.18764890450E+02 -0.43842515363E+03  0.44078061783E+03  0.47000000000E+01 0. -1.
        -13    1    4    4    0    0  0.23746996732E+02 -0.67835942583E+01 -0.14203609434E+03  0.14416722616E+03  0.00000000000E+00 0.  1.
         14    1    4    4    0    0 -0.29191121909E+02 -0.84506126953E+02 -0.21416293378E+03  0.23207578352E+03  0.00000000000E+00 0. -1.
         -5    1    5    5    0  502 -0.29641104869E+02  0.92468060322E+02 -0.31057414339E+03  0.32543405756E+03  0.47000000000E+01 0.  1.
         11    1    6    6    0    0 -0.24166729478E+00 -0.46245706351E+02 -0.18865598547E+03  0.19424161401E+03  0.00000000000E+00 0. -1.
        -12    1    6    6    0    0 -0.58644440367E+01  0.26302476791E+02 -0.32481065717E+03  0.32592664052E+03  0.00000000000E+00 0.  1.
</event>
<event>
12    1  0.8449700E-002  0.2223400E+03  0.7818608E-02  0.1132355E+00
         21   -1    0    0  503  502  0.00000000000E+00  0.00000000000E+00  0.28767887033E+03  0.28767887033E+03  0.00000000000E+00 0.  1.
         21   -1    0    0  501  503 -0.00000000000E+00 -0.00000000000E+00 -0.28129328130E+03  0.28129328130E+03  0.00000000000E+00 0.  1.
          6    2    1    2  501    0 -0.12203703994E+03  0.68256238752E+02 -0.17495143872E+03  0.28291888459E+03  0.17286739456E+03 0.  0.
         24    2    3    3    0    0 -0.19537471549E+02  0.66460531139E+02 -0.14066232210E+03  0.17471897884E+03  0.77085132908E+02 0.  0.
         -6    2    1    2    0  502  0.12203703994E+03 -0.68256238752E+02  0.18133702775E+03  0.28605326705E+03  0.17143920412E+03 0.  0.
        -24    2    5    5    0    0  0.99132762902E+02  0.10545967614E+02  0.15198802899E+03  0.19877298655E+03  0.80447604780E+02 0.  0.
          5    1    3    3  501    0 -0.10249956839E+03  0.17957076139E+01 -0.34289116626E+02  0.10819990575E+03  0.47000000000E+01 0. -1.
        -13    1    4    4    0    0 -0.43688526882E+02  0.18509628053E+02 -0.47157444774E+02  0.66896325081E+02  0.00000000000E+00 0.  1.
         14    1    4    4    0    0  0.24151055333E+02  0.47950903085E+02 -0.93504877322E+02  0.10782265376E+03  0.00000000000E+00 0. -1.
         -5    1    5    5    0  502  0.22904277033E+02 -0.78802206366E+02  0.29348998761E+02  0.87280280492E+02  0.47000000000E+01 0.  1.
         11    1    6    6    0    0  0.27399385714E+02  0.19838631810E+02  0.40122651739E+01  0.34064584563E+02  0.00000000000E+00 0. -1.
        -12    1    6    6    0    0  0.71733377188E+02 -0.92926641958E+01  0.14797576381E+03  0.16470840199E+03  0.00000000000E+00 0.  1.
</event>
<event>
12    1  0.8449700E-002  0.1802490E+03  0.7818608E-02  0.1168707E+00
         21   -1    0    0  503  502  0.00000000000E+00  0.00000000000E+00  0.61569280449E+02  0.61569280449E+02  0.00000000000E+00 0. -1.
         21   -1    0    0  501  503 -0.00000000000E+00 -0.00000000000E+00 -0.53869652311E+03  0.53869652311E+03  0.00000000000E+00 0. -1.
          6    2    1    2  501    0  0.22394644011E+02 -0.31106256260E+02 -0.17743066166E+03  0.25292558535E+03  0.17612663844E+03 0.  0.
         24    2    3    3    0    0  0.76555541566E+02 -0.45572967106E+02 -0.84334866986E+02  0.14415240147E+03  0.75696094902E+02 0.  0.
         -6    2    1    2    0  502 -0.22394644011E+02  0.31106256260E+02 -0.29969658100E+03  0.34734021821E+03  0.17134196002E+03 0.  0.
        -24    2    5    5    0    0  0.38356903553E+02  0.38361472010E+02 -0.10087809373E+03  0.13926746754E+03  0.79222365133E+02 0.  0.
          5    1    3    3  501    0 -0.54160897555E+02  0.14466710847E+02 -0.93095794676E+02  0.10877318389E+03  0.47000000000E+01 0. -1.
        -13    1    4    4    0    0  0.46142720481E+02  0.14559511185E+02 -0.25485500131E+02  0.54686751012E+02  0.00000000000E+00 0.  1.
         14    1    4    4    0    0  0.30412821085E+02 -0.60132478291E+02 -0.58849366855E+02  0.89465650453E+02  0.00000000000E+00 0. -1.
         -5    1    5    5    0  502 -0.60751547564E+02 -0.72552157503E+01 -0.19881848727E+03  0.20807275066E+03  0.47000000000E+01 0.  1.
         13    1    6    6    0    0  0.33102076492E+02  0.25461624100E+02 -0.11320796799E+03  0.12066518051E+03  0.00000000000E+00 0. -1.
        -14    1    6    6    0    0  0.52548270606E+01  0.12899847910E+02  0.12329874266E+02  0.18602287036E+02  0.00000000000E+00 0.  1.
</event>
<event>
12    1  0.8449700E-002  0.2411786E+03  0.7818608E-02  0.1119309E+00
         21   -1    0    0  501  502  0.00000000000E+00  0.00000000000E+00  0.29576877451E+03  0.29576877451E+03  0.00000000000E+00 0. -1.
         21   -1    0    0  502  503 -0.00000000000E+00 -0.00000000000E+00 -0.23201826386E+03  0.23201826386E+03  0.00000000000E+00 0. -1.
         -6    2    1    2    0  503  0.42303441024E+02  0.16441624520E+03 -0.73350122990E+02  0.25036374019E+03  0.16875864140E+03 0.  0.
        -24    2    3    3    0    0  0.18169244791E+02  0.15643462768E+03 -0.45190334396E+01  0.17683840758E+03  0.80308695290E+02 0.  0.
          6    2    1    2  501    0 -0.42303441024E+02 -0.16441624520E+03  0.13710063365E+03  0.27742329818E+03  0.17130329774E+03 0.  0.
         24    2    5    5    0    0  0.11570788183E+02 -0.10972312021E+03  0.14635674850E+03  0.19995371605E+03  0.79925868653E+02 0.  0.
          5    1    5    5  501    0 -0.53874229207E+02 -0.54693124990E+02 -0.92561148566E+01  0.77469582135E+02  0.47000000000E+01 0. -1.
        -13    1    6    6    0    0 -0.30984539628E+02 -0.35185018249E+02  0.31145364684E+02  0.56285530525E+02  0.00000000000E+00 0.  1.
         14    1    6    6    0    0  0.42555327811E+02 -0.74538101962E+02  0.11521138382E+03  0.14366818552E+03  0.00000000000E+00 0. -1.
         -5    1    3    3    0  503  0.24134196233E+02  0.79816175237E+01 -0.68831089551E+02  0.73525332606E+02  0.47000000000E+01 0.  1.
         13    1    4    4    0    0  0.49149588040E+02  0.10763848551E+03 -0.10157177185E+02  0.11876402576E+03  0.00000000000E+00 0. -1.
        -14    1    4    4    0    0 -0.30980343250E+02  0.48796142168E+02  0.56381437455E+01  0.58074381815E+02  0.00000000000E+00 0.  1.
</event>
<event>
12    1  0.8449700E-002  0.2029632E+03  0.7818608E-02  0.1147603E+00
         21   -1    0    0  501  502  0.00000000000E+00  0.00000000000E+00  0.46348265246E+02  0.46348265246E+02  0.00000000000E+00 0.  1.
         21   -1    0    0  502  503 -0.00000000000E+00 -0.00000000000E+00 -0.10059466599E+04  0.10059466599E+04  0.00000000000E+00 0.  1.
         -6    2    1    2    0  503 -0.80398217042E+02 -0.70279888202E+02 -0.66305094142E+03  0.69294207844E+03  0.17067230931E+03 0.  0.
        -24    2    3    3    0    0 -0.94423417146E+02  0.95490900134E+01 -0.40595907204E+03  0.42333552937E+03  0.73506703293E+02 0.  0.
          6    2    1    2  501    0  0.80398217042E+02  0.70279888202E+02 -0.29654745323E+03  0.35935284671E+03  0.17260052267E+03 0.  0.
         24    2    5    5    0    0  0.11805484065E+03  0.54098386004E+02 -0.27259038894E+03  0.31164652381E+03  0.77165114441E+02 0.  0.
          5    1    5    5  501    0 -0.37656623610E+02  0.16181502197E+02 -0.23957064289E+02  0.47706322898E+02  0.47000000000E+01 0. -1.
        -13    1    6    6    0    0  0.72038582287E+02  0.53773442454E+02 -0.23698721004E+03  0.25346415560E+03  0.00000000000E+00 0.  1.
         14    1    6    6    0    0  0.46016258365E+02  0.32494355015E+00 -0.35603178906E+02  0.58182368209E+02  0.00000000000E+00 0. -1.
         -5    1    3    3    0  503  0.14025200104E+02 -0.79828978215E+02 -0.25709186938E+03  0.26960654907E+03  0.47000000000E+01 0.  1.
         11    1    4    4    0    0 -0.92113216289E+02  0.41968886789E+01 -0.23744424034E+03  0.25471989667E+03  0.00000000000E+00 0. -1.
        -12    1    4    4    0    0 -0.23102008567E+01  0.53522013346E+01 -0.16851483170E+03  0.16861563270E+03  0.00000000000E+00 0.  1.
</event>
<event>
12    1  0.8449700E-002  0.1731621E+03  0.7818608E-02  0.1175103E+00
         21   -1    0    0  501  502  0.00000000000E+00  0.00000000000E+00  0.94328411330E+02  0.94328411330E+02  0.00000000000E+00 0.  1.
         21   -1    0    0  502  503 -0.00000000000E+00 -0.00000000000E+00 -0.38327496456E+03  0.38327496456E+03  0.00000000000E+00 0.  1.
         -6    2    1    2    0  503  0.24433823740E+01  0.11648883169E+02 -0.24653246489E+03  0.30126961031E+03  0.17275258392E+03 0.  0.
        -24    2    3    3    0    0  0.24057000779E+02  0.69491649924E+02 -0.16652779941E+03  0.20009762473E+03  0.83064569766E+02 0.  0.
          6    2    1    2  501    0 -0.24433823740E+01 -0.11648883169E+02 -0.42414088337E+02  0.17633376558E+03  0.17074242413E+03 0.  0.
         24    2    5    5    0    0  0.20297005638E+02  0.19607587465E+02 -0.84390344285E+02  0.11907830063E+03  0.79129549149E+02 0.  0.
          5    1    5    5  501    0 -0.22740388012E+02 -0.31256470634E+02  0.41976255948E+02  0.57255464952E+02  0.47000000000E+01 0. -1.
        -11    1    6    6    0    0  0.13061787960E+02  0.33207501446E+02 -0.25217500252E+01  0.35773002113E+02  0.00000000000E+00 0.  1.
         12    1    6    6    0    0  0.72352176778E+01 -0.13599913981E+02 -0.81868594260E+02  0.83305298519E+02  0.00000000000E+00 0. -1.
         -5    1    3    3    0  503 -0.21613618405E+02 -0.57842766755E+02 -0.80004665479E+02  0.10117198557E+03  0.47000000000E+01 0.  1.
         13    1    4    4    0    0 -0.24248791287E+02  0.37172847238E+01 -0.67244084832E+02  0.71579249992E+02  0.00000000000E+00 0. -1.
        -14    1    4    4    0    0  0.48305792067E+02  0.65774365201E+02 -0.99283714582E+02  0.12851837474E+03  0.00000000000E+00 0.  1.
</event>
<event>
12    1  0.8449700E-002  0.2317911E+03  0.7818608E-02  0.1125396E+00
         21   -1    0    0  501  502  0.00000000000E+00  0.00000000000E+00  0.10086154597E+03  0.10086154597E+03  0.00000000000E+00 0.  1.
         21   -1    0    0  502  503 -0.00000000000E+00 -0.00000000000E+00 -0.55123149334E+03  0.55123149334E+03  0.00000000000E+00 0. -1.
         -6    2    1    2    0  503  0.75467432510E+02 -0.13608966572E+03 -0.28518676848E+03  0.36746595064E+03  0.17170906056E+03 0.  0.
        -24    2    3    3    0    0  0.99087522343E+02 -0.15236153694E+03 -0.26847110355E+03  0.33393706920E+03  0.80030355020E+02 0.  0.
          6    2    1    2  501    0 -0.75467432510E+02  0.13608966572E+03 -0.16518317889E+03  0.28462708867E+03  0.17178872643E+03 0.  0.
         24    2    5    5    0    0  0.31560883282E+00  0.22270065985E+02 -0.22788802995E+02  0.87152485427E+02  0.81118251499E+02 0.  0.
          5    1    5    5  501    0 -0.75783041343E+02  0.11381959974E+03 -0.14239437589E+03  0.19747460324E+03  0.47000000000E+01 0. -1.
        -13    1    6    6    0    0 -0.20912546591E+01 -0.13336903760E+02  0.24461229548E+02  0.27939185724E+02  0.00000000000E+00 0.  1.
         14    1    6    6    0    0  0.24068634920E+01  0.35606969745E+02 -0.47250032543E+02  0.59213299702E+02  0.00000000000E+00 0. -1.
         -5    1    3    3    0  503 -0.23620089833E+02  0.16271871216E+02 -0.16715664935E+02  0.33528881443E+02  0.47000000000E+01 0.  1.
         11    1    4    4    0    0  0.70309025181E+02 -0.38433490162E+02 -0.12514111828E+03  0.14859606883E+03  0.00000000000E+00 0. -1.
        -12    1    4    4    0    0  0.28778497162E+02 -0.11392804678E+03 -0.14332998526E+03  0.18534100037E+03  0.00000000000E+00 0.  1.
</event>
<event>
12    1  0.8449700E-002  0.2315582E+03  0.7818608E-02  0.1125553E+00
         21   -1    0    0  501  502  0.00000000000E+00  0.00000000000E+00  0.14536330971E+04  0.14536330971E+04  0.00000000000E+00 0.  1.
         21   -1    0    0  502  503 -0.00000000000E+00 -0.00000000000E+00 -0.40844981934E+02  0.40844981934E+02  0.00000000000E+00 0. -1.
         -6    2    1    2    0  503  0.30470165434E+02 -0.15304994366E+03  0.47366087070E+03  0.52723224735E+03  0.17107456265E+03 0.  0.
        -24    2    3    3    0    0  0.75532271332E+02 -0.10426337555E+03  0.23732976125E+03  0.28170178914E+03  0.80339946100E+02 0.  0.
          6    2    1    2  501    0 -0.30470165434E+02  0.15304994366E+03  0.93912724443E+03  0.96724583164E+03  0.17103158000E+03 0.  0.
         24    2    5    5    0    0 -0.11808746980E+02  0.15685271852E+03  0.92836910850E+03  0.94487314463E+03  0.78573761638E+02 0.  0.
          5    1    5    5  501    0 -0.18661418454E+02 -0.38027748534E+01  0.10758135933E+02  0.22372687010E+02  0.47000000000E+01 0. -1.
        -13    1    6    6    0    0 -0.17345136476E+02  0.11269777478E+03  0.81738394368E+03  0.82529882684E+03  0.00000000000E+00 0.  1.
         14    1    6    6    0    0  0.55363894957E+01  0.44154943735E+02  0.11098516482E+03  0.11957431779E+03  0.00000000000E+00 0. -1.
         -5    1    3    3    0  503 -0.45062105898E+02 -0.48786568117E+02  0.23633110945E+03  0.24553045821E+03  0.47000000000E+01 0.  1.
         13    1    4    4    0    0  0.43638726631E+02 -0.68380866606E+02  0.68478385545E+02  0.10615823410E+03  0.00000000000E+00 0. -1.
        -14    1    4    4    0    0  0.31893544701E+02 -0.35882508941E+02  0.16885137570E+03  0.17554355505E+03  0.00000000000E+00 0.  1.
</event>
<event>
12    1  0.8449700E-002  0.2174142E+03  0.7818608E-02  0.1135891E+00
         21   -1    0    0  501  502  0.00000000000E+00  0.00000000000E+00  0.49622238748E+03  0.49622238748E+03  0.00000000000E+00 0. -1.
         21   -1    0    0  502  503 -0.00000000000E+00 -0.00000000000E+00 -0.10026970622E+03  0.10026970622E+03  0.00000000000E+00 0. -1.
         -6    2    1    2    0  503  0.13015185467E+03  0.25716456643E+02  0.13045120405E+03  0.25354775776E+03  0.17224432476E+03 0.  0.
        -24    2    3    3    0    0  0.23304778823E+02  0.53984661933E+02  0.25424860338E+02  0.10100919896E+03  0.78095955796E+02 0.  0.
          6    2    1    2  501    0 -0.13015185467E+03 -0.25716456643E+02  0.26550147722E+03  0.34294433593E+03  0.17181077303E+03 0.  0.
         24    2    5    5    0    0 -0.92065648104E+02  0.29335796569E+02  0.89086744782E+02  0.15419699811E+03  0.80644861027E+02 0.  0.
          5    1    5    5  501    0 -0.38086206567E+02 -0.55052253213E+02  0.17641473244E+03  0.18874733782E+03  0.47000000000E+01 0. -1.
        -13    1    6    6    0    0 -0.12314927482E+02  0.26294662187E+02 -0.64173535290E+01  0.29736326685E+02  0.00000000000E+00 0.  1.
         14    1    6    6    0    0 -0.79750720622E+02  0.30411343822E+01  0.95504098311E+02  0.12446067143E+03  0.00000000000E+00 0. -1.
         -5    1    3    3    0  503  0.10684707585E+03 -0.28268205290E+02  0.10502634371E+03  0.15253855880E+03  0.47000000000E+01 0.  1.
         13    1    4    4    0    0  0.51389940327E+02  0.31489796742E+02  0.24368485206E+02  0.65010432524E+02  0.00000000000E+00 0. -1.
        -14    1    4    4    0    0 -0.28085161504E+02  0.22494865191E+02  0.10563751312E+01  0.35998766438E+02  0.00000000000E+00 0.  1.
</event>
<event>
12    1  0.8449700E-002  0.2186955E+03  0.7818608E-02  0.1134897E+00
         21   -1    0    0  501  502  0.00000000000E+00  0.00000000000E+00  0.13339801233E+03  0.13339801233E+03  0.00000000000E+00 0.  1.
         21   -1    0    0  502  503 -0.00000000000E+00 -0.00000000000E+00 -0.54017886226E+03  0.54017886226E+03  0.00000000000E+00 0.  1.
         -6    2    1    2    0  503  0.15055781892E+02  0.13426424734E+03 -0.39880512018E+03  0.45473602557E+03  0.17171419392E+03 0.  0.
        -24    2    3    3    0    0 -0.10637519900E+02 -0.22769406453E+01 -0.13843298662E+03  0.15957610332E+03  0.78628873051E+02 0.  0.
          6    2    1    2  501    0 -0.15055781892E+02 -0.13426424734E+03 -0.79757297487E+01  0.21884084902E+03  0.17197133555E+03 0.  0.
         24    2    5    5    0    0 -0.24259572894E+02 -0.15836576776E+03  0.21909467470E+02  0.17908147190E+03  0.76953918276E+02 0.  0.
          5    1    5    5  501    0  0.92037910018E+01  0.24101520425E+02 -0.29885197219E+02  0.39759377113E+02  0.47000000000E+01 0. -1.
        -11    1    6    6    0    0 -0.30796407627E+02 -0.20853972098E+02  0.18096259298E+02  0.41361594210E+02  0.00000000000E+00 0.  1.
         12    1    6    6    0    0  0.65368347333E+01 -0.13751179567E+03  0.38132081724E+01  0.13771987769E+03  0.00000000000E+00 0. -1.
         -5    1    3    3    0  503  0.25693301792E+02  0.13654118798E+03 -0.26037213355E+03  0.29515992225E+03  0.47000000000E+01 0.  1.
         13    1    4    4    0    0  0.16640697824E+02 -0.19898399344E+02 -0.11182745604E+02  0.28247352438E+02  0.00000000000E+00 0. -1.
        -14    1    4    4    0    0 -0.27278217724E+02  0.17621458699E+02 -0.12725024102E+03  0.13132875088E+03  0.00000000000E+00 0.  1.
</event>
<event>
12    1  0.8449700E-002  0.2122590E+03  0.7818608E-02  0.1140693E+00
         21   -1    0    0  501  502  0.00000000000E+00  0.00000000000E+00  0.74143008465E+03  0.74143008465E+03  0.00000000000E+00 0.  1.
         21   -1    0    0  502  503 -0.00000000000E+00 -0.00000000000E+00 -0.59467657012E+02  0.59467657012E+02  0.00000000000E+00 0. -1.
         -6    2    1    2    0  503  0.76161761202E+01 -0.11565273998E+03  0.34053714944E+03  0.39887146982E+03  0.17233495549E+03 0.  0.
        -24    2    3    3    0    0 -0.63366646026E+02 -0.33468858842E+02  0.18297382151E+03  0.20745296584E+03  0.66496746810E+02 0.  0.
          6    2    1    2  501    0 -0.76161761202E+01  0.11565273998E+03  0.34142527820E+03  0.40202627184E+03  0.17782109058E+03 0.  0.
         24    2    5    5    0    0 -0.38005705681E+02  0.97232575916E+02  0.34162811267E+03  0.36617997366E+03  0.80494709545E+02 0.  0.
          5    1    5    5  501    0  0.30389529561E+02  0.18420164062E+02 -0.20283447197E+00  0.35846298174E+02  0.47000000000E+01 0. -1.
        -11    1    6    6    0    0 -0.56906130304E+02  0.89198841756E+02  0.23685195263E+03  0.25941007787E+03  0.00000000000E+00 0.  1.
         12    1    6    6    0    0  0.18900424623E+02  0.80337341604E+01  0.10477616003E+03  0.10676989579E+03  0.00000000000E+00 0. -1.
         -5    1    3    3    0  503  0.70982822146E+02 -0.82183881136E+02  0.15756332793E+03  0.19141850398E+03  0.47000000000E+01 0.  1.
         13    1    4    4    0    0 -0.43230940057E+02  0.11171301323E+02  0.11744877868E+03  0.12565002095E+03  0.00000000000E+00 0. -1.
        -14    1    4    4    0    0 -0.20135705968E+02 -0.44640160165E+02  0.65525042833E+02  0.81802944890E+02  0.00000000000E+00 0.  1.
</event>
<event>
12    1  0.8449700E-002  0.2554764E+03  0.7818608E-02  0.1110135E+00
         21   -1    0    0  501  502  0.00000000000E+00  0.00000000000E+00  0.19086419036E+04  0.19086419036E+04  0.00000000000E+00 0. -1.
         21   -1    0    0  502  503 -0.00000000000E+00 -0.00000000000E+00 -0.35349731583E+02  0.35349731583E+02  0.00000000000E+00 0.  1.
         -6    2    1    2    0  503 -0.27126898927E+02 -0.18450515643E+03  0.74845910881E+03  0.79085981065E+03  0.17461437840E+03 0.  0.
        -24    2    3    3    0    0 -0.70895757385E+02 -0.17440790300E+03  0.57408281099E+03  0.61072971672E+03  0.89305027651E+02 0.  0.
          6    2    1    2  501    0  0.27126898927E+02  0.18450515643E+03  0.11248330633E+04  0.11531318246E+04  0.17229498914E+03 0.  0.
         24    2    5    5    0    0  0.24504807584E+02  0.17464589045E+02  0.41810159960E+03  0.42690811371E+03  0.80846103795E+02 0.  0.
          5    1    5    5  501    0  0.26220913424E+01  0.16704056738E+03  0.70673146366E+03  0.72622371087E+03  0.47000000000E+01 0. -1.
        -13    1    6    6    0    0  0.15145297480E+02 -0.14336491385E+02  0.25646134816E+02  0.33055094191E+02  0.00000000000E+00 0.  1.
         14    1    6    6    0    0  0.93595101040E+01  0.31801080429E+02  0.39245546478E+03  0.39385301952E+03  0.00000000000E+00 0. -1.
         -5    1    3    3    0  503  0.43768858458E+02 -0.10097253425E+02  0.17437629782E+03  0.18013009393E+03  0.47000000000E+01 0.  1.
         11    1    4    4    0    0 -0.45165063350E+02 -0.16107773586E+03  0.54321363088E+03  0.56838980349E+03  0.00000000000E+00 0. -1.
        -12    1    4    4    0    0 -0.25730694035E+02 -0.13330167142E+02  0.30869180112E+02  0.42339913230E+02  0.00000000000E+00 0.  1.
</event>
<event>
12    1  0.8449700E-002  0.2462061E+03  0.7818608E-02  0.1116459E+00
         21   -1    0    0  501  502  0.00000000000E+00  0.00000000000E+00  0.31470867218E+03  0.31470867218E+03  0.00000000000E+00 0.  1.
         21   -1    0    0  502  503 -0.00000000000E+00 -0.00000000000E+00 -0.47038222842E+03  0.47038222842E+03  0.00000000000E+00 0.  1.
         -6    2    1    2    0  503 -0.11012700321E+02  0.16819719220E+03  0.22599671820E+03  0.33089970702E+03  0.17322968693E+03 0.  0.
        -24    2    3    3    0    0  0.61194463805E+02  0.89677387841E+02  0.13950043404E+03  0.19348452808E+03  0.78670802835E+02 0.  0.
          6    2    1    2  501    0  0.11012700321E+02 -0.16819719220E+03 -0.38167027444E+03  0.45419119358E+03  0.17945993118E+03 0.  0.
         24    2    5    5    0    0 -0.11855567949E+02 -0.14329347311E+03 -0.16027036663E+03  0.23017520732E+03  0.81366219768E+02 0.  0.
          5    1    5    5  501    0  0.22868268270E+02 -0.24903719092E+02 -0.22139990781E+03  0.22401598626E+03  0.47000000000E+01 0. -1.
        -13    1    6    6    0    0  0.14027723903E+02 -0.70682721692E+02 -0.12741154142E+03  0.14637802114E+03  0.00000000000E+00 0.  1.
         14    1    6    6    0    0 -0.25883291852E+02 -0.72610751419E+02 -0.32858825200E+02  0.83797186184E+02  0.00000000000E+00 0. -1.
         -5    1    3    3    0  503 -0.72207164127E+02  0.78519804362E+02  0.86496284161E+02  0.13741517894E+03  0.47000000000E+01 0.  1.
         13    1    4    4    0    0  0.63649281458E+02  0.84860230457E+02  0.77805079428E+02  0.13155272756E+03  0.00000000000E+00 0. -1.
        -14    1    4    4    0    0 -0.24548176530E+01  0.48171573835E+01  0.61695354615E+02  0.61931800523E+02  0.00000000000E+00 0.  1.
</event>
<event>
12    1  0.8449700E-002  0.2757310E+03  0.7818608E-02  0.1098146E+00
         21   -1    0    0  503  502  0.00000000000E+00  0.00000000000E+00  0.15173588016E+03  0.15173588016E+03  0.00000000000E+00 0. -1.
         21   -1    0    0  501  503 -0.00000000000E+00 -0.00000000000E+00 -0.83139590532E+03  0.83139590532E+03  0.00000000000E+00 0.  1.
          6    2    1    2  501    0  0.15040929123E+03 -0.15493162073E+03 -0.65058486797E+03  0.70660333043E+03  0.17146671441E+03 0.  0.
         24    2    3    3    0    0  0.63521474550E+02 -0.12408749568E+03 -0.53581162705E+03  0.55930825390E+03  0.79365854681E+02 0.  0.
         -6    2    1    2    0  502 -0.15040929123E+03  0.15493162073E+03 -0.29075157186E+02  0.27652845505E+03  0.17028170687E+03 0.  0.
        -24    2    5    5    0    0 -0.16367649141E+03  0.11602028631E+03 -0.57578089251E+02  0.22628288128E+03  0.87395682527E+02 0.  0.
          5    1    3    3  501    0  0.86887816683E+02 -0.30844125049E+02 -0.11477324093E+03  0.14729507654E+03  0.47000000000E+01 0. -1.
        -13    1    4    4    0    0  0.23817173850E+02 -0.63879668062E+02 -0.12659725813E+03  0.14378711878E+03  0.00000000000E+00 0.  1.
         14    1    4    4    0    0  0.39704300700E+02 -0.60207827614E+02 -0.40921436892E+03  0.41552113512E+03  0.00000000000E+00 0. -1.
         -5    1    5    5    0  502  0.13267200177E+02  0.38911334413E+02  0.28502932065E+02  0.50245573762E+02  0.47000000000E+01 0.  1.
         13    1    6    6    0    0 -0.11954487701E+03  0.11369665056E+03 -0.16250444165E+02  0.16577690703E+03  0.00000000000E+00 0. -1.
        -14    1    6    6    0    0 -0.44131614400E+02  0.23236357544E+01 -0.41327645086E+02  0.60505974259E+02  0.00000000000E+00 0.  1.
</event>
<event>
12    1  0.8449700E-002  0.2143855E+03  0.7818608E-02  0.1138199E+00
         21   -1    0    0  503  502  0.00000000000E+00  0.00000000000E+00  0.47215768995E+03  0.47215768995E+03  0.00000000000E+00 0. -1.
         21   -1    0    0  501  503 -0.00000000000E+00 -0.00000000000E+00 -0.97695961410E+02  0.97695961410E+02  0.00000000000E+00 0. -1.
          6    2    1    2  501    0 -0.28873250221E+02  0.12488257421E+03  0.16682821212E+03  0.27140298738E+03  0.17146022069E+03 0.  0.
         24    2    3    3    0    0 -0.78522808345E+02  0.60447323202E+02  0.68315430808E+02  0.14355996537E+03  0.78248036770E+02 0.  0.
         -6    2    1    2    0  502  0.28873250221E+02 -0.12488257421E+03  0.20763351641E+03  0.29845066398E+03  0.17184818815E+03 0.  0.
        -24    2    5    5    0    0  0.67393887334E+02 -0.76981486613E+02  0.71030303709E+02  0.14858111604E+03  0.81012089644E+02 0.  0.
          5    1    3    3  501    0  0.49649558124E+02  0.64435251007E+02  0.98512781317E+02  0.12784302201E+03  0.47000000000E+01 0. -1.
        -13    1    4    4    0    0 -0.76043254933E+02  0.45250761768E+02  0.83693569899E+02  0.12179828284E+03  0.00000000000E+00 0.  1.
         14    1    4    4    0    0 -0.24795534120E+01  0.15196561434E+02 -0.15378139091E+02  0.21761682528E+02  0.00000000000E+00 0. -1.
         -5    1    5    5    0  502 -0.38520637113E+02 -0.47901087596E+02  0.13660321270E+03  0.14986954793E+03  0.47000000000E+01 0.  1.
         13    1    6    6    0    0  0.33951786277E+02 -0.66717320148E+02  0.64522647660E+01  0.75136917157E+02  0.00000000000E+00 0. -1.
        -14    1    6    6    0    0  0.33442101057E+02 -0.10264166464E+02  0.64578038943E+02  0.73444198886E+02  0.00000000000E+00 0.  1.
</event>
<event>
12    1  0.8449700E-002  0.2396376E+03  0.7818608E-02  0.1120165E+00
         21   -1    0    0  503  502  0.00000000000E+00  0.00000000000E+00  0.17699000181E+03  0.17699000181E+03  0.00000000000E+00 0.  1.
         21   -1    0    0  501  503 -0.00000000000E+00 -0.00000000000E+00 -0.32349926217E+03  0.32349926217E+03  0.00000000000E+00 0.  1.
          6    2    1    2  501    0  0.43250660962E+02 -0.16123055038E+03 -0.68991644228E+02  0.24937130395E+03  0.17193106239E+03 0.  0.
         24    2    3    3    0    0 -0.94438655455E+01 -0.11806387951E+03  0.10338121290E+02  0.14470337049E+03  0.82485892361E+02 0.  0.
         -6    2    1    2    0  502 -0.43250660962E+02  0.16123055038E+03 -0.77517616126E+02  0.25111796003E+03  0.17083717098E+03 0.  0.
        -24    2    5    5    0    0 -0.12568142465E+02  0.63031953637E+02 -0.99691598606E+02  0.14577017010E+03  0.84732179684E+02 0.  0.
          5    1    3    3  501    0  0.52694526507E+02 -0.43166670866E+02 -0.79329765518E+02  0.10466793346E+03  0.47000000000E+01 0. -1.
        -13    1    4    4    0    0 -0.19238101530E+02 -0.12512154172E+03 -0.31119525030E+01  0.12663012675E+03  0.00000000000E+00 0.  1.
         14    1    4    4    0    0  0.97942359848E+01  0.70576622067E+01  0.13450073793E+02  0.18073243743E+02  0.00000000000E+00 0. -1.
         -5    1    5    5    0  502 -0.30682518497E+02  0.98198596741E+02  0.22173982480E+02  0.10534778993E+03  0.47000000000E+01 0.  1.
         13    1    6    6    0    0 -0.44371164558E+02  0.57304535780E+02 -0.79914486593E+02  0.10788389700E+03  0.00000000000E+00 0. -1.
        -14    1    6    6    0    0  0.31803022093E+02  0.57274178571E+01 -0.19777112013E+02  0.37886273096E+02  0.00000000000E+00 0.  1.
</event>
<event>
12    1  0.8449700E-002  0.1761863E+03  0.7818608E-02  0.1171794E+00
         21   -1    0    0  501  502  0.00000000000E+00  0.00000000000E+00  0.20048881233E+03  0.20048881233E+03  0.00000000000E+00 0. -1.
         21   -1    0    0  502  503 -0.00000000000E+00 -0.00000000000E+00 -0.17054475629E+03  0.17054475629E+03  0.00000000000E+00 0.  1.
         -6    2    1    2    0  503 -0.36074596734E+02  0.10760971951E+02  0.72793527107E+02  0.18971148652E+03  0.17109756130E+03 0.  0.
        -24    2    3    3    0    0 -0.44234169673E+02 -0.54875867729E+02  0.29141426298E+02  0.11032402366E+03  0.79712890082E+02 0.  0.
          6    2    1    2  501    0  0.36074596734E+02 -0.10760971951E+02 -0.42849471065E+02  0.18132208209E+03  0.17211753321E+03 0.  0.
         24    2    5    5    0    0  0.23533053184E+02  0.38564347017E+02  0.25981066586E+02  0.95589880912E+02  0.80133613789E+02 0.  0.
          5    1    5    5  501    0  0.12541543550E+02 -0.49325318968E+02 -0.68830537651E+02  0.85732201181E+02  0.47000000000E+01 0. -1.
        -11    1    6    6    0    0  0.70535139645E+00 -0.23429150781E+02 -0.26510661562E+01  0.23589208946E+02  0.00000000000E+00 0.  1.
         12    1    6    6    0    0  0.22827701787E+02  0.61993497799E+02  0.28632132742E+02  0.72000671966E+02  0.00000000000E+00 0. -1.
         -5    1    3    3    0  503  0.81595729394E+01  0.65636839680E+02  0.43652100809E+02  0.79387462856E+02  0.47000000000E+01 0.  1.
         13    1    4    4    0    0 -0.55626852830E+02 -0.25545943443E+02  0.44140154937E+02  0.75467180019E+02  0.00000000000E+00 0. -1.
        -14    1    4    4    0    0  0.11392683157E+02 -0.29329924286E+02 -0.14998728639E+02  0.34856843645E+02  0.00000000000E+00 0.  1.
</event>
<event>
12    1  0.8449700E-002  0.2374563E+03  0.7818608E-02  0.1121719E+00
         21   -1    0    0  501  502  0.00000000000E+00  0.00000000000E+00  0.13671489412E+04  0.13671489412E+04  0.00000000000E+00 0.  1.
         21   -1    0    0  502  503 -0.00000000000E+00 -0.00000000000E+00 -0.49916652694E+02  0.49916652694E+02  0.00000000000E+00 0. -1.
         -6    2    1    2    0  503  0.97966374267E+02  0.12851524672E+03  0.35796830761E+03  0.42884856563E+03  0.17220976705E+03 0.  0.
        -24    2    3    3    0    0  0.24299236335E-01  0.11096898420E+03  0.20959023540E+03  0.25013464983E+03  0.79530875922E+02 0.  0.
          6    2    1    2  501    0 -0.97966374267E+02 -0.12851524672E+03  0.95926398092E+03  0.98821702828E+03  0.17398830641E+03 0.  0.
         24    2    5    5    0    0 -0.21962360191E+02 -0.70841194886E+02  0.23547610095E+03  0.25815272180E+03  0.75452060907E+02 0.  0.
          5    1    5    5  501    0 -0.76004014075E+02 -0.57674051837E+02  0.72378787996E+03  0.73006430648E+03  0.47000000000E+01 0. -1.
        -11    1    6    6    0    0 -0.34777509928E+02 -0.16979369739E+02  0.15959552634E+03  0.16422090677E+03  0.00000000000E+00 0.  1.
         12    1    6    6    0    0  0.12815149737E+02 -0.53861825147E+02  0.75880574617E+02  0.93931815031E+02  0.00000000000E+00 0. -1.
         -5    1    3    3    0  503  0.97942075030E+02  0.17546262520E+02  0.14837807221E+03  0.17871391580E+03  0.47000000000E+01 0.  1.
         13    1    4    4    0    0  0.17410229076E+02  0.66723960832E+02  0.54417763873E+02  0.87843588557E+02  0.00000000000E+00 0. -1.
        -14    1    4    4    0    0 -0.17385929840E+02  0.44245023372E+02  0.15517247153E+03  0.16229106127E+03  0.00000000000E+00 0.  1.
</event>
<event>
12    1  0.8449700E-002  0.1863823E+03  0.7818608E-02  0.1162039E+00
         21   -1    0    0  503  502  0.00000000000E+00  0.00000000000E+00  0.98064966332E+02  0.98064966332E+02  0.00000000000E+00 0.  1.
         21   -1    0    0  501  503 -0.00000000000E+00 -0.00000000000E+00 -0.16612944731E+04  0.16612944731E+04  0.00000000000E+00 0.  1.
          6    2    1    2  501    0 -0.55246620647E+01 -0.70737133704E+02 -0.15620321881E+04  0.15729732903E+04  0.17107352638E+03 0.  0.
         24    2    3    3    0    0  0.30920876543E+02 -0.76288393130E+02 -0.14609046361E+04  0.14652330215E+04  0.76742633501E+02 0.  0.
         -6    2    1    2    0  502  0.55246620647E+01  0.70737133704E+02 -0.11973186988E+01  0.18638614914E+03  0.17234877152E+03 0.  0.
        -24    2    5    5    0    0  0.37449394887E+02  0.95993237802E+01 -0.49580076479E+02  0.10200604711E+03  0.80327115405E+02 0.  0.
          5    1    3    3  501    0 -0.36445538608E+02  0.55512594260E+01 -0.10112755198E+03  0.10774026886E+03  0.47000000000E+01 0. -1.
        -13    1    4    4    0    0  0.90044259759E+01 -0.60580639771E+02 -0.13381928806E+04  0.13395936993E+04  0.00000000000E+00 0.  1.
         14    1    4    4    0    0  0.21916450567E+02 -0.15707753360E+02 -0.12271175553E+03  0.12563932214E+03  0.00000000000E+00 0. -1.
         -5    1    5    5    0  502 -0.31924732822E+02  0.61137809924E+02  0.48382757780E+02  0.84380102029E+02  0.47000000000E+01 0.  1.
         13    1    6    6    0    0  0.43103497608E+02 -0.26768557883E+02 -0.38103374053E+02  0.63453402678E+02  0.00000000000E+00 0. -1.
        -14    1    6    6    0    0 -0.56541027216E+01  0.36367881663E+02 -0.11476702425E+02  0.38552644434E+02  0.00000000000E+00 0.  1.
</event>
<event>
12    1  0.8449700E-002  0.2025107E+03  0.7818608E-02  0.1148484E+00
         21   -1    0    0  503  502  0.00000000000E+00  0.00000000000E+00  0.88783067668E+03  0.88783067668E+03  0.00000000000E+00 0. -1.
         21   -1    0    0  501  503 -0.00000000000E+00 -0.00000000000E+00 -0.61246043337E+02  0.61246043337E+02  0.00000000000E+00 0.  1.
          6    2    1    2  501    0 -0.15041052068E+02 -0.97421937227E+02  0.17405930783E+03  0.26703415645E+03  0.17689921133E+03 0.  0.
         24    2    3    3    0    0 -0.22976224058E+02 -0.14248705969E+03  0.12140948074E+03  0.19712044886E+03  0.57321377286E+02 0.  0.
         -6    2    1    2    0  502  0.15041052068E+02  0.97421937227E+02  0.65252532551E+03  0.68204256357E+03  0.17226575685E+03 0.  0.
        -24    2    5    5    0    0  0.16779674637E+02  0.47908278385E+02  0.14560478209E+03  0.17268497546E+03  0.77734082379E+02 0.  0.
          5    1    3    3  501    0  0.79351719903E+01  0.45065122458E+02  0.52649827095E+02  0.69913707596E+02  0.47000000000E+01 0. -1.
        -11    1    4    4    0    0 -0.31548009823E+02 -0.38920787281E+02  0.28027374743E+02  0.57407650548E+02  0.00000000000E+00 0.  1.
         12    1    4    4    0    0  0.85717857647E+01 -0.10356627240E+03  0.93382105995E+02  0.13971279831E+03  0.00000000000E+00 0. -1.
         -5    1    5    5    0  502 -0.17386225692E+01  0.49513658842E+02  0.50692054342E+03  0.50935758811E+03  0.47000000000E+01 0.  1.
         13    1    6    6    0    0 -0.28904535808E+02  0.39263016099E+01  0.51972000279E+02  0.59598463467E+02  0.00000000000E+00 0. -1.
        -14    1    6    6    0    0  0.45684210445E+02  0.43981976776E+02  0.93632781813E+02  0.11308651199E+03  0.00000000000E+00 0.  1.
</event>
<event>
12    1  0.8449700E-002  0.1828108E+03  0.7818608E-02  0.1165956E+00
         21   -1    0    0  503  502  0.00000000000E+00  0.00000000000E+00  0.66194244796E+02  0.66194244796E+02  0.00000000000E+00 0.  1.
         21   -1    0    0  501  503 -0.00000000000E+00 -0.00000000000E+00 -0.15411625914E+04  0.15411625914E+04  0.00000000000E+00 0.  1.
          6    2    1    2  501    0  0.33120290715E+02  0.42192932619E+02 -0.13972612639E+04  0.14087159840E+04  0.17106866050E+03 0.  0.
         24    2    3    3    0    0  0.46702414121E+02  0.74126486748E+02 -0.12970778119E+04  0.13025885134E+04  0.81548350881E+02 0.  0.
         -6    2    1    2    0  502 -0.33120290715E+02 -0.42192932619E+02 -0.77707082640E+02  0.19864085219E+03  0.17476441355E+03 0.  0.
        -24    2    5    5    0    0 -0.12412655429E+02  0.41103811804E+02 -0.66593250318E+02  0.11196466711E+03  0.79106436739E+02 0.  0.
          5    1    3    3  501    0 -0.13582123405E+02 -0.31933554129E+02 -0.10018345206E+03  0.10612747063E+03  0.47000000000E+01 0. -1.
        -11    1    4    4    0    0  0.22988579326E+01 -0.53996753223E+01 -0.54273323262E+03  0.54276496113E+03  0.00000000000E+00 0.  1.
         12    1    4    4    0    0  0.44403556188E+02  0.79526162070E+02 -0.75434457926E+03  0.75982355223E+03  0.00000000000E+00 0. -1.
         -5    1    5    5    0  502 -0.20707635286E+02 -0.83296744423E+02 -0.11113832322E+02  0.86676185077E+02  0.47000000000E+01 0.  1.
         13    1    6    6    0    0  0.24204080818E+02 -0.94395360260E+01 -0.10406780949E+02  0.27986487067E+02  0.00000000000E+00 0. -1.
        -14    1    6    6    0    0 -0.36616736247E+02  0.50543347830E+02 -0.56186469369E+02  0.83978180044E+02  0.00000000000E+00 0.  1.
</event>
<event>
12    1  0.8449700E-002  0.2213181E+03  0.7818608E-02  0.1132939E+00
         21   -1    0    0  503  502  0.00000000000E+00  0.00000000000E+00  0.25393862263E+03  0.25393862263E+03  0.00000000000E+00 0. -1.
         21   -1    0    0  501  503 -0.00000000000E+00 -0.00000000000E+00 -0.33102192044E+03  0.33102192044E+03  0.00000000000E+00 0. -1.
          6    2    1    2  501    0 -0.10238734909E+03 -0.94817739268E+02 -0.22760047922E+03  0.31746445461E+03  0.17177930279E+03 0.  0.
         24    2    3    3    0    0 -0.10451936688E+03 -0.60657382421E+02 -0.24016752032E+03  0.28070175610E+03  0.80680988869E+02 0.  0.
         -6    2    1    2    0  502  0.10238734909E+03  0.94817739268E+02  0.15051718140E+03  0.26749608846E+03  0.17153764168E+03 0.  0.
        -24    2    5    5    0    0  0.52259964021E+01  0.49696453599E+02  0.16507547027E+02  0.95865872644E+02  0.80129382191E+02 0.  0.
          5    1    3    3  501    0  0.21320177828E+01 -0.34160356846E+02  0.12567041104E+02  0.36762698511E+02  0.47000000000E+01 0. -1.
        -11    1    4    4    0    0 -0.13064694608E+02  0.63272867309E+01 -0.97037387685E+02  0.98117151464E+02  0.00000000000E+00 0.  1.
         12    1    4    4    0    0 -0.91454672267E+02 -0.66984669152E+02 -0.14313013263E+03  0.18258460463E+03  0.00000000000E+00 0. -1.
         -5    1    5    5    0  502  0.97161352690E+02  0.45121285668E+02  0.13400963437E+03  0.17163021582E+03  0.47000000000E+01 0.  1.
         11    1    6    6    0    0  0.31236107083E+02  0.21861836209E+02  0.36552951685E+02  0.52818108117E+02  0.00000000000E+00 0. -1.
        -12    1    6    6    0    0 -0.26010110681E+02  0.27834617390E+02 -0.20045404658E+02  0.43047764527E+02  0.00000000000E+00 0.  1.
</event>
<event>
12    1  0.8449700E-002  0.2237271E+03  0.7818608E-02  0.1131194E+00
         21   -1    0    0  501  502  0.00000000000E+00  0.00000000000E+00  0.56907595952E+03  0.56907595952E+03  0.00000000000E+00 0. -1.
         21   -1    0    0  502  503 -0.00000000000E+00 -0.00000000000E+00 -0.88421441748E+02  0.88421441748E+02  0.00000000000E+00 0.  1.
         -6    2    1    2    0  503 -0.11446529733E+03 -0.84120106045E+02  0.26710529177E+03  0.34821261356E+03  0.17241893984E+03 0.  0.
        -24    2    3    3    0    0 -0.77573283791E+02  0.11337621519E+02  0.18793344569E+03  0.21873879525E+03  0.79884444794E+02 0.  0.
          6    2    1    2  501    0  0.11446529733E+03  0.84120106045E+02  0.21354922600E+03  0.30928478771E+03  0.17284476113E+03 0.  0.
         24    2    5    5    0    0  0.79357218824E+02 -0.59275303359E+01  0.65146799573E+02  0.13212236460E+03  0.82942811242E+02 0.  0.
          5    1    5    5  501    0  0.35108078505E+02  0.90047636381E+02  0.14840242643E+03  0.17716242312E+03  0.47000000000E+01 0. -1.
        -11    1    6    6    0    0 -0.83182731417E+01 -0.21746989814E+02  0.29530061192E+01  0.23470097553E+02  0.00000000000E+00 0.  1.
         12    1    6    6    0    0  0.87675491965E+02  0.15819459478E+02  0.62193793454E+02  0.10865226704E+03  0.00000000000E+00 0. -1.
         -5    1    3    3    0  503 -0.36892013537E+02 -0.95457727563E+02  0.79171846085E+02  0.12947381831E+03  0.47000000000E+01 0.  1.
         13    1    4    4    0    0 -0.84260043433E+02 -0.13884444654E+02  0.15175130072E+03  0.17412923360E+03  0.00000000000E+00 0. -1.
        -14    1    4    4    0    0  0.66867596416E+01  0.25222066173E+02  0.36182144964E+02  0.44609561651E+02  0.00000000000E+00 0.  1.
</event>
<event>
12    1  0.8449700E-002  0.2049895E+03  0.7818608E-02  0.1145775E+00
         21   -1    0    0  503  502  0.00000000000E+00  0.00000000000E+00  0.15742558112E+03  0.15742558112E+03  0.00000000000E+00 0.  1.
         21   -1    0    0  501  503 -0.00000000000E+00 -0.00000000000E+00 -0.36264370857E+03  0.36264370857E+03  0.00000000000E+00 0.  1.
          6    2    1    2  501    0 -0.10265347512E+03  0.43697431783E+02 -0.23683523092E+03  0.31265582777E+03  0.17092553507E+03 0.  0.
         24    2    3    3    0    0 -0.17535279418E+02  0.24056087015E+01 -0.19030645858E+03  0.20712318567E+03  0.79813488146E+02 0.  0.
         -6    2    1    2    0  502  0.10265347512E+03 -0.43697431783E+02  0.31617103464E+02  0.20741346192E+03  0.17196947827E+03 0.  0.
        -24    2    5    5    0    0  0.16100984941E+02 -0.77992586467E+02  0.34155786645E+02  0.11416097614E+03  0.74323787934E+02 0.  0.
          5    1    3    3  501    0 -0.85118195702E+02  0.41291823081E+02 -0.46528772341E+02  0.10553264210E+03  0.47000000000E+01 0. -1.
        -11    1    4    4    0    0  0.27556800869E+02 -0.13121036633E+02 -0.46558757916E+02  0.55670969231E+02  0.00000000000E+00 0.  1.
         12    1    4    4    0    0 -0.45092080288E+02  0.15526645334E+02 -0.14374770066E+03  0.15145221644E+03  0.00000000000E+00 0. -1.
         -5    1    5    5    0  502  0.86552490179E+02  0.34295154684E+02 -0.25386831805E+01  0.93252485775E+02  0.47000000000E+01 0.  1.
         13    1    6    6    0    0 -0.27420293901E+02 -0.26336926226E+02  0.26145400175E+02  0.46142043203E+02  0.00000000000E+00 0. -1.
        -14    1    6    6    0    0  0.43521278842E+02 -0.51655660241E+02  0.80103864693E+01  0.68018932940E+02  0.00000000000E+00 0.  1.
</event>
<event>
12    1  0.8449700E-002  0.2259826E+03  0.7818608E-02  0.1129750E+00
         21   -1    0    0  503  502  0.00000000000E+00  0.00000000000E+00  0.15659366439E+03  0.15659366439E+03  0.00000000000E+00 0.  1.
         21   -1    0    0  501  503 -0.00000000000E+00 -0.00000000000E+00 -0.34446430494E+03  0.34446430494E+03  0.00000000000E+00 0. -1.
          6    2    1    2  501    0 -0.14017234558E+03  0.36881555392E+02 -0.32784433453E+02  0.22697790249E+03  0.17156810178E+03 0.  0.
         24    2    3    3    0    0 -0.57714751199E+02 -0.55922779846E+01  0.43120479200E+02  0.10703238503E+03  0.78957517947E+02 0.  0.
         -6    2    1    2    0  502  0.14017234558E+03 -0.36881555392E+02 -0.15508620709E+03  0.27408006683E+03  0.17337709136E+03 0.  0.
        -24    2    5    5    0    0  0.89930144718E+02 -0.75309057211E+02 -0.15583593360E+03  0.21064818420E+03  0.79554599362E+02 0.  0.
          5    1    3    3  501    0 -0.82457594385E+02  0.42473833376E+02 -0.75904912653E+02  0.11994551746E+03  0.47000000000E+01 0. -1.
        -13    1    4    4    0    0 -0.75640989633E+02 -0.11166503769E+02  0.23766141730E+02  0.80069217630E+02  0.00000000000E+00 0.  1.
         14    1    4    4    0    0  0.17926238434E+02  0.55742257846E+01  0.19354337470E+02  0.26963167403E+02  0.00000000000E+00 0. -1.
         -5    1    5    5    0  502  0.50242200866E+02  0.38427501820E+02  0.74972651011E+00  0.63431882628E+02  0.47000000000E+01 0.  1.
         13    1    6    6    0    0  0.83737972103E+02 -0.23476346676E+02 -0.77352114072E+02  0.11638958878E+03  0.00000000000E+00 0. -1.
        -14    1    6    6    0    0  0.61921726154E+01 -0.51832710535E+02 -0.78483819531E+02  0.94258595424E+02  0.00000000000E+00 0.  1.
</event>
<event>
12    1  0.8449700E-002  0.1874158E+03  0.7818608E-02  0.1161052E+00
         21   -1    0    0  501  502  0.00000000000E+00  0.00000000000E+00  0.46908678280E+03  0.46908678280E+03  0.00000000000E+00 0. -1.
         21   -1    0    0  502  503 -0.00000000000E+00 -0.00000000000E+00 -0.15473158504E+04  0.15473158504E+04  0.00000000000E+00 0. -1.
         -6    2    1    2    0  503  0.25035861219E+02  0.68469403924E+02 -0.15226846137E+04  0.15340486158E+04  0.17152804218E+03 0.  0.
        -24    2    3    3    0    0  0.54201841033E+02  0.10229639742E+03 -0.12288625067E+04  0.12368139603E+04  0.78761155128E+02 0.  0.
          6    2    1    2  501    0 -0.25035861219E+02 -0.68469403924E+02  0.44445554610E+03  0.48235401739E+03  0.17265518242E+03 0.  0.
         24    2    5    5    0    0 -0.76289189267E+02 -0.77657948297E+02  0.32899845850E+03  0.35561111992E+03  0.79802791806E+02 0.  0.
          5    1    5    5  501    0  0.51253328048E+02  0.91885443729E+01  0.11545708760E+03  0.12674289747E+03  0.47000000000E+01 0. -1.
        -11    1    6    6    0    0 -0.16043243950E+02 -0.14805697987E+01  0.42667743576E+01  0.16666827137E+02  0.00000000000E+00 0.  1.
         12    1    6    6    0    0 -0.60245945317E+02 -0.76177378498E+02  0.32473168414E+03  0.33894429278E+03  0.00000000000E+00 0. -1.
         -5    1    3    3    0  503 -0.29165979814E+02 -0.33826993494E+02 -0.29382210700E+03  0.29723465550E+03  0.47000000000E+01 0.  1.
         13    1    4    4    0    0  0.27905777710E+02  0.10673908913E+03 -0.87108207181E+03  0.87804096795E+03  0.00000000000E+00 0. -1.
        -14    1    4    4    0    0  0.26296063323E+02 -0.44426917118E+01 -0.35778043492E+03  0.35877299239E+03  0.00000000000E+00 0.  1.
</event>
<event>
12    1  0.8449700E-002  0.2471165E+03  0.7818608E-02  0.1115687E+00
         21   -1    0    0  501  502  0.00000000000E+00  0.00000000000E+00  0.39754890274E+03  0.39754890274E+03  0.00000000000E+00 0.  1.
         21   -1    0    0  502  503 -0.00000000000E+00 -0.00000000000E+00 -0.22523707288E+03  0.22523707288E+03  0.00000000000E+00 0.  1.
         -6    2    1    2    0  503 -0.88969143166E+02 -0.15332685618E+03 -0.91592938726E+02  0.26354475063E+03  0.17216833593E+03 0.  0.
        -24    2    3    3    0    0 -0.64667704446E+02 -0.27370176911E+02 -0.79755220096E+02  0.13463444632E+03  0.82671037369E+02 0.  0.
          6    2    1    2  501    0  0.88969143166E+02  0.15332685618E+03  0.26390476858E+03  0.35924122500E+03  0.16728388324E+03 0.  0.
         24    2    5    5    0    0 -0.15225407002E+02  0.89252352506E+02  0.13876852004E+03  0.18418918414E+03  0.80443507858E+02 0.  0.
          5    1    5    5  501    0  0.10419455017E+03  0.64074503674E+02  0.12513624855E+03  0.17505204085E+03  0.47000000000E+01 0. -1.
        -11    1    6    6    0    0  0.87878141093E+01  0.84445662529E+02  0.13490346683E+03  0.15939648980E+03  0.00000000000E+00 0.  1.
         12    1    6    6    0    0 -0.24013221111E+02  0.48066899764E+01  0.38650532047E+01  0.24792694346E+02  0.00000000000E+00 0. -1.
         -5    1    3    3    0  503 -0.24301438720E+02 -0.12595667927E+03 -0.11837718630E+02  0.12891030431E+03  0.47000000000E+01 0.  1.
         11    1    4    4    0    0  0.16493175996E+02 -0.63618669322E+01  0.16807669724E+01  0.17757341662E+02  0.00000000000E+00 0. -1.
        -12    1    4    4    0    0 -0.81160880442E+02 -0.21008309979E+02 -0.81435987069E+02  0.11687710465E+03  0.00000000000E+00 0.  1.
</event>
<event>
12    1  0.8449700E-002  0.1817617E+03  0.7818608E-02  0.1167198E+00
         21   -1    0    0  503  502  0.00000000000E+00  0.00000000000E+00  0.43542078214E+03  0.43542078214E+03  0.00000000000E+00 0. -1.
         21   -1    0    0  501  503 -0.00000000000E+00 -0.00000000000E+00 -0.12667074434E+03  0.12667074434E+03  0.00000000000E+00 0. -1.
          6    2    1    2  501    0 -0.37175391283E+02 -0.19018818299E+02 -0.27960100499E+02  0.17945459355E+03  0.17227437058E+03 0.  0.
         24    2    3    3    0    0 -0.91599919559E+02 -0.90778389311E+01 -0.22118619508E+02  0.12362390979E+03  0.79502737809E+02 0.  0.
         -6    2    1    2    0  502  0.37175391283E+02  0.19018818299E+02  0.33671013829E+03  0.38263693294E+03  0.17689991535E+03 0.  0.
        -24    2    5    5    0    0 -0.35646429446E+02 -0.19344246484E+02  0.11076941877E+03  0.14212489362E+03  0.79276436914E+02 0.  0.
          5    1    3    3  501    0  0.54424528276E+02 -0.99409793674E+01 -0.58414809913E+01  0.55830683759E+02  0.47000000000E+01 0. -1.
        -11    1    4    4    0    0 -0.71560663635E+01  0.76383916100E+00  0.25282562368E+02  0.26286892094E+02  0.00000000000E+00 0.  1.
         12    1    4    4    0    0 -0.84443853196E+02 -0.98416780921E+01 -0.47401181876E+02  0.97337017693E+02  0.00000000000E+00 0. -1.
         -5    1    5    5    0  502  0.72821820729E+02  0.38363064783E+02  0.22594071953E+03  0.24051203931E+03  0.47000000000E+01 0.  1.
         13    1    6    6    0    0  0.35960580191E+01 -0.41782821983E+02  0.38780089810E+02  0.57119446879E+02  0.00000000000E+00 0. -1.
        -14    1    6    6    0    0 -0.39242487465E+02  0.22438575499E+02  0.71989328957E+02  0.85005446746E+02  0.00000000000E+00 0.  1.
</event>
<event>
12    1  0.8449700E-002  0.1784056E+03  0.7818608E-02  0.1169484E+00
         21   -1    0    0  503  502  0.00000000000E+00  0.00000000000E+00  0.95078363333E+02  0.95078363333E+02  0.00000000000E+00 0. -1.
         21   -1    0    0  501  503 -0.00000000000E+00 -0.00000000000E+00 -0.69546508412E+03  0.69546508412E+03  0.00000000000E+00 0. -1.
          6    2    1    2  501    0  0.13522115349E+02 -0.41799062796E+02 -0.58503399059E+03  0.61147852031E+03  0.17236937491E+03 0.  0.
         24    2    3    3    0    0  0.60002930894E+02 -0.51030621753E+02 -0.26022777106E+03  0.28319989149E+03  0.79241464143E+02 0.  0.
         -6    2    1    2    0  502 -0.13522115349E+02  0.41799062796E+02 -0.15352730204E+02  0.17906492715E+03  0.17291192138E+03 0.  0.
        -24    2    5    5    0    0 -0.73117714247E+02  0.22243804511E+02 -0.28298697073E+02  0.11484863955E+03  0.80922226701E+02 0.  0.
          5    1    3    3  501    0 -0.46480815545E+02  0.92315589569E+01 -0.32480621953E+03  0.32827862882E+03  0.47000000000E+01 0. -1.
        -11    1    4    4    0    0  0.52521493978E+02 -0.72553181066E+01 -0.20796234517E+03  0.21461473383E+03  0.00000000000E+00 0.  1.
         12    1    4    4    0    0  0.74814369153E+01 -0.43775303647E+02 -0.52265425887E+02  0.68585157657E+02  0.00000000000E+00 0. -1.
         -5    1    5    5    0  502  0.59595598898E+02  0.19555258285E+02  0.12945966869E+02  0.64216287597E+02  0.47000000000E+01 0.  1.
         11    1    6    6    0    0 -0.30246213284E+02  0.30081158986E+02  0.22245136546E+02  0.48109828974E+02  0.00000000000E+00 0. -1.
        -12    1    6    6    0    0 -0.42871500963E+02 -0.78373544749E+01 -0.50543833619E+02  0.66738810574E+02  0.00000000000E+00 0.  1.
</event>
<event>
12    1  0.8449700E-002  0.2582109E+03  0.7818608E-02  0.1108275E+00
         21   -1    0    0  501  502  0.00000000000E+00  0.00000000000E+00  0.23650053869E+03  0.23650053869E+03  0.00000000000E+00 0. -1.
         21   -1    0    0  502  503 -0.00000000000E+00 -0.00000000000E+00 -0.72901075280E+03  0.72901075280E+03  0.00000000000E+00 0. -1.
         -6    2    1    2    0  503 -0.14040583054E+03  0.13043843139E+03 -0.62453549134E+03  0.67580874608E+03  0.17304594682E+03 0.  0.
        -24    2    3    3    0    0 -0.13421773434E+03  0.34710794889E+02 -0.43219640345E+03  0.46082389161E+03  0.79659829478E+02 0.  0.
          6    2    1    2  501    0  0.14040583054E+03 -0.13043843139E+03  0.13202527723E+03  0.28970254541E+03  0.17253668989E+03 0.  0.
         24    2    5    5    0    0  0.14534965434E+03 -0.12308323902E+03  0.56138515617E+02  0.21315562623E+03  0.77509885268E+02 0.  0.
          5    1    5    5  501    0 -0.49438237950E+01 -0.73551923627E+01  0.75886761611E+02  0.76546919182E+02  0.47000000000E+01 0. -1.
        -11    1    6    6    0    0  0.12465944236E+03 -0.12534621002E+03  0.29301252229E+02  0.17919322621E+03  0.00000000000E+00 0.  1.
         12    1    6    6    0    0  0.20690211977E+02  0.22629709964E+01  0.26837263388E+02  0.33962400026E+02  0.00000000000E+00 0. -1.
         -5    1    3    3    0  503 -0.61880962065E+01  0.95727636496E+02 -0.19233908789E+03  0.21498485447E+03  0.47000000000E+01 0.  1.
         11    1    4    4    0    0 -0.79729038670E+02  0.51450984461E+02 -0.19482511705E+03  0.21670429078E+03  0.00000000000E+00 0. -1.
        -12    1    4    4    0    0 -0.54488695665E+02 -0.16740189572E+02 -0.23737128640E+03  0.24411960083E+03  0.00000000000E+00 0.  1.
</event>
<event>
12    1  0.8449700E-002  0.2342274E+03  0.7818608E-02  0.1124233E+00
         21   -1    0    0  503  502  0.00000000000E+00  0.00000000000E+00  0.51917735282E+02  0.51917735282E+02  0.00000000000E+00 0.  1.
         21   -1    0    0  501  503 -0.00000000000E+00 -0.00000000000E+00 -0.10831697381E+04  0.10831697381E+04  0.00000000000E+00 0. -1.
          6    2    1    2  501    0 -0.11670702853E+03 -0.10632353369E+03 -0.62182995857E+03  0.66340019115E+03  0.16882562577E+03 0.  0.
         24    2    3    3    0    0 -0.49047015124E+02 -0.67957490084E+02 -0.16995285026E+03  0.20485374669E+03  0.77828375729E+02 0.  0.
         -6    2    1    2    0  502  0.11670702853E+03  0.10632353369E+03 -0.40942204424E+03  0.47168728223E+03  0.17302386418E+03 0.  0.
        -24    2    5    5    0    0  0.24007706716E+02  0.11259911110E+03 -0.23723478128E+03  0.27597552820E+03  0.81407744809E+02 0.  0.
          5    1    3    3  501    0 -0.67660013408E+02 -0.38366043609E+02 -0.45187710831E+03  0.45854644447E+03  0.47000000000E+01 0. -1.
        -13    1    4    4    0    0 -0.65381352684E+02 -0.53806283029E+02 -0.96960036899E+02  0.12872873078E+03  0.00000000000E+00 0.  1.
         14    1    4    4    0    0  0.16334337560E+02 -0.14151207055E+02 -0.72992813361E+02  0.76125015908E+02  0.00000000000E+00 0. -1.
         -5    1    5    5    0  502  0.92699321816E+02 -0.62755774062E+01 -0.17218726296E+03  0.19571175403E+03  0.47000000000E+01 0.  1.
         13    1    6    6    0    0 -0.26370351318E+01  0.10307249491E+02 -0.11020669856E+03  0.11071905777E+03  0.00000000000E+00 0. -1.
        -14    1    6    6    0    0  0.26644741848E+02  0.10229186161E+03 -0.12702808272E+03  0.16525647043E+03  0.00000000000E+00 0.  1.
</event>
<event>
12    1  0.8449700E-002  0.1874652E+03  0.7818608E-02  0.1160891E+00
         21   -1    0    0  503  502  0.00000000000E+00  0.00000000000E+00  0.22164821954E+04  0.22164821954E+04  0.00000000000E+00 0. -1.
         21   -1    0    0  501  503 -0.00000000000E+00 -0.00000000000E+00 -0.27209779870E+02  0.27209779870E+02  0.00000000000E+00 0. -1.
          6    2    1    2  501    0  0.52292395631E+02  0.52792143191E+02  0.36940978477E+03  0.41425451553E+03  0.17210958580E+03 0.  0.
         24    2    3    3    0    0 -0.21838969265E+02  0.74475666093E+02  0.21809992521E+03  0.24430629392E+03  0.78066782012E+02 0.  0.
         -6    2    1    2    0  502 -0.52292395631E+02 -0.52792143191E+02  0.18198626308E+04  0.18294374598E+04  0.17152235790E+03 0.  0.
        -24    2    5    5    0    0  0.50408116879E+01  0.19854752238E+02  0.11978936570E+04  0.12006034893E+04  0.77973739491E+02 0.  0.
          5    1    3    3  501    0  0.74131364895E+02 -0.21683522902E+02  0.15130985956E+03  0.16994822161E+03  0.47000000000E+01 0. -1.
        -11    1    4    4    0    0 -0.62270496324E+01  0.39213019132E+02  0.19574528810E+03  0.19973145678E+03  0.00000000000E+00 0.  1.
         12    1    4    4    0    0 -0.15611919632E+02  0.35262646961E+02  0.22354637114E+02  0.44574837137E+02  0.00000000000E+00 0. -1.
         -5    1    5    5    0  502 -0.57333207319E+02 -0.72646895429E+02  0.62196897379E+03  0.62883397049E+03  0.47000000000E+01 0.  1.
         13    1    6    6    0    0 -0.16015902243E+02 -0.34791833727E+01  0.10074788776E+04  0.10076121787E+04  0.00000000000E+00 0. -1.
        -14    1    6    6    0    0  0.21056713930E+02  0.23333935611E+02  0.19041477943E+03  0.19299131062E+03  0.00000000000E+00 0.  1.
</event>
<event>
12    1  0.8449700E-002  0.1926938E+03  0.7818608E-02  0.1156372E+00
         21   -1    0    0  501  502  0.00000000000E+00  0.00000000000E+00  0.22933738740E+03  0.22933738740E+03  0.00000000000E+00 0.  1.
         21   -1    0    0  502  503 -0.00000000000E+00 -0.00000000000E+00 -0.23251115113E+03  0.23251115113E+03  0.00000000000E+00 0. -1.
         -6    2    1    2    0  503  0.48895768041E+02  0.74540957618E+02 -0.12991992133E+03  0.23240067092E+03  0.17083247756E+03 0.  0.
        -24    2    3    3    0    0  0.53857352572E+02  0.11185125598E+03 -0.12672850354E+03  0.19433558413E+03  0.79340328695E+02 0.  0.
          6    2    1    2  501    0 -0.48895768041E+02 -0.74540957618E+02  0.12674615760E+03  0.22944786761E+03  0.16921756702E+03 0.  0.
         24    2    5    5    0    0 -0.30050229124E+02 -0.24049197201E+02 -0.78707744989E+00  0.90914881463E+02  0.82362103082E+02 0.  0.
          5    1    5    5  501    0 -0.18845538918E+02 -0.50491760416E+02  0.12753323505E+03  0.13853298614E+03  0.47000000000E+01 0. -1.
        -13    1    6    6    0    0 -0.57407473413E+02 -0.61229323350E+01 -0.49442885713E+01  0.57944406922E+02  0.00000000000E+00 0.  1.
         14    1    6    6    0    0  0.27357244289E+02 -0.17926264866E+02  0.41572111214E+01  0.32970474541E+02  0.00000000000E+00 0. -1.
         -5    1    3    3    0  503 -0.49615845303E+01 -0.37310298364E+02 -0.31914177922E+01  0.38065086793E+02  0.47000000000E+01 0.  1.
         11    1    4    4    0    0 -0.72188974308E+01 -0.34398678975E-01 -0.38835001819E+02  0.39500266198E+02  0.00000000000E+00 0. -1.
        -12    1    4    4    0    0  0.61076250003E+02  0.11188565466E+03 -0.87893501722E+02  0.15483531793E+03  0.00000000000E+00 0.  1.
</event>
<event>
12    1  0.8449700E-002  0.2051063E+03  0.7818608E-02  0.1145678E+00
         21   -1    0    0  501  502  0.00000000000E+00  0.00000000000E+00  0.32559266380E+03  0.32559266380E+03  0.00000000000E+00 0.  1.
         21   -1    0    0  502  503 -0.00000000000E+00 -0.00000000000E+00 -0.18860591715E+03  0.18860591715E+03  0.00000000000E+00 0.  1.
         -6    2    1    2    0  503 -0.44989903484E+02 -0.10111713358E+03 -0.76547515969E+02  0.21811502812E+03  0.17165627624E+03 0.  0.
        -24    2    3    3    0    0 -0.76412632465E+02 -0.27536299010E+02 -0.78211935974E+02  0.13795027648E+03  0.79473477892E+02 0.  0.
          6    2    1    2  501    0  0.44989903484E+02  0.10111713358E+03  0.21353426262E+03  0.29608355282E+03  0.17268417072E+03 0.  0.
         24    2    5    5    0    0  0.10968363901E+02  0.10006658422E+03  0.22575147177E+03  0.25961549819E+03  0.79390513352E+02 0.  0.
          5    1    5    5  501    0  0.34021539583E+02  0.10505493637E+01 -0.12217209144E+02  0.36468054635E+02  0.47000000000E+01 0. -1.
        -13    1    6    6    0    0 -0.10457355614E+02  0.87661546251E+02  0.10899686698E+03  0.14026482092E+03  0.00000000000E+00 0.  1.
         14    1    6    6    0    0  0.21425719515E+02  0.12405037964E+02  0.11675460479E+03  0.11935067726E+03  0.00000000000E+00 0. -1.
         -5    1    3    3    0  503  0.31422728981E+02 -0.73580834569E+02  0.16644200050E+01  0.80164751645E+02  0.47000000000E+01 0.  1.
         13    1    4    4    0    0 -0.10182052770E+02 -0.42987088767E+02 -0.20267324886E+02  0.48603790565E+02  0.00000000000E+00 0. -1.
        -14    1    4    4    0    0 -0.66230579695E+02  0.15450789757E+02 -0.57944611088E+02  0.89346485913E+02  0.00000000000E+00 0.  1.
</event>
<event>
12    1  0.8449700E-002  0.2419764E+03  0.7818608E-02  0.1118625E+00
         21   -1    0    0  503  502  0.00000000000E+00  0.00000000000E+00  0.25979353492E+03  0.25979353492E+03  0.00000000000E+00 0.  1.
         21   -1    0    0  501  503 -0.00000000000E+00 -0.00000000000E+00 -0.26206422048E+03  0.26206422048E+03  0.00000000000E+00 0.  1.
          6    2    1    2  501    0  0.16196582906E+03 -0.49390620401E+02 -0.99816686516E+02  0.26095970984E+03  0.17165149602E+03 0.  0.
         24    2    3    3    0    0  0.23866448074E+02 -0.59852870033E+02 -0.43488762315E+02  0.11137420673E+03  0.79755677427E+02 0.  0.
         -6    2    1    2    0  502 -0.16196582906E+03  0.49390620401E+02  0.97546000959E+02  0.26089804556E+03  0.17285891562E+03 0.  0.
        -24    2    5    5    0    0 -0.54219972391E+01  0.25643949590E+02  0.36553674798E+02  0.91156979506E+02  0.79286906654E+02 0.  0.
          5    1    3    3  501    0  0.13809938099E+03  0.10462249632E+02 -0.56327924201E+02  0.14958550311E+03  0.47000000000E+01 0. -1.
        -13    1    4    4    0    0  0.44614100858E+02 -0.49346057541E+02 -0.53950157250E+01  0.66742472121E+02  0.00000000000E+00 0.  1.
         14    1    4    4    0    0 -0.20747652784E+02 -0.10506812492E+02 -0.38093746590E+02  0.44631734607E+02  0.00000000000E+00 0. -1.
         -5    1    5    5    0  502 -0.15654383182E+03  0.23746670811E+02  0.60992326160E+02  0.16974106606E+03  0.47000000000E+01 0.  1.
         13    1    6    6    0    0 -0.14156208810E+02 -0.62893420003E+01 -0.20198408136E+02  0.25454464479E+02  0.00000000000E+00 0. -1.
        -14    1    6    6    0    0  0.87342115705E+01  0.31933291590E+02  0.56752082934E+02  0.65702515027E+02  0.00000000000E+00 0.  1.
</event>
<event>
12    1  0.8449700E-002  0.2082253E+03  0.7818608E-02  0.1145316E+00
         21   -1    0    0  501  502  0.00000000000E+00  0.00000000000E+00  0.18802160034E+03  0.18802160034E+03  0.00000000000E+00 0. -1.
         21   -1    0    0  502  503 -0.00000000000E+00 -0.00000000000E+00 -0.23306360312E+03  0.23306360312E+03  0.00000000000E+00 0. -1.
         -6    2    1    2    0  503  0.20549528265E+01  0.11753452669E+03 -0.75039542750E+02  0.21071022346E+03  0.15795340294E+03 0.  0.
        -24    2    3    3    0    0  0.72535036268E+01  0.29518039805E+02 -0.86113358730E+02  0.12172344751E+03  0.80480799782E+02 0.  0.
          6    2    1    2  501    0 -0.20549528265E+01 -0.11753452669E+03  0.29997539976E+02  0.21037498000E+03  0.17186969486E+03 0.  0.
         24    2    5    5    0    0 -0.78193905359E+01 -0.94273651134E+01  0.56866544047E+02  0.98730810852E+02  0.79774376201E+02 0.  0.
          5    1    5    5  501    0  0.57644377094E+01 -0.10810716157E+03 -0.26869004071E+02  0.11164416915E+03  0.47000000000E+01 0. -1.
        -11    1    6    6    0    0  0.19708124183E+02  0.27713119904E+02  0.29428765376E+02  0.44971984671E+02  0.00000000000E+00 0.  1.
         12    1    6    6    0    0 -0.27527514719E+02 -0.37140485018E+02  0.27437778671E+02  0.53758826181E+02  0.00000000000E+00 0. -1.
         -5    1    3    3    0  503 -0.51985508003E+01  0.88016486883E+02  0.11073815979E+02  0.88986775950E+02  0.47000000000E+01 0.  1.
         13    1    4    4    0    0  0.77958673098E+01  0.21288957056E+02 -0.10164253690E+03  0.10414029262E+03  0.00000000000E+00 0. -1.
        -14    1    4    4    0    0 -0.54236368303E+00  0.82290827489E+01  0.15529178170E+02  0.17583154890E+02  0.00000000000E+00 0.  1.
</event>
<event>
12    1  0.8449700E-002  0.2190122E+03  0.7818608E-02  0.1134856E+00
         21   -1    0    0  501  502  0.00000000000E+00  0.00000000000E+00  0.64210974872E+03  0.64210974872E+03  0.00000000000E+00 0. -1.
         21   -1    0    0  502  503 -0.00000000000E+00 -0.00000000000E+00 -0.83881283639E+02  0.83881283639E+02  0.00000000000E+00 0.  1.
         -6    2    1    2    0  503 -0.10541131196E+03 -0.82982489409E+02  0.40123833530E+03  0.45652447094E+03  0.17153644690E+03 0.  0.
        -24    2    3    3    0    0 -0.10177420713E+03  0.57039431847E+01  0.24269693922E+03  0.27476645563E+03  0.78767230688E+02 0.  0.
          6    2    1    2  501    0  0.10541131196E+03  0.82982489409E+02  0.15699012978E+03  0.26946656142E+03  0.17311466904E+03 0.  0.
         24    2    5    5    0    0  0.68964512130E+02 -0.22951103827E+02  0.56911820645E+02  0.11917333684E+03  0.75368904630E+02 0.  0.
          5    1    5    5  501    0  0.36446799830E+02  0.10593359324E+03  0.10007830914E+03  0.15029322458E+03  0.47000000000E+01 0. -1.
        -11    1    6    6    0    0  0.47943131671E+02  0.11130828015E+02 -0.44626718414E+00  0.49220304359E+02  0.00000000000E+00 0.  1.
         12    1    6    6    0    0  0.21021380459E+02 -0.34081931842E+02  0.57358087830E+02  0.69953032486E+02  0.00000000000E+00 0. -1.
         -5    1    3    3    0  503 -0.36371048347E+01 -0.88686432593E+02  0.15854139608E+03  0.18175801531E+03  0.47000000000E+01 0.  1.
         11    1    4    4    0    0 -0.94401534074E+02 -0.17823996679E+02  0.22428601316E+03  0.24399500035E+03  0.00000000000E+00 0. -1.
        -12    1    4    4    0    0 -0.73726730521E+01  0.23527939864E+02  0.18410926055E+02  0.30771455286E+02  0.00000000000E+00 0.  1.
</event>
<event>
12    1  0.8449700E-002  0.2127703E+03  0.7818608E-02  0.1140147E+00
         21   -1    0    0  503  502  0.00000000000E+00  0.00000000000E+00  0.66921530174E+03  0.66921530174E+03  0.00000000000E+00 0.  1.
         21   -1    0    0  501  503 -0.00000000000E+00 -0.00000000000E+00 -0.66516412152E+02  0.66516412152E+02  0.00000000000E+00 0.  1.
          6    2    1    2  501    0 -0.46129047726E+02  0.10919137059E+03  0.31188027616E+03  0.37538930562E+03  0.17203830871E+03 0.  0.
         24    2    3    3    0    0 -0.30593554958E+02  0.95458020720E+02  0.10354522344E+03  0.16597216061E+03  0.82322205237E+02 0.  0.
         -6    2    1    2    0  502  0.46129047726E+02 -0.10919137059E+03  0.29081861343E+03  0.36034240827E+03  0.17669335252E+03 0.  0.
        -24    2    5    5    0    0  0.22064363179E+02 -0.21847453939E+02  0.23718236772E+03  0.25495262854E+03  0.88211223075E+02 0.  0.
          5    1    3    3  501    0 -0.15535492769E+02  0.13733349866E+02  0.20833505272E+03  0.20941714501E+03  0.47000000000E+01 0. -1.
        -11    1    4    4    0    0  0.27153853363E+01  0.25594578837E+02  0.81542127870E+02  0.85507744684E+02  0.00000000000E+00 0.  1.
         12    1    4    4    0    0 -0.33308940294E+02  0.69863441883E+02  0.22003095566E+02  0.80464415922E+02  0.00000000000E+00 0. -1.
         -5    1    5    5    0  502  0.24064684548E+02 -0.87343916647E+02  0.53636245713E+02  0.10538977973E+03  0.47000000000E+01 0.  1.
         13    1    6    6    0    0 -0.10170660055E+02  0.19602469482E+02  0.16051777196E+03  0.16202979433E+03  0.00000000000E+00 0. -1.
        -14    1    6    6    0    0  0.32235023233E+02 -0.41449923421E+02  0.76664595753E+02  0.92922834203E+02  0.00000000000E+00 0.  1.
</event>
<event>
12    1  0.8449700E-002  0.1813211E+03  0.7818608E-02  0.1166584E+00
         21   -1    0    0  503  502  0.00000000000E+00  0.00000000000E+00  0.51980741147E+02  0.51980741147E+02  0.00000000000E+00 0.  1.
         21   -1    0    0  501  503 -0.00000000000E+00 -0.00000000000E+00 -0.12057769992E+04  0.12057769992E+04  0.00000000000E+00 0.  1.
          6    2    1    2  501    0 -0.55543172840E+02  0.13413413923E+02 -0.10110074697E+04  0.10271384783E+04  0.17208249784E+03 0.  0.
         24    2    3    3    0    0  0.34790640990E+02 -0.11671073370E+02 -0.47562004636E+03  0.48358423767E+03  0.79326437998E+02 0.  0.
         -6    2    1    2    0  502  0.55543172840E+02 -0.13413413923E+02 -0.14278878837E+03  0.23061926208E+03  0.17184772980E+03 0.  0.
        -24    2    5    5    0    0  0.64915428119E+02  0.34225226648E+01 -0.16826514208E+03  0.19833269323E+03  0.82443754730E+02 0.  0.
          5    1    3    3  501    0 -0.90333813831E+02  0.25084487293E+02 -0.53538742336E+03  0.54355424063E+03  0.47000000000E+01 0. -1.
        -13    1    4    4    0    0  0.32970776928E+02 -0.43927409174E+02 -0.31382816903E+03  0.31859819379E+03  0.00000000000E+00 0.  1.
         14    1    4    4    0    0  0.18198640629E+01  0.32256335804E+02 -0.16179187733E+03  0.16498604388E+03  0.00000000000E+00 0. -1.
         -5    1    5    5    0  502 -0.93722552790E+01 -0.16835936587E+02  0.25476353712E+02  0.32286568852E+02  0.47000000000E+01 0.  1.
         11    1    6    6    0    0  0.42959682298E+02  0.17322415712E+02 -0.16589344017E+03  0.17223888608E+03  0.00000000000E+00 0. -1.
        -12    1    6    6    0    0  0.21955745821E+02 -0.13899893048E+02 -0.23717019154E+01  0.26093807144E+02  0.00000000000E+00 0.  1.
</event>
<event>
12    1  0.8449700E-002  0.2111251E+03  0.7818608E-02  0.1142085E+00
         21   -1    0    0  501  502  0.00000000000E+00  0.00000000000E+00  0.14165036888E+04  0.14165036888E+04  0.00000000000E+00 0. -1.
         21   -1    0    0  502  503 -0.00000000000E+00 -0.00000000000E+00 -0.41037002188E+02  0.41037002188E+02  0.00000000000E+00 0. -1.
         -6    2    1    2    0  503  0.86418673315E+02  0.67571170094E+02  0.10495924016E+04  0.10692523141E+04  0.17211116050E+03 0.  0.
        -24    2    3    3    0    0  0.81418029136E+02 -0.16878913826E+02  0.50533862929E+03  0.51844283542E+03  0.80635290965E+02 0.  0.
          6    2    1    2  501    0 -0.86418673315E+02 -0.67571170094E+02  0.32587428499E+03  0.38828837687E+03  0.18038781520E+03 0.  0.
         24    2    5    5    0    0 -0.82032694155E+02  0.24968989022E+02  0.16104840781E+03  0.19915197728E+03  0.79825478851E+02 0.  0.
          5    1    5    5  501    0 -0.43859791596E+01 -0.92540159116E+02  0.16482587718E+03  0.18913639959E+03  0.47000000000E+01 0. -1.
        -13    1    6    6    0    0  0.47745519052E+01 -0.11994620761E+02  0.58066073128E+02  0.59483914814E+02  0.00000000000E+00 0.  1.
         14    1    6    6    0    0 -0.86807246061E+02  0.36963609783E+02  0.10298233468E+03  0.13966806247E+03  0.00000000000E+00 0. -1.
         -5    1    3    3    0  503  0.50006441794E+01  0.84450083920E+02  0.54425377231E+03  0.55080947866E+03  0.47000000000E+01 0.  1.
         13    1    4    4    0    0  0.10487572878E+02  0.69426077291E+01  0.29365715980E+03  0.29392637936E+03  0.00000000000E+00 0. -1.
        -14    1    4    4    0    0  0.70930456258E+02 -0.23821521555E+02  0.21168146949E+03  0.22451645606E+03  0.00000000000E+00 0.  1.
</event>
<event>
12    1  0.8449700E-002  0.2185372E+03  0.7818608E-02  0.1135134E+00
         21   -1    0    0  501  502  0.00000000000E+00  0.00000000000E+00  0.25773929942E+03  0.25773929942E+03  0.00000000000E+00 0.  1.
         21   -1    0    0  502  503 -0.00000000000E+00 -0.00000000000E+00 -0.18465538722E+03  0.18465538722E+03  0.00000000000E+00 0.  1.
         -6    2    1    2    0  503  0.28796459495E+02  0.13159113571E+03  0.32511037907E+02  0.22012312192E+03  0.17103145366E+03 0.  0.
        -24    2    3    3    0    0 -0.16276205030E+02  0.98367085446E+01 -0.16904495702E+02  0.81127904072E+02  0.77034402438E+02 0.  0.
          6    2    1    2  501    0 -0.28796459495E+02 -0.13159113571E+03  0.40572874289E+02  0.22227156472E+03  0.17208436093E+03 0.  0.
         24    2    5    5    0    0  0.61740054060E+01  0.18446579503E+02 -0.75269673678E+01  0.60809698721E+02  0.57120658108E+02 0.  0.
          5    1    5    5  501    0 -0.34970464901E+02 -0.15003771522E+03  0.48099841657E+02  0.16146186599E+03  0.47000000000E+01 0. -1.
        -13    1    6    6    0    0  0.14057557350E+02  0.88691763453E+01 -0.30480893786E+02  0.34718325041E+02  0.00000000000E+00 0.  1.
         14    1    6    6    0    0 -0.78835519436E+01  0.95774031581E+01  0.22953926418E+02  0.26091373680E+02  0.00000000000E+00 0. -1.
         -5    1    3    3    0  503  0.45072664525E+02  0.12175442717E+03  0.49415533609E+02  0.13899521785E+03  0.47000000000E+01 0.  1.
         11    1    4    4    0    0 -0.83635960717E-01  0.36173457476E+02 -0.30536760981E+02  0.47339410558E+02  0.00000000000E+00 0. -1.
        -12    1    4    4    0    0 -0.16192569070E+02 -0.26336748931E+02  0.13632265279E+02  0.33788493515E+02  0.00000000000E+00 0.  1.
</event>
<event>
12    1  0.8449700E-002  0.1964673E+03  0.7818608E-02  0.1156370E+00
         21   -1    0    0  501  502  0.00000000000E+00  0.00000000000E+00  0.53963023647E+03  0.53963023647E+03  0.00000000000E+00 0.  1.
         21   -1    0    0  502  503 -0.00000000000E+00 -0.00000000000E+00 -0.75695807725E+02  0.75695807725E+02  0.00000000000E+00 0.  1.
         -6    2    1    2    0  503  0.23797758332E+02  0.56346233999E+02  0.33443939046E+03  0.38002120409E+03  0.16977979350E+03 0.  0.
        -24    2    3    3    0    0  0.72103366332E+02  0.62436289606E+01  0.23074242809E+03  0.25504579531E+03  0.81045735509E+02 0.  0.
          6    2    1    2  501    0 -0.23797758332E+02 -0.56346233999E+02  0.12949503829E+03  0.23530484011E+03  0.18670343181E+03 0.  0.
         24    2    5    5    0    0  0.36117543614E+01 -0.15412406270E+02 -0.15644040369E+02  0.81961102732E+02  0.78881552503E+02 0.  0.
          5    1    5    5  501    0 -0.27409512694E+02 -0.40933827729E+02  0.14513907866E+03  0.15334373737E+03  0.47000000000E+01 0. -1.
        -11    1    6    6    0    0  0.31141481188E+02  0.18417366362E+02 -0.12314868382E+02  0.38218414639E+02  0.00000000000E+00 0.  1.
         12    1    6    6    0    0 -0.27529726827E+02 -0.33829772631E+02 -0.33291719869E+01  0.43742688092E+02  0.00000000000E+00 0. -1.
         -5    1    3    3    0  503 -0.48305607999E+02  0.50102605038E+02  0.10369696237E+03  0.12497540878E+03  0.47000000000E+01 0.  1.
         13    1    4    4    0    0 -0.12548696375E+02 -0.14681062072E+02  0.25031200720E+02  0.31615887996E+02  0.00000000000E+00 0. -1.
        -14    1    4    4    0    0  0.84652062707E+02  0.20924691032E+02  0.20571122737E+03  0.22342990731E+03  0.00000000000E+00 0.  1.
</event>
<event>
12    1  0.8449700E-002  0.1793760E+03  0.7818608E-02  0.1168553E+00
         21   -1    0    0  503  502  0.00000000000E+00  0.00000000000E+00  0.39673481926E+03  0.39673481926E+03  0.00000000000E+00 0.  1.
         21   -1    0    0  501  503 -0.00000000000E+00 -0.00000000000E+00 -0.28428128805E+03  0.28428128805E+03  0.00000000000E+00 0.  1.
          6    2    1    2  501    0  0.31014797470E+02 -0.31797584359E+02 -0.23180431846E+03  0.29310237003E+03  0.17378939330E+03 0.  0.
         24    2    3    3    0    0  0.59737307633E+02  0.24718356210E+02 -0.85049642131E+02  0.13317094987E+03  0.79507969448E+02 0.  0.
         -6    2    1    2    0  502 -0.31014797470E+02  0.31797584359E+02  0.34425784967E+03  0.38791373729E+03  0.17317793302E+03 0.  0.
        -24    2    5    5    0    0 -0.51623163914E+02  0.23198068184E+02  0.91749590376E+02  0.13437642749E+03  0.80224282558E+02 0.  0.
          5    1    3    3  501    0 -0.28722510162E+02 -0.56515940570E+02 -0.14675467633E+03  0.15993142016E+03  0.47000000000E+01 0. -1.
        -13    1    4    4    0    0  0.17947488291E+02 -0.20070467873E+02 -0.62223978547E+02  0.67799406508E+02  0.00000000000E+00 0.  1.
         14    1    4    4    0    0  0.41789819342E+02  0.44788824084E+02 -0.22825663584E+02  0.65371543362E+02  0.00000000000E+00 0. -1.
         -5    1    5    5    0  502  0.20608366444E+02  0.85995161755E+01  0.25250825929E+03  0.25353730979E+03  0.47000000000E+01 0.  1.
         13    1    6    6    0    0 -0.38872860243E+02  0.49655575633E+02  0.39420860655E+02  0.74369212109E+02  0.00000000000E+00 0. -1.
        -14    1    6    6    0    0 -0.12750303671E+02 -0.26457507449E+02  0.52328729721E+02  0.60007215385E+02  0.00000000000E+00 0.  1.
</event>
<event>
12    1  0.8449700E-002  0.2082006E+03  0.7818608E-02  0.1143095E+00
         21   -1    0    0  501  502  0.00000000000E+00  0.00000000000E+00  0.93780536383E+03  0.93780536383E+03  0.00000000000E+00 0. -1.
         21   -1    0    0  502  503 -0.00000000000E+00 -0.00000000000E+00 -0.49216062279E+02  0.49216062279E+02  0.00000000000E+00 0.  1.
         -6    2    1    2    0  503  0.38088370702E+02  0.10585811412E+03  0.56864388884E+03  0.60556037840E+03  0.17518799976E+03 0.  0.
        -24    2    3    3    0    0 -0.25720602860E+02  0.88271101972E+01  0.32434397669E+03  0.33502177135E+03  0.79379498441E+02 0.  0.
          6    2    1    2  501    0 -0.38088370702E+02 -0.10585811412E+03  0.31994541270E+03  0.38146104771E+03  0.17461614903E+03 0.  0.
         24    2    5    5    0    0 -0.64762673665E+02 -0.12223757623E+03  0.19340420838E+03  0.25102113200E+03  0.80437503376E+02 0.  0.
          5    1    5    5  501    0  0.26674302963E+02  0.16379462114E+02  0.12654120432E+03  0.13043991571E+03  0.47000000000E+01 0. -1.
        -13    1    6    6    0    0 -0.60329854196E+02 -0.57429586269E+02  0.15389539322E+03  0.17499040186E+03  0.00000000000E+00 0.  1.
         14    1    6    6    0    0 -0.44328194684E+01 -0.64807989962E+02  0.39508815156E+02  0.76030730145E+02  0.00000000000E+00 0. -1.
         -5    1    3    3    0  503  0.63808973562E+02  0.97031003920E+02  0.24429991215E+03  0.27053860705E+03  0.47000000000E+01 0.  1.
         13    1    4    4    0    0  0.22642530113E+02  0.42356615100E+01  0.20317678023E+03  0.20447843168E+03  0.00000000000E+00 0. -1.
        -14    1    4    4    0    0 -0.48363132973E+02  0.45914486871E+01  0.12116719646E+03  0.13054333967E+03  0.00000000000E+00 0.  1.
</event>
<event>
12    1  0.8449700E-002  0.2046190E+03  0.7818608E-02  0.1146371E+00
         21   -1    0    0  503  502  0.00000000000E+00  0.00000000000E+00  0.21555754613E+03  0.21555754613E+03  0.00000000000E+00 0.  1.
         21   -1    0    0  501  503 -0.00000000000E+00 -0.00000000000E+00 -0.29509275116E+03  0.29509275116E+03  0.00000000000E+00 0. -1.
          6    2    1    2  501    0 -0.92374429829E+02  0.56442888770E+02 -0.19048354364E+03  0.27788756585E+03  0.17093473573E+03 0.  0.
         24    2    3    3    0    0 -0.75633597840E+01  0.47390926055E+02 -0.36716416650E+02  0.10198624416E+03  0.82158349928E+02 0.  0.
         -6    2    1    2    0  502  0.92374429829E+02 -0.56442888770E+02  0.11094833862E+03  0.23276273143E+03  0.17363790002E+03 0.  0.
        -24    2    5    5    0    0 -0.83745020681E+01 -0.44187696943E+02  0.15613818822E+02  0.93438298294E+02  0.80400493803E+02 0.  0.
          5    1    3    3  501    0 -0.84811070045E+02  0.90519627152E+01 -0.15376712699E+03  0.17590132169E+03  0.47000000000E+01 0. -1.
        -13    1    4    4    0    0  0.15500885336E+02 -0.18258907088E+02 -0.17907230320E+02  0.29905418104E+02  0.00000000000E+00 0.  1.
         14    1    4    4    0    0 -0.23064245120E+02  0.65649833143E+02 -0.18809186330E+02  0.72080826057E+02  0.00000000000E+00 0. -1.
         -5    1    5    5    0  502  0.10074893190E+03 -0.12255191827E+02  0.95334519793E+02  0.13932443314E+03  0.47000000000E+01 0.  1.
         11    1    6    6    0    0  0.42044278490E+01 -0.66242179081E+02  0.75739935057E+01  0.66806203908E+02  0.00000000000E+00 0. -1.
        -12    1    6    6    0    0 -0.12578929917E+02  0.22054482138E+02  0.80398253167E+01  0.26632094386E+02  0.00000000000E+00 0.  1.
</event>
<event>
12    1  0.8449700E-002  0.2588499E+03  0.7818608E-02  0.1107880E+00
         21   -1    0    0  503  502  0.00000000000E+00  0.00000000000E+00  0.47050064869E+03  0.47050064869E+03  0.00000000000E+00 0.  1.
         21   -1    0    0  501  503 -0.00000000000E+00 -0.00000000000E+00 -0.17148944686E+03  0.17148944686E+03  0.00000000000E+00 0.  1.
          6    2    1    2  501    0 -0.14348196100E+03 -0.12925973804E+03  0.17025247815E+02  0.25940923997E+03  0.17236049927E+03 0.  0.
         24    2    3    3    0    0 -0.73189086672E+02  0.25165218339E+01  0.17785536609E+02  0.10998120081E+03  0.80103457664E+02 0.  0.
         -6    2    1    2    0  502  0.14348196100E+03  0.12925973804E+03  0.28198595402E+03  0.38258085558E+03  0.17192114408E+03 0.  0.
        -24    2    5    5    0    0  0.10455483758E+03  0.13694197288E+03  0.14294491528E+03  0.23791282828E+03  0.80526064457E+02 0.  0.
          5    1    3    3  501    0 -0.70292874325E+02 -0.13177625987E+03 -0.76028879433E+00  0.14942803915E+03  0.47000000000E+01 0. -1.
        -11    1    4    4    0    0 -0.64682381572E+02  0.20761192322E-01  0.46673480137E+02  0.79763554741E+02  0.00000000000E+00 0.  1.
         12    1    4    4    0    0 -0.85067050996E+01  0.24957606416E+01 -0.28887943528E+02  0.30217646071E+02  0.00000000000E+00 0. -1.
         -5    1    5    5    0  502  0.38927123419E+02 -0.76822348425E+01  0.13904103874E+03  0.14466802730E+03  0.47000000000E+01 0.  1.
         13    1    6    6    0    0  0.65796441769E+02  0.53227367136E+02  0.25140223745E+02  0.88285645558E+02  0.00000000000E+00 0. -1.
        -14    1    6    6    0    0  0.38758395810E+02  0.83714605744E+02  0.11780469154E+03  0.14962718272E+03  0.00000000000E+00 0.  1.
</event>
<event>
12    1  0.8449700E-002  0.2111902E+03  0.7818608E-02  0.1140726E+00
         21   -1    0    0  503  502  0.00000000000E+00  0.00000000000E+00  0.15462492754E+04  0.15462492754E+04  0.00000000000E+00 0.  1.
         21   -1    0    0  501  503 -0.00000000000E+00 -0.00000000000E+00 -0.39758904723E+02  0.39758904723E+02  0.00000000000E+00 0. -1.
          6    2    1    2  501    0 -0.34182276805E+02 -0.11640497953E+03  0.33710688910E+03  0.39779690232E+03  0.17286634581E+03 0.  0.
         24    2    3    3    0    0 -0.20231985025E+02 -0.11439359252E+03  0.13485407235E+03  0.19499910105E+03  0.79647983991E+02 0.  0.
         -6    2    1    2    0  502  0.34182276805E+02  0.11640497953E+03  0.11693834816E+04  0.11882112778E+04  0.17224914047E+03 0.  0.
        -24    2    5    5    0    0 -0.24642743359E+02  0.14653586594E+02  0.67275763434E+03  0.67784567246E+03  0.77781287708E+02 0.  0.
          5    1    3    3  501    0 -0.13950291780E+02 -0.20113870055E+01  0.20225281674E+03  0.20279780127E+03  0.47000000000E+01 0. -1.
        -11    1    4    4    0    0 -0.46547054631E+02 -0.43311629081E+02  0.75653977675E+02  0.98823326429E+02  0.00000000000E+00 0.  1.
         12    1    4    4    0    0  0.26315069606E+02 -0.71081963441E+02  0.59200094678E+02  0.96175774626E+02  0.00000000000E+00 0. -1.
         -5    1    5    5    0  502  0.58825020164E+02  0.10175139293E+03  0.49662584728E+03  0.51036560537E+03  0.47000000000E+01 0.  1.
         13    1    6    6    0    0  0.22300323648E+01  0.42361959073E+02  0.27989195523E+03  0.28308835233E+03  0.00000000000E+00 0. -1.
        -14    1    6    6    0    0 -0.26872775724E+02 -0.27708372479E+02  0.39286567910E+03  0.39475732013E+03  0.00000000000E+00 0.  1.
</event>
<event>
12    1  0.8449700E-002  0.1792942E+03  0.7818608E-02  0.1173387E+00
         21   -1    0    0  503  502  0.00000000000E+00  0.00000000000E+00  0.13825619734E+02  0.13825619734E+02  0.00000000000E+00 0.  1.
         21   -1    0    0  501  503 -0.00000000000E+00 -0.00000000000E+00 -0.24809126411E+04  0.24809126411E+04  0.00000000000E+00 0.  1.
          6    2    1    2  501    0 -0.48679467948E+02  0.21874965018E+02 -0.17887987261E+04  0.17977617483E+04  0.17116721853E+03 0.  0.
         24    2    3    3    0    0 -0.96267089037E+02  0.20322454761E+02 -0.14663781768E+04  0.14718106898E+04  0.79255249779E+02 0.  0.
         -6    2    1    2    0  502  0.48679467948E+02 -0.21874965018E+02 -0.67828829534E+03  0.69697651254E+03  0.15117222875E+03 0.  0.
        -24    2    5    5    0    0  0.22765688322E+02 -0.46824126213E+02 -0.25598478981E+03  0.27311766174E+03  0.79713669974E+02 0.  0.
          5    1    3    3  501    0  0.47587621089E+02  0.15525102571E+01 -0.32242054926E+03  0.32595105852E+03  0.47000000000E+01 0. -1.
        -13    1    4    4    0    0 -0.12879559976E+01  0.24460332290E+02 -0.54280385309E+03  0.54335622718E+03  0.00000000000E+00 0.  1.
         14    1    4    4    0    0 -0.94979133039E+02 -0.41378775288E+01 -0.92357432371E+03  0.92845446262E+03  0.00000000000E+00 0. -1.
         -5    1    5    5    0  502  0.25913779626E+02  0.24949161194E+02 -0.42230350554E+03  0.42385885081E+03  0.47000000000E+01 0.  1.
         13    1    6    6    0    0 -0.22529248955E+02 -0.41527808480E+02 -0.16036672760E+03  0.16718137832E+03  0.00000000000E+00 0. -1.
        -14    1    6    6    0    0  0.45294937277E+02 -0.52963177329E+01 -0.95618062202E+02  0.10593628342E+03  0.00000000000E+00 0.  1.
</event>
<event>
12    1  0.8449700E-002  0.1839633E+03  0.7818608E-02  0.1164181E+00
         21   -1    0    0  501  502  0.00000000000E+00  0.00000000000E+00  0.27333384273E+03  0.27333384273E+03  0.00000000000E+00 0.  1.
         21   -1    0    0  502  503 -0.00000000000E+00 -0.00000000000E+00 -0.19966947448E+03  0.19966947448E+03  0.00000000000E+00 0.  1.
         -6    2    1    2    0  503  0.46540884314E+02  0.42001990771E+02 -0.10933378259E+03  0.21400082814E+03  0.17295160389E+03 0.  0.
        -24    2    3    3    0    0 -0.20338854768E+01  0.55220125952E+02 -0.12667294966E+03  0.16055025216E+03  0.81712595679E+02 0.  0.
          6    2    1    2  501    0 -0.46540884314E+02 -0.42001990771E+02  0.18299815083E+03  0.25900248907E+03  0.17223166084E+03 0.  0.
         24    2    5    5    0    0 -0.90264993327E+02 -0.36155540625E+00  0.99975170960E+02  0.15623756921E+03  0.79165923744E+02 0.  0.
          5    1    5    5  501    0  0.43724109012E+02 -0.41640435365E+02  0.83022979872E+02  0.10276491986E+03  0.47000000000E+01 0. -1.
        -11    1    6    6    0    0 -0.34251326834E+02 -0.13647739715E+02  0.90725683573E+02  0.97931424216E+02  0.00000000000E+00 0.  1.
         12    1    6    6    0    0 -0.56013666492E+02  0.13286184309E+02  0.92494873875E+01  0.58306144996E+02  0.00000000000E+00 0. -1.
         -5    1    3    3    0  503  0.48574769791E+02 -0.13218135181E+02  0.17339167074E+02  0.53450575982E+02  0.47000000000E+01 0.  1.
         11    1    4    4    0    0 -0.36791319877E+02  0.58796502929E+01 -0.37409682520E+02  0.52798256146E+02  0.00000000000E+00 0. -1.
        -12    1    4    4    0    0  0.34757434400E+02  0.49340475660E+02 -0.89263267141E+02  0.10775199601E+03  0.00000000000E+00 0.  1.
</event>
<event>
12    1  0.8449700E-002  0.1815826E+03  0.7818608E-02  0.1166508E+00
         21   -1    0    0  503  502  0.00000000000E+00  0.00000000000E+00  0.47599249495E+02  0.47599249495E+02  0.00000000000E+00 0. -1.
         21   -1    0    0  501  503 -0.00000000000E+00 -0.00000000000E+00 -0.99068241706E+03  0.99068241706E+03  0.00000000000E+00 0. -1.
          6    2    1    2  501    0  0.53628146187E+02  0.85441486627E+01 -0.75711915083E+03  0.77836851713E+03  0.17227640397E+03 0.  0.
         24    2    3    3    0    0  0.85850383325E+02  0.49470242206E+02 -0.50333605781E+03  0.51925239258E+03  0.80363343184E+02 0.  0.
         -6    2    1    2    0  502 -0.53628146187E+02 -0.85441486627E+01 -0.18596401673E+03  0.25991314942E+03  0.17327218237E+03 0.  0.
        -24    2    5    5    0    0 -0.58680610732E+02 -0.67312469036E+02 -0.14251365072E+03  0.18650152103E+03  0.80611997492E+02 0.  0.
          5    1    3    3  501    0 -0.32222237137E+02 -0.40926093543E+02 -0.25378309302E+03  0.25911612455E+03  0.47000000000E+01 0. -1.
        -11    1    4    4    0    0  0.41594116458E+01  0.29131731221E+02 -0.48798581750E+02  0.56984735236E+02  0.00000000000E+00 0.  1.
         12    1    4    4    0    0  0.81690971679E+02  0.20338510985E+02 -0.45453747606E+03  0.46226765735E+03  0.00000000000E+00 0. -1.
         -5    1    5    5    0  502  0.50524645446E+01  0.58768320374E+02 -0.43450366015E+02  0.73411628400E+02  0.47000000000E+01 0.  1.
         13    1    6    6    0    0 -0.99023743627E+01 -0.16762779996E+02  0.74932575554E+01  0.20861369082E+02  0.00000000000E+00 0. -1.
        -14    1    6    6    0    0 -0.48778236369E+02 -0.50549689041E+02 -0.15000690827E+03  0.16564015194E+03  0.00000000000E+00 0.  1.
</event>
<event>
12    1  0.8449700E-002  0.1769208E+03  0.7818608E-02  0.1171009E+00
         21   -1    0    0  501  502  0.00000000000E+00  0.00000000000E+00  0.20659642390E+03  0.20659642390E+03  0.00000000000E+00 0. -1.
         21   -1    0    0  502  503 -0.00000000000E+00 -0.00000000000E+00 -0.50241397507E+03  0.50241397507E+03  0.00000000000E+00 0. -1.
         -6    2    1    2    0  503  0.39772197711E+02  0.66067774050E+01 -0.44436067458E+03  0.47799950470E+03  0.17146906473E+03 0.  0.
        -24    2    3    3    0    0 -0.19147077316E+02 -0.48207730798E+02 -0.24924021580E+03  0.26688296173E+03  0.80095157230E+02 0.  0.
          6    2    1    2  501    0 -0.39772197711E+02 -0.66067774050E+01  0.14854312341E+03  0.23101089427E+03  0.17226577298E+03 0.  0.
         24    2    5    5    0    0 -0.15527989543E+02 -0.76647747081E+01  0.13460605881E+01  0.81752841582E+02  0.79886469424E+02 0.  0.
          5    1    5    5  501    0 -0.24244208168E+02  0.10579973030E+01  0.14719706283E+03  0.14925805269E+03  0.47000000000E+01 0. -1.
        -13    1    6    6    0    0 -0.45336595950E+01  0.32382252941E+02 -0.16413005742E+02  0.36586215059E+02  0.00000000000E+00 0.  1.
         14    1    6    6    0    0 -0.10994329948E+02 -0.40047027649E+02  0.17759066330E+02  0.45166626523E+02  0.00000000000E+00 0. -1.
         -5    1    3    3    0  503  0.58919275027E+02  0.54814508203E+02 -0.19512045878E+03  0.21111654297E+03  0.47000000000E+01 0.  1.
         11    1    4    4    0    0  0.72620911261E+01 -0.27003911803E+02 -0.18179516063E+02  0.33353321041E+02  0.00000000000E+00 0. -1.
        -12    1    4    4    0    0 -0.26409168442E+02 -0.21203818995E+02 -0.23106069974E+03  0.23352964069E+03  0.00000000000E+00 0.  1.
</event>
<event>
12    1  0.8449700E-002  0.2051349E+03  0.7818608E-02  0.1145599E+00
         21   -1    0    0  501  502  0.00000000000E+00  0.00000000000E+00  0.20424867781E+03  0.20424867781E+03  0.00000000000E+00 0.  1.
         21   -1    0    0  502  503 -0.00000000000E+00 -0.00000000000E+00 -0.41459092961E+03  0.41459092961E+03  0.00000000000E+00 0.  1.
         -6    2    1    2    0  503 -0.71723515820E+02 -0.84425489922E+02 -0.32487123916E+03  0.38389871139E+03  0.17194467861E+03 0.  0.
        -24    2    3    3    0    0 -0.31806040417E+02 -0.33297027839E+02 -0.30095058635E+03  0.31460360255E+03  0.79270770434E+02 0.  0.
          6    2    1    2  501    0  0.71723515820E+02  0.84425489922E+02  0.11452898736E+03  0.23494089603E+03  0.17265112108E+03 0.  0.
         24    2    5    5    0    0  0.93858819892E+02  0.61550225397E+02  0.24721813220E+02  0.13954347499E+03  0.79141045261E+02 0.  0.
          5    1    5    5  501    0 -0.22135304072E+02  0.22875264526E+02  0.89807174142E+02  0.95397421039E+02  0.47000000000E+01 0. -1.
        -11    1    6    6    0    0  0.11663374377E+02  0.50812070860E+02  0.22054825169E+02  0.56606679466E+02  0.00000000000E+00 0.  1.
         12    1    6    6    0    0  0.82195445514E+02  0.10738154537E+02  0.26669880514E+01  0.82936795522E+02  0.00000000000E+00 0. -1.
         -5    1    3    3    0  503 -0.39917475403E+02 -0.51128462084E+02 -0.23920652813E+02  0.69295108836E+02  0.47000000000E+01 0.  1.
         11    1    4    4    0    0 -0.12952292597E+02  0.14364247092E+02 -0.16062505298E+02  0.25141550359E+02  0.00000000000E+00 0. -1.
        -12    1    4    4    0    0 -0.18853747820E+02 -0.47661274930E+02 -0.28488808105E+03  0.28946205220E+03  0.00000000000E+00 0.  1.
</event>
<event>
12    1  0.8449700E-002  0.1878070E+03  0.7818608E-02  0.1160953E+00
         21   -1    0    0  503  502  0.00000000000E+00  0.00000000000E+00  0.62757578457E+03  0.62757578457E+03  0.00000000000E+00 0. -1.
         21   -1    0    0  501  503 -0.00000000000E+00 -0.00000000000E+00 -0.37612876690E+03  0.37612876690E+03  0.00000000000E+00 0. -1.
          6    2    1    2  501    0  0.33301768416E+01  0.71146640908E+02 -0.33747668757E+03  0.38621492187E+03  0.17377720402E+03 0.  0.
         24    2    3    3    0    0 -0.26576959147E+02 -0.17023473319E+02 -0.21959037525E+03  0.23592294452E+03  0.80271847159E+02 0.  0.
         -6    2    1    2    0  502 -0.33301768416E+01 -0.71146640908E+02  0.58892370524E+03  0.61748962960E+03  0.17143330330E+03 0.  0.
        -24    2    5    5    0    0 -0.28199379291E+02 -0.13046133991E+01  0.46782689760E+03  0.47542305064E+03  0.79800776649E+02 0.  0.
          5    1    3    3  501    0  0.29907135989E+02  0.88170114228E+02 -0.11788631231E+03  0.15029197735E+03  0.47000000000E+01 0. -1.
        -13    1    4    4    0    0 -0.37172504942E+02  0.12061139447E+02 -0.18674284978E+03  0.19078825476E+03  0.00000000000E+00 0.  1.
         14    1    4    4    0    0  0.10595545795E+02 -0.29084612767E+02 -0.32847525469E+02  0.45134689762E+02  0.00000000000E+00 0. -1.
         -5    1    5    5    0  502  0.24869202450E+02 -0.69842027509E+02  0.12109680764E+03  0.14206657896E+03  0.47000000000E+01 0.  1.
         11    1    6    6    0    0  0.24423765091E+02  0.12042898386E+02  0.22254598133E+03  0.22420585521E+03  0.00000000000E+00 0. -1.
        -12    1    6    6    0    0 -0.52623144382E+02 -0.13347511785E+02  0.24528091626E+03  0.25121719543E+03  0.00000000000E+00 0.  1.
</event>
<event>
12    1  0.8449700E-002  0.1712667E+03  0.7818608E-02  0.1176559E+00
         21   -1    0    0  503  502  0.00000000000E+00  0.00000000000E+00  0.16516295980E+04  0.16516295980E+04  0.00000000000E+00 0.  1.
         21   -1    0    0  501  503 -0.00000000000E+00 -0.00000000000E+00 -0.18094430423E+02  0.18094430423E+02  0.00000000000E+00 0.  1.
          6    2    1    2  501    0  0.47628451642E+01 -0.61436381646E+01  0.93229805288E+03  0.94789869414E+03  0.17109016914E+03 0.  0.
         24    2    3    3    0    0  0.28508938907E+01 -0.79735847024E+01  0.19567279447E+03  0.21125368766E+03  0.79174316561E+02 0.  0.
         -6    2    1    2    0  502 -0.47628451642E+01  0.61436381646E+01  0.70123711473E+03  0.72182533431E+03  0.17099091553E+03 0.  0.
        -24    2    5    5    0    0 -0.22835618816E+02  0.60705367702E+02  0.56074645092E+03  0.56995919557E+03  0.78805426476E+02 0.  0.
          5    1    3    3  501    0  0.19119512735E+01  0.18299465378E+01  0.73662525840E+03  0.73664500649E+03  0.47000000000E+01 0. -1.
        -13    1    4    4    0    0  0.31470117861E+02 -0.44454865395E+01  0.32150047329E+02  0.45207922005E+02  0.00000000000E+00 0.  1.
         14    1    4    4    0    0 -0.28619223971E+02 -0.35280981629E+01  0.16352274715E+03  0.16604576565E+03  0.00000000000E+00 0. -1.
         -5    1    5    5    0  502  0.18072773651E+02 -0.54561729538E+02  0.14049066381E+03  0.15186613874E+03  0.47000000000E+01 0.  1.
         11    1    6    6    0    0 -0.41428044070E+02  0.55031882142E+01  0.18035204284E+03  0.18513083825E+03  0.00000000000E+00 0. -1.
        -12    1    6    6    0    0  0.18592425254E+02  0.55202179488E+02  0.38039440808E+03  0.38482835732E+03  0.00000000000E+00 0.  1.
</event>
<event>
12    1  0.8449700E-002  0.2147581E+03  0.7818608E-02  0.1138593E+00
         21   -1    0    0  503  502  0.00000000000E+00  0.00000000000E+00  0.21766925217E+03  0.21766925217E+03  0.00000000000E+00 0. -1.
         21   -1    0    0  501  503 -0.00000000000E+00 -0.00000000000E+00 -0.32411567646E+03  0.32411567646E+03  0.00000000000E+00 0.  1.
          6    2    1    2  501    0 -0.11998211394E+03 -0.34060370744E+02 -0.21556955802E+03  0.30428811887E+03  0.17482908345E+03 0.  0.
         24    2    3    3    0    0 -0.11923128538E+03  0.27990816806E+02 -0.18357757210E+03  0.23431318920E+03  0.78755065960E+02 0.  0.
         -6    2    1    2    0  502  0.11998211394E+03  0.34060370744E+02  0.10912313373E+03  0.23749680977E+03  0.17012072129E+03 0.  0.
        -24    2    5    5    0    0  0.11484151867E+03  0.58799544356E+02  0.13498542776E+03  0.20103586239E+03  0.74487525345E+02 0.  0.
          5    1    3    3  501    0 -0.75082856706E+00 -0.62051187549E+02 -0.31991985917E+02  0.69974929673E+02  0.47000000000E+01 0. -1.
        -11    1    4    4    0    0 -0.16851536905E+02  0.35107940677E+02 -0.77400842381E+02  0.86645439557E+02  0.00000000000E+00 0.  1.
         12    1    4    4    0    0 -0.10237974847E+03 -0.71171238718E+01 -0.10617672972E+03  0.14766774964E+03  0.00000000000E+00 0. -1.
         -5    1    5    5    0  502  0.51405952769E+01 -0.24739173613E+02 -0.25862294035E+02  0.36460947377E+02  0.47000000000E+01 0.  1.
         13    1    6    6    0    0  0.75588099167E+02 -0.25989955678E+01  0.60753507410E+02  0.97011876470E+02  0.00000000000E+00 0. -1.
        -14    1    6    6    0    0  0.39253419501E+02  0.61398539924E+02  0.74231920353E+02  0.10402398592E+03  0.00000000000E+00 0.  1.
</event>
<event>
12    1  0.8449700E-002  0.1863552E+03  0.7818608E-02  0.1162488E+00
         21   -1    0    0  503  502  0.00000000000E+00  0.00000000000E+00  0.30378388393E+03  0.30378388393E+03  0.00000000000E+00 0.  1.
         21   -1    0    0  501  503 -0.00000000000E+00 -0.00000000000E+00 -0.12388932005E+03  0.12388932005E+03  0.00000000000E+00 0.  1.
          6    2    1    2  501    0  0.54313392120E+01  0.55740139029E+02  0.24427462341E+02  0.18498354523E+03  0.17460168541E+03 0.  0.
         24    2    3    3    0    0 -0.32710329280E+02 -0.18470032806E+02 -0.12081598518E+02  0.93786297447E+02  0.85081119014E+02 0.  0.
         -6    2    1    2    0  502 -0.54313392120E+01 -0.55740139029E+02  0.15546710154E+03  0.24268965875E+03  0.17774078951E+03 0.  0.
        -24    2    5    5    0    0 -0.68049631651E+02 -0.51204375907E+02  0.11172473438E+03  0.16602735785E+03  0.88487438658E+02 0.  0.
          5    1    3    3  501    0  0.38141668492E+02  0.74210171835E+02  0.36509060859E+02  0.91197247787E+02  0.47000000000E+01 0. -1.
        -11    1    4    4    0    0  0.24034123749E+02  0.16562432160E+01  0.14339996006E+02  0.28036007765E+02  0.00000000000E+00 0.  1.
         12    1    4    4    0    0 -0.56744453029E+02 -0.20126276022E+02 -0.26421594524E+02  0.65750289682E+02  0.00000000000E+00 0. -1.
         -5    1    5    5    0  502  0.62618292439E+02 -0.45357631215E+01  0.43742367158E+02  0.76662300903E+02  0.47000000000E+01 0.  1.
         11    1    6    6    0    0 -0.10045249923E+02  0.25028414173E+02  0.22583388748E+02  0.35175815689E+02  0.00000000000E+00 0. -1.
        -12    1    6    6    0    0 -0.58004381728E+02 -0.76232790081E+02  0.89141345634E+02  0.13085154216E+03  0.00000000000E+00 0.  1.
</event>
<event>
12    1  0.8449700E-002  0.1989565E+03  0.7818608E-02  0.1150949E+00
         21   -1    0    0  501  502  0.00000000000E+00  0.00000000000E+00  0.40352250064E+03  0.40352250064E+03  0.00000000000E+00 0. -1.
         21   -1    0    0  502  503 -0.00000000000E+00 -0.00000000000E+00 -0.10893354301E+03  0.10893354301E+03  0.00000000000E+00 0.  1.
         -6    2    1    2    0  503  0.53755156917E+02 -0.82976095267E+02  0.63200563623E+02  0.20729330565E+03  0.17088462203E+03 0.  0.
        -24    2    3    3    0    0 -0.18633206811E+02 -0.84597014183E+02  0.63403219187E+01  0.11510936091E+03  0.75538825002E+02 0.  0.
          6    2    1    2  501    0 -0.53755156917E+02  0.82976095267E+02  0.23138839400E+03  0.30516273800E+03  0.17265300028E+03 0.  0.
         24    2    5    5    0    0 -0.90922117477E+02  0.76606668606E+02  0.12023010151E+03  0.18768844914E+03  0.81463264793E+02 0.  0.
          5    1    5    5  501    0  0.37166960560E+02  0.63694266605E+01  0.11115829249E+03  0.11747428885E+03  0.47000000000E+01 0. -1.
        -13    1    6    6    0    0 -0.45558093142E+01  0.54576716014E+02  0.50900883383E+02  0.74768129965E+02  0.00000000000E+00 0.  1.
         14    1    6    6    0    0 -0.86366308162E+02  0.22029952593E+02  0.69329218128E+02  0.11292031918E+03  0.00000000000E+00 0. -1.
         -5    1    3    3    0  503  0.72388363728E+02  0.16209189164E+01  0.56860241704E+02  0.92183944741E+02  0.47000000000E+01 0.  1.
         13    1    4    4    0    0  0.24340690189E+02 -0.60071617050E+02  0.95979741744E+01  0.65522434953E+02  0.00000000000E+00 0. -1.
        -14    1    4    4    0    0 -0.42973897000E+02 -0.24525397133E+02 -0.32576522557E+01  0.49586925959E+02  0.00000000000E+00 0.  1.
</event>
<event>
12    1  0.8449700E-002  0.4130645E+03  0.7818608E-02  0.1039379E+00
         21   -1    0    0  503  502  0.00000000000E+00  0.00000000000E+00  0.97146832180E+03  0.97146832180E+03  0.00000000000E+00 0.  1.
         21   -1    0    0  501  503 -0.00000000000E+00 -0.00000000000E+00 -0.23713077515E+03  0.23713077515E+03  0.00000000000E+00 0. -1.
          6    2    1    2  501    0 -0.30620323498E+03  0.21682635290E+03  0.59152013808E+02  0.41727835464E+03  0.17276624697E+03 0.  0.
         24    2    3    3    0    0 -0.63681871196E+02  0.89838080726E+02 -0.18599388213E+01  0.13676599925E+03  0.81087716161E+02 0.  0.
         -6    2    1    2    0  502  0.30620323498E+03 -0.21682635290E+03  0.67518553284E+03  0.79132074231E+03  0.17186891818E+03 0.  0.
        -24    2    5    5    0    0  0.30546121377E+03 -0.21361157816E+03  0.68250994960E+03  0.78201362391E+03  0.82395492768E+02 0.  0.
          5    1    3    3  501    0 -0.24252136379E+03  0.12698827217E+03  0.61011952630E+02  0.28051235539E+03  0.47000000000E+01 0. -1.
        -13    1    4    4    0    0 -0.16972316111E+02 -0.74255511695E+01 -0.20102141257E+02  0.27336686110E+02  0.00000000000E+00 0.  1.
         14    1    4    4    0    0 -0.46709555085E+02  0.97263631896E+02  0.18242202436E+02  0.10942931315E+03  0.00000000000E+00 0. -1.
         -5    1    5    5    0  502  0.74202121526E+00 -0.32147747360E+01 -0.73244167639E+01  0.93071184058E+01  0.47000000000E+01 0.  1.
         11    1    6    6    0    0  0.21855503792E+03 -0.13275154915E+03  0.39025081370E+03  0.46656722560E+03  0.00000000000E+00 0. -1.
        -12    1    6    6    0    0  0.86906175846E+02 -0.80860029007E+02  0.29225913590E+03  0.31544639831E+03  0.00000000000E+00 0.  1.
</event>
<event>
12    1  0.8449700E-002  0.1831106E+03  0.7818608E-02  0.1165553E+00
         21   -1    0    0  503  502  0.00000000000E+00  0.00000000000E+00  0.66288015041E+02  0.66288015041E+02  0.00000000000E+00 0.  1.
         21   -1    0    0  501  503 -0.00000000000E+00 -0.00000000000E+00 -0.70766455739E+03  0.70766455739E+03  0.00000000000E+00 0.  1.
          6    2    1    2  501    0 -0.15474525216E+02 -0.55782873510E+02 -0.52971168649E+03  0.55947986172E+03  0.17050529305E+03 0.  0.
         24    2    3    3    0    0  0.43866159803E+02 -0.22460303733E+02 -0.41981325719E+03  0.43012969621E+03  0.79622103896E+02 0.  0.
         -6    2    1    2    0  502  0.15474525216E+02  0.55782873510E+02 -0.11166485586E+03  0.21447271071E+03  0.17371906544E+03 0.  0.
        -24    2    5    5    0    0  0.73357022565E+02  0.65740533979E+02 -0.61649046577E+02  0.13718616803E+03  0.72913436260E+02 0.  0.
          5    1    3    3  501    0 -0.59340685019E+02 -0.33322569777E+02 -0.10989842930E+03  0.12935016551E+03  0.47000000000E+01 0. -1.
        -13    1    4    4    0    0 -0.85469818723E+01 -0.33513327223E+02 -0.24089055873E+03  0.24336075133E+03  0.00000000000E+00 0.  1.
         14    1    4    4    0    0  0.52413141676E+02  0.11053023490E+02 -0.17892269846E+03  0.18676894488E+03  0.00000000000E+00 0. -1.
         -5    1    5    5    0  502 -0.57882497349E+02 -0.99576604692E+01 -0.50015809280E+02  0.77286542679E+02  0.47000000000E+01 0.  1.
         13    1    6    6    0    0  0.59539730501E+02  0.51220232937E+02 -0.78467558791E+02  0.11102094196E+03  0.00000000000E+00 0. -1.
        -14    1    6    6    0    0  0.13817292064E+02  0.14520301042E+02  0.16818512214E+02  0.26165226073E+02  0.00000000000E+00 0.  1.
</event>
<event>
12    1  0.8449700E-002  0.1962821E+03  0.7818608E-02  0.1153220E+00
         21   -1    0    0  501  502  0.00000000000E+00  0.00000000000E+00  0.83336983324E+03  0.83336983324E+03  0.00000000000E+00 0.  1.
         21   -1    0    0  502  503 -0.00000000000E+00 -0.00000000000E+00 -0.69769373693E+02  0.69769373693E+02  0.00000000000E+00 0.  1.
         -6    2    1    2    0  503 -0.19116375632E+01  0.90424164817E+02  0.11857212618E+03  0.22931638360E+03  0.17420238442E+03 0.  0.
        -24    2    3    3    0    0 -0.58423505854E+02  0.80205025967E+02  0.11342267906E+03  0.17146632861E+03  0.81791475681E+02 0.  0.
          6    2    1    2  501    0  0.19116375632E+01 -0.90424164817E+02  0.64502833337E+03  0.67382282334E+03  0.17261362190E+03 0.  0.
         24    2    5    5    0    0  0.99607927856E+01 -0.12034128766E+03  0.61142111582E+03  0.62787330527E+03  0.76209341312E+02 0.  0.
          5    1    5    5  501    0 -0.80491552224E+01  0.29917122840E+02  0.33607217553E+02  0.45949518066E+02  0.47000000000E+01 0. -1.
        -11    1    6    6    0    0 -0.76397227181E+01 -0.54341717063E+02  0.43897639439E+03  0.44239310846E+03  0.00000000000E+00 0.  1.
         12    1    6    6    0    0  0.17600515504E+02 -0.65999570595E+02  0.17244472142E+03  0.18548019682E+03  0.00000000000E+00 0. -1.
         -5    1    3    3    0  503  0.56511868291E+02  0.10219138849E+02  0.51494471214E+01  0.57850054988E+02  0.47000000000E+01 0.  1.
         13    1    4    4    0    0  0.16517553906E+02 -0.17279638273E+01  0.83207028260E+01  0.18575509187E+02  0.00000000000E+00 0. -1.
        -14    1    4    4    0    0 -0.74941059760E+02  0.81932989795E+02  0.10510197624E+03  0.15289081942E+03  0.00000000000E+00 0.  1.
</event>
<event>
12    1  0.8449700E-002  0.1905461E+03  0.7818608E-02  0.1158447E+00
         21   -1    0    0  501  502  0.00000000000E+00  0.00000000000E+00  0.20314005901E+04  0.20314005901E+04  0.00000000000E+00 0.  1.
         21   -1    0    0  502  503 -0.00000000000E+00 -0.00000000000E+00 -0.24670507372E+02  0.24670507372E+02  0.00000000000E+00 0.  1.
         -6    2    1    2    0  503 -0.62442655746E+02  0.42084028484E+02  0.45197514690E+03  0.48968330498E+03  0.17273695334E+03 0.  0.
        -24    2    3    3    0    0 -0.32187263541E+02  0.79947775839E+02  0.40547905559E+03  0.42235553486E+03  0.80890459952E+02 0.  0.
          6    2    1    2  501    0  0.62442655746E+02 -0.42084028484E+02  0.15547549358E+04  0.15663877925E+04  0.17503615423E+03 0.  0.
         24    2    5    5    0    0  0.26461225634E+02  0.23091239933E+02  0.12208660554E+04  0.12242674140E+04  0.84162781956E+02 0.  0.
          5    1    5    5  501    0  0.35981430112E+02 -0.65175268417E+02  0.33388888043E+03  0.34212037852E+03  0.47000000000E+01 0. -1.
        -13    1    6    6    0    0  0.40731075520E+02 -0.13015091379E+02  0.90729575017E+03  0.90830280820E+03  0.00000000000E+00 0.  1.
         14    1    6    6    0    0 -0.14269849886E+02  0.36106331312E+02  0.31357030522E+03  0.31596460576E+03  0.00000000000E+00 0. -1.
         -5    1    3    3    0  503 -0.30255392205E+02 -0.37863747355E+02  0.46496091307E+02  0.67327770111E+02  0.47000000000E+01 0.  1.
         13    1    4    4    0    0 -0.11244728558E+01  0.94592894615E+01  0.23600372990E+03  0.23619589989E+03  0.00000000000E+00 0. -1.
        -14    1    4    4    0    0 -0.31062790685E+02  0.70488486377E+02  0.16947532569E+03  0.18615963498E+03  0.00000000000E+00 0.  1.
</event>
<event>
12    1  0.8449700E-002  0.2910287E+03  0.7818608E-02  0.1090123E+00
         21   -1    0    0  501  502  0.00000000000E+00  0.00000000000E+00  0.69877688061E+03  0.69877688061E+03  0.00000000000E+00 0.  1.
         21   -1    0    0  502  503 -0.00000000000E+00 -0.00000000000E+00 -0.15049206979E+03  0.15049206979E+03  0.00000000000E+00 0. -1.
         -6    2    1    2    0  503  0.87059440229E+02 -0.21469191405E+03  0.84596293223E+02  0.30307466829E+03  0.17614130022E+03 0.  0.
        -24    2    3    3    0    0  0.57085326416E+02 -0.48082479547E+02  0.75345071466E+02  0.13347270407E+03  0.81039642185E+02 0.  0.
          6    2    1    2  501    0 -0.87059440229E+02  0.21469191405E+03  0.46368851760E+03  0.54619428210E+03  0.17218939677E+03 0.  0.
         24    2    5    5    0    0 -0.82214671532E+02  0.23472861095E+03  0.45149509735E+03  0.52178710071E+03  0.80976431920E+02 0.  0.
          5    1    5    5  501    0 -0.48447686968E+01 -0.20036696894E+02  0.12193420248E+02  0.24407181392E+02  0.47000000000E+01 0. -1.
        -13    1    6    6    0    0  0.55433695551E+00 -0.64712575015E+01  0.13048911534E+02  0.14575958128E+02  0.00000000000E+00 0.  1.
         14    1    6    6    0    0 -0.82769008487E+02  0.24119986845E+03  0.43844618581E+03  0.50721114258E+03  0.00000000000E+00 0. -1.
         -5    1    3    3    0  503  0.29974113812E+02 -0.16660943451E+03  0.92512217575E+01  0.16960196423E+03  0.47000000000E+01 0.  1.
         11    1    4    4    0    0  0.12841799261E+02 -0.49903644883E+01 -0.17307916436E+02  0.22121923906E+02  0.00000000000E+00 0. -1.
        -12    1    4    4    0    0  0.44243527155E+02 -0.43092115058E+02  0.92652987901E+02  0.11135078016E+03  0.00000000000E+00 0.  1.
</event>
<event>
12    1  0.8449700E-002  0.2106750E+03  0.7818608E-02  0.1141453E+00
         21   -1    0    0  503  502  0.00000000000E+00  0.00000000000E+00  0.73116131119E+02  0.73116131119E+02  0.00000000000E+00 0.  1.
         21   -1    0    0  501  503 -0.00000000000E+00 -0.00000000000E+00 -0.60150952339E+03  0.60150952339E+03  0.00000000000E+00 0.  1.
          6    2    1    2  501    0 -0.95502458841E+02  0.69988732590E+02 -0.27320692273E+03  0.34371162909E+03  0.17168727096E+03 0.  0.
         24    2    3    3    0    0  0.20777241366E+02  0.46389346530E+02 -0.14125317210E+03  0.16619604665E+03  0.71309200425E+02 0.  0.
         -6    2    1    2    0  502  0.95502458841E+02 -0.69988732590E+02 -0.25518646954E+03  0.33091402541E+03  0.17425503048E+03 0.  0.
        -24    2    5    5    0    0  0.67741530114E+02 -0.32415617259E+02 -0.51434226741E+02  0.12182200117E+03  0.80965629393E+02 0.  0.
          5    1    3    3  501    0 -0.11627970021E+03  0.23599386060E+02 -0.13195375063E+03  0.17751558244E+03  0.47000000000E+01 0. -1.
        -11    1    4    4    0    0  0.19831471875E+02  0.63602672611E+02 -0.12852796752E+03  0.14476886984E+03  0.00000000000E+00 0.  1.
         12    1    4    4    0    0  0.94576949077E+00 -0.17213326081E+02 -0.12725204583E+02  0.21427176818E+02  0.00000000000E+00 0. -1.
         -5    1    5    5    0  502  0.27760928727E+02 -0.37573115332E+02 -0.20375224280E+03  0.20909202425E+03  0.47000000000E+01 0.  1.
         11    1    6    6    0    0  0.71134146318E+02  0.64300802195E+01 -0.34188344077E+02  0.79184945379E+02  0.00000000000E+00 0. -1.
        -12    1    6    6    0    0 -0.33926162034E+01 -0.38845697478E+02 -0.17245882665E+02  0.42637055787E+02  0.00000000000E+00 0.  1.
</event>
<event>
12    1  0.8449700E-002  0.1876051E+03  0.7818608E-02  0.1160693E+00
         21   -1    0    0  503  502  0.00000000000E+00  0.00000000000E+00  0.71700881685E+02  0.71700881685E+02  0.00000000000E+00 0.  1.
         21   -1    0    0  501  503 -0.00000000000E+00 -0.00000000000E+00 -0.49712336467E+03  0.49712336467E+03  0.00000000000E+00 0.  1.
          6    2    1    2  501    0 -0.28642540968E+02  0.69266245425E+02 -0.17940113983E+03  0.25957746004E+03  0.17198104802E+03 0.  0.
         24    2    3    3    0    0 -0.59259176923E+02  0.98470128058E+02 -0.12236063631E+03  0.18840194318E+03  0.85528654301E+02 0.  0.
         -6    2    1    2    0  502  0.28642540968E+02 -0.69266245425E+02 -0.24602134316E+03  0.30924678632E+03  0.17172322398E+03 0.  0.
        -24    2    5    5    0    0  0.66456834791E+02 -0.53688718607E+02 -0.81640699746E+02  0.13978981217E+03  0.74679303266E+02 0.  0.
          5    1    3    3  501    0  0.30616635955E+02 -0.29203882633E+02 -0.57040503522E+02  0.71175516859E+02  0.47000000000E+01 0. -1.
        -11    1    4    4    0    0 -0.51862578945E+02  0.67929373906E+02 -0.13045071821E+03  0.15595357263E+03  0.00000000000E+00 0.  1.
         12    1    4    4    0    0 -0.73965979780E+01  0.30540754152E+02  0.80900819074E+01  0.32448370546E+02  0.00000000000E+00 0. -1.
         -5    1    5    5    0  502 -0.37814293823E+02 -0.15577526818E+02 -0.16438064341E+03  0.16945697415E+03  0.47000000000E+01 0.  1.
         13    1    6    6    0    0 -0.30284139207E+01  0.14911403656E+02 -0.63401469023E+01  0.16483892520E+02  0.00000000000E+00 0. -1.
        -14    1    6    6    0    0  0.69485248712E+02 -0.68600122262E+02 -0.75300552844E+02  0.12330591965E+03  0.00000000000E+00 0.  1.
</event>
<event>
12    1  0.8449700E-002  0.2645791E+03  0.7818608E-02  0.1104592E+00
         21   -1    0    0  501  502  0.00000000000E+00  0.00000000000E+00  0.17563414110E+03  0.17563414110E+03  0.00000000000E+00 0. -1.
         21   -1    0    0  502  503 -0.00000000000E+00 -0.00000000000E+00 -0.42785883467E+03  0.42785883467E+03  0.00000000000E+00 0.  1.
         -6    2    1    2    0  503  0.17167346036E+03 -0.10171691126E+03 -0.45122499964E+02  0.26839923224E+03  0.17373543345E+03 0.  0.
        -24    2    3    3    0    0  0.26132603419E+02 -0.30408352943E+02  0.20943195987E+02  0.93316915284E+02  0.81620146592E+02 0.  0.
          6    2    1    2  501    0 -0.17167346036E+03  0.10171691126E+03 -0.20710219361E+03  0.33509374353E+03  0.17198369494E+03 0.  0.
         24    2    5    5    0    0 -0.12940304719E+03  0.93240861562E+02 -0.70621249501E+02  0.19188840371E+03  0.79967441568E+02 0.  0.
          5    1    5    5  501    0 -0.42270413178E+02  0.84760496983E+01 -0.13648094411E+03  0.14320533982E+03  0.47000000000E+01 0. -1.
        -11    1    6    6    0    0 -0.38784815143E+02  0.58256657281E+02 -0.63483942672E+02  0.94489740080E+02  0.00000000000E+00 0.  1.
         12    1    6    6    0    0 -0.90618232043E+02  0.34984204281E+02 -0.71373068284E+01  0.97398663628E+02  0.00000000000E+00 0. -1.
         -5    1    3    3    0  503  0.14554085695E+03 -0.71308558316E+02 -0.66065695951E+02  0.17508231696E+03  0.47000000000E+01 0.  1.
         11    1    4    4    0    0 -0.61786564124E+01 -0.51268344316E+02  0.57249972494E+01  0.51955697642E+02  0.00000000000E+00 0. -1.
        -12    1    4    4    0    0  0.32311259832E+02  0.20859991373E+02  0.15218198737E+02  0.41361217641E+02  0.00000000000E+00 0.  1.
</event>
<event>
12    1  0.8449700E-002  0.1929119E+03  0.7818608E-02  0.1156145E+00
         21   -1    0    0  501  502  0.00000000000E+00  0.00000000000E+00  0.23218367158E+03  0.23218367158E+03  0.00000000000E+00 0. -1.
         21   -1    0    0  502  503 -0.00000000000E+00 -0.00000000000E+00 -0.20716972601E+03  0.20716972601E+03  0.00000000000E+00 0. -1.
         -6    2    1    2    0  503 -0.67011345922E+02 -0.53395039162E+02 -0.93145938046E+02  0.21422219524E+03  0.17283932559E+03 0.  0.
        -24    2    3    3    0    0 -0.73601802782E+02 -0.71401969386E+02 -0.99933895741E+01  0.12875805086E+03  0.77222413977E+02 0.  0.
          6    2    1    2  501    0  0.67011345922E+02  0.53395039162E+02  0.11815988362E+03  0.22513120236E+03  0.17140813717E+03 0.  0.
         24    2    5    5    0    0  0.99150782387E+02  0.29710833888E+02  0.40320801878E+02  0.13752470944E+03  0.81078155769E+02 0.  0.
          5    1    5    5  501    0 -0.32139436465E+02  0.23684205275E+02  0.77839081740E+02  0.87606492921E+02  0.47000000000E+01 0. -1.
        -11    1    6    6    0    0  0.60658290770E+02 -0.16950575852E+02  0.44148333532E+02  0.76914404467E+02  0.00000000000E+00 0.  1.
         12    1    6    6    0    0  0.38492491618E+02  0.46661409740E+02 -0.38275316547E+01  0.60610304969E+02  0.00000000000E+00 0. -1.
         -5    1    3    3    0  503  0.65904568601E+01  0.18006930224E+02 -0.83152548472E+02  0.85464144383E+02  0.47000000000E+01 0.  1.
         13    1    4    4    0    0 -0.37124006907E+02 -0.67015069694E+02 -0.35089479123E+02  0.84264363761E+02  0.00000000000E+00 0. -1.
        -14    1    4    4    0    0 -0.36477795875E+02 -0.43868996919E+01  0.25096089549E+02  0.44493687097E+02  0.00000000000E+00 0.  1.
</event>
<event>
12    1  0.8449700E-002  0.2009799E+03  0.7818608E-02  0.1148973E+00
         21   -1    0    0  503  502  0.00000000000E+00  0.00000000000E+00  0.23999925798E+03  0.23999925798E+03  0.00000000000E+00 0. -1.
         21   -1    0    0  501  503 -0.00000000000E+00 -0.00000000000E+00 -0.36975965828E+03  0.36975965828E+03  0.00000000000E+00 0. -1.
          6    2    1    2  501    0  0.83817739408E+02 -0.60119054114E+02 -0.29006899945E+03  0.35289225647E+03  0.17249117695E+03 0.  0.
         24    2    3    3    0    0  0.49987207056E+02  0.34516414924E+02 -0.14292515552E+03  0.17464025023E+03  0.79884373652E+02 0.  0.
         -6    2    1    2    0  502 -0.83817739408E+02  0.60119054114E+02  0.16030859915E+03  0.25686665979E+03  0.17216828931E+03 0.  0.
        -24    2    5    5    0    0 -0.48308294380E+02  0.40920789046E+01  0.16613100894E+03  0.19011388387E+03  0.78697778198E+02 0.  0.
          5    1    3    3  501    0  0.33830532352E+02 -0.94635469038E+02 -0.14714384393E+03  0.17825200624E+03  0.47000000000E+01 0. -1.
        -13    1    4    4    0    0  0.34276568982E+02 -0.21636110835E+02 -0.44122400908E+02  0.59914862390E+02  0.00000000000E+00 0.  1.
         14    1    4    4    0    0  0.15710638074E+02  0.56152525759E+02 -0.98802754608E+02  0.11472538784E+03  0.00000000000E+00 0. -1.
         -5    1    5    5    0  502 -0.35509445028E+02  0.56026975209E+02 -0.58224097929E+01  0.66752775920E+02  0.47000000000E+01 0.  1.
         13    1    6    6    0    0 -0.24534735123E+02  0.57197416101E+00  0.24336415212E+01  0.24661771896E+02  0.00000000000E+00 0. -1.
        -14    1    6    6    0    0 -0.23773559258E+02  0.35201047436E+01  0.16369736742E+03  0.16545211197E+03  0.00000000000E+00 0.  1.
</event>
<event>
12    1  0.8449700E-002  0.2308078E+03  0.7818608E-02  0.1126631E+00
         21   -1    0    0  503  502  0.00000000000E+00  0.00000000000E+00  0.47711397638E+03  0.47711397638E+03  0.00000000000E+00 0.  1.
         21   -1    0    0  501  503 -0.00000000000E+00 -0.00000000000E+00 -0.25689001282E+03  0.25689001282E+03  0.00000000000E+00 0. -1.
          6    2    1    2  501    0 -0.14225783675E+02  0.14836744640E+03 -0.16695430102E+03  0.28486136573E+03  0.17622992646E+03 0.  0.
         24    2    3    3    0    0 -0.15515536333E+02  0.16532743577E+03 -0.18372109366E+03  0.26051963126E+03  0.80889709660E+02 0.  0.
         -6    2    1    2    0  502  0.14225783675E+02 -0.14836744640E+03  0.38717826459E+03  0.44914262348E+03  0.17206631158E+03 0.  0.
        -24    2    5    5    0    0  0.33053986554E+02 -0.11678416767E+02  0.11793973849E+03  0.14657053953E+03  0.79650421835E+02 0.  0.
          5    1    3    3  501    0  0.12897526585E+01 -0.16959989368E+02  0.16766792640E+02  0.24341734464E+02  0.47000000000E+01 0. -1.
        -13    1    4    4    0    0  0.68070747630E+01  0.19273544810E+02  0.48024084931E+01  0.20996878904E+02  0.00000000000E+00 0.  1.
         14    1    4    4    0    0 -0.22322611096E+02  0.14605389096E+03 -0.18852350216E+03  0.23952275236E+03  0.00000000000E+00 0. -1.
         -5    1    5    5    0  502 -0.18828202880E+02 -0.13668902964E+03  0.26923852610E+03  0.30257208395E+03  0.47000000000E+01 0.  1.
         11    1    6    6    0    0  0.10622018995E+02 -0.94499535584E+01  0.12270841429E+03  0.12352928336E+03  0.00000000000E+00 0. -1.
        -12    1    6    6    0    0  0.22431967559E+02 -0.22284632089E+01 -0.47686758059E+01  0.23041256168E+02  0.00000000000E+00 0.  1.
</event>
<event>
12    1  0.8449700E-002  0.2105848E+03  0.7818608E-02  0.1141202E+00
         21   -1    0    0  503  502  0.00000000000E+00  0.00000000000E+00  0.22568586034E+03  0.22568586034E+03  0.00000000000E+00 0.  1.
         21   -1    0    0  501  503 -0.00000000000E+00 -0.00000000000E+00 -0.50606118034E+03  0.50606118034E+03  0.00000000000E+00 0.  1.
          6    2    1    2  501    0 -0.11904288891E+03  0.21189077291E+02 -0.42649675322E+03  0.47543193419E+03  0.17180179610E+03 0.  0.
         24    2    3    3    0    0 -0.14582526398E+03  0.13947366656E+02 -0.32534800778E+03  0.37044195042E+03  0.99581001280E+02 0.  0.
         -6    2    1    2    0  502  0.11904288891E+03 -0.21189077291E+02  0.14612143322E+03  0.25631510649E+03  0.17241164163E+03 0.  0.
        -24    2    5    5    0    0  0.39302344357E+02  0.48967887929E+02  0.60411708333E+02  0.11975449301E+03  0.82152515307E+02 0.  0.
          5    1    3    3  501    0  0.26782375066E+02  0.72417106350E+01 -0.10114874544E+03  0.10498998377E+03  0.47000000000E+01 0. -1.
        -11    1    4    4    0    0 -0.11251239936E+03  0.52896032048E+02 -0.20689159952E+03  0.24137349516E+03  0.00000000000E+00 0.  1.
         12    1    4    4    0    0 -0.33312864619E+02 -0.38948665392E+02 -0.11845640826E+03  0.12906845526E+03  0.00000000000E+00 0. -1.
         -5    1    5    5    0  502  0.79740544553E+02 -0.70156965219E+02  0.85709724885E+02  0.13656061348E+03  0.47000000000E+01 0.  1.
         11    1    6    6    0    0  0.28767180528E+02 -0.71573619028E+00  0.62622978427E+02  0.68918070060E+02  0.00000000000E+00 0. -1.
        -12    1    6    6    0    0  0.10535163830E+02  0.49683624119E+02 -0.22112700936E+01  0.50836422946E+02  0.00000000000E+00 0.  1.
</event>
<event>
12    1  0.8449700E-002  0.1825295E+03  0.7818608E-02  0.1165780E+00
         21   -1    0    0  503  502  0.00000000000E+00  0.00000000000E+00  0.62313481067E+03  0.62313481067E+03  0.00000000000E+00 0. -1.
         21   -1    0    0  501  503 -0.00000000000E+00 -0.00000000000E+00 -0.88550231307E+02  0.88550231307E+02  0.00000000000E+00 0. -1.
          6    2    1    2  501    0 -0.57897960860E+02 -0.16418835234E+01  0.49358248906E+03  0.52625155550E+03  0.17309580150E+03 0.  0.
         24    2    3    3    0    0  0.41573830732E+01 -0.53917586412E+02  0.22137045198E+03  0.24216512859E+03  0.81943166480E+02 0.  0.
         -6    2    1    2    0  502  0.57897960860E+02  0.16418835234E+01  0.41002090303E+02  0.18543348649E+03  0.17131706526E+03 0.  0.
        -24    2    5    5    0    0  0.10789971502E+03  0.21079213673E+02  0.42981976688E+02  0.13154475694E+03  0.58050762337E+02 0.  0.
          5    1    3    3  501    0 -0.62055343933E+02  0.52275702889E+02  0.27221203708E+03  0.28408642691E+03  0.47000000000E+01 0. -1.
        -11    1    4    4    0    0  0.18004278125E+02  0.20362732776E+01  0.58052681716E+01  0.19026339065E+02  0.00000000000E+00 0.  1.
         12    1    4    4    0    0 -0.13846895052E+02 -0.55953859690E+02  0.21556518381E+03  0.22313878952E+03  0.00000000000E+00 0. -1.
         -5    1    5    5    0  502 -0.50001754158E+02 -0.19437330149E+02 -0.19798863852E+01  0.53888729548E+02  0.47000000000E+01 0.  1.
         11    1    6    6    0    0  0.67574759151E+02  0.33352865818E+02  0.62187266172E+01  0.75613717627E+02  0.00000000000E+00 0. -1.
        -12    1    6    6    0    0  0.40324955866E+02 -0.12273652146E+02  0.36763250071E+02  0.55931039311E+02  0.00000000000E+00 0.  1.
</event>
<event>
12    1  0.8449700E-002  0.2129293E+03  0.7818608E-02  0.1139276E+00
         21   -1    0    0  501  502  0.00000000000E+00  0.00000000000E+00  0.17414870565E+03  0.17414870565E+03  0.00000000000E+00 0.  1.
         21   -1    0    0  502  503 -0.00000000000E+00 -0.00000000000E+00 -0.56086358690E+03  0.56086358690E+03  0.00000000000E+00 0. -1.
         -6    2    1    2    0  503 -0.59007448317E+01  0.12536876522E+03 -0.46238439652E+03  0.50903716433E+03  0.17195161656E+03 0.  0.
        -24    2    3    3    0    0 -0.69474033481E+02  0.72648571912E+02 -0.31118833453E+03  0.33669065008E+03  0.80112158716E+02 0.  0.
          6    2    1    2  501    0  0.59007448317E+01 -0.12536876522E+03  0.75669515272E+02  0.22597512822E+03  0.17200795606E+03 0.  0.
         24    2    5    5    0    0  0.45987967534E+02 -0.59735677226E+02  0.97835217065E+02  0.14579972052E+03  0.77476348091E+02 0.  0.
          5    1    5    5  501    0 -0.40087222702E+02 -0.65633087997E+02 -0.22165701793E+02  0.80175407701E+02  0.47000000000E+01 0. -1.
        -13    1    6    6    0    0  0.66479905678E+02 -0.54871713065E+02  0.85401653795E+02  0.12134218238E+03  0.00000000000E+00 0.  1.
         14    1    6    6    0    0 -0.20491938144E+02 -0.48639641614E+01  0.12433563270E+02  0.24457538139E+02  0.00000000000E+00 0. -1.
         -5    1    3    3    0  503  0.63573288649E+02  0.52720193312E+02 -0.15119606199E+03  0.17234651425E+03  0.47000000000E+01 0.  1.
         13    1    4    4    0    0 -0.11168188329E+02  0.98318398929E+01 -0.17597334537E+03  0.17660127912E+03  0.00000000000E+00 0. -1.
        -14    1    4    4    0    0 -0.58305845152E+02  0.62816732019E+02 -0.13521498916E+03  0.16008937096E+03  0.00000000000E+00 0.  1.
</event>
<event>
12    1  0.8449700E-002  0.1866229E+03  0.7818608E-02  0.1162295E+00
         21   -1    0    0  501  502  0.00000000000E+00  0.00000000000E+00  0.16981796238E+03  0.16981796238E+03  0.00000000000E+00 0.  1.
         21   -1    0    0  502  503 -0.00000000000E+00 -0.00000000000E+00 -0.20450339954E+03  0.20450339954E+03  0.00000000000E+00 0.  1.
         -6    2    1    2    0  503 -0.39713899730E+02  0.47544076411E+02  0.52652740723E+01  0.18347023525E+03  0.17261509517E+03 0.  0.
        -24    2    3    3    0    0 -0.75692112498E+02  0.86090386579E+01 -0.37706286042E+02  0.11506691708E+03  0.77557849106E+02 0.  0.
          6    2    1    2  501    0  0.39713899730E+02 -0.47544076411E+02 -0.39950711224E+02  0.19085112667E+03  0.17604107529E+03 0.  0.
         24    2    5    5    0    0  0.57581999584E+02  0.32015655560E+02  0.12556267965E+02  0.93752760010E+02  0.65507490162E+02 0.  0.
          5    1    5    5  501    0 -0.17868099853E+02 -0.79559731972E+02 -0.52506979189E+02  0.97098366656E+02  0.47000000000E+01 0. -1.
        -11    1    6    6    0    0  0.35669843341E+02 -0.13815740572E+02  0.18707537443E+02  0.42581502659E+02  0.00000000000E+00 0.  1.
         12    1    6    6    0    0  0.21912156243E+02  0.45831396133E+02 -0.61512694775E+01  0.51171257351E+02  0.00000000000E+00 0. -1.
         -5    1    3    3    0  503  0.35978212768E+02  0.38935037754E+02  0.42971560114E+02  0.68403318176E+02  0.47000000000E+01 0.  1.
         13    1    4    4    0    0  0.35506259163E+01  0.18078108489E+02  0.11110115955E+02  0.21514172711E+02  0.00000000000E+00 0. -1.
        -14    1    4    4    0    0 -0.79242738414E+02 -0.94690698308E+01 -0.48816401996E+02  0.93552744368E+02  0.00000000000E+00 0.  1.
</event>
<event>
12    1  0.8449700E-002  0.1828436E+03  0.7818608E-02  0.1165102E+00
         21   -1    0    0  501  502  0.00000000000E+00  0.00000000000E+00  0.14143139913E+04  0.14143139913E+04  0.00000000000E+00 0. -1.
         21   -1    0    0  502  503 -0.00000000000E+00 -0.00000000000E+00 -0.37990856841E+02  0.37990856841E+02  0.00000000000E+00 0. -1.
         -6    2    1    2    0  503  0.56214309415E+02 -0.27325752081E+02  0.24175127608E+03  0.30310965980E+03  0.17182852228E+03 0.  0.
        -24    2    3    3    0    0  0.37628013421E+02 -0.20740745870E+02  0.26143370003E+03  0.27485544741E+03  0.73156623246E+02 0.  0.
          6    2    1    2  501    0 -0.56214309415E+02  0.27325752081E+02  0.11345718584E+04  0.11491951883E+04  0.17172516929E+03 0.  0.
         24    2    5    5    0    0 -0.35708374265E+02 -0.45750962811E+02  0.76367225595E+03  0.77058020618E+03  0.85031176953E+02 0.  0.
          5    1    5    5  501    0 -0.20505935151E+02  0.73076714892E+02  0.37089960242E+03  0.37861498215E+03  0.47000000000E+01 0. -1.
        -13    1    6    6    0    0  0.24840872656E+02  0.21697825813E+01  0.14823115490E+03  0.15031384565E+03  0.00000000000E+00 0.  1.
         14    1    6    6    0    0 -0.60549246921E+02 -0.47920745392E+02  0.61544110105E+03  0.62026636053E+03  0.00000000000E+00 0. -1.
         -5    1    3    3    0  503  0.18586295995E+02 -0.65850062114E+01 -0.19682423948E+02  0.28254212396E+02  0.47000000000E+01 0.  1.
         13    1    4    4    0    0  0.38390091101E+02  0.19614496215E+02  0.15944567642E+03  0.16517097592E+03  0.00000000000E+00 0. -1.
        -14    1    4    4    0    0 -0.76207768031E+00 -0.40355242084E+02  0.10198802361E+03  0.10968447149E+03  0.00000000000E+00 0.  1.
</event>
<event>
12    1  0.8449700E-002  0.2137930E+03  0.7818608E-02  0.1139333E+00
         21   -1    0    0  501  502  0.00000000000E+00  0.00000000000E+00  0.14134505184E+04  0.14134505184E+04  0.00000000000E+00 0.  1.
         21   -1    0    0  502  503 -0.00000000000E+00 -0.00000000000E+00 -0.36880011661E+02  0.36880011661E+02  0.00000000000E+00 0.  1.
         -6    2    1    2    0  503  0.53995501620E+02  0.10753288706E+03  0.42363029960E+03  0.47452087347E+03  0.17671613574E+03 0.  0.
        -24    2    3    3    0    0 -0.61312316278E+01  0.89279763479E+01  0.27626686393E+03  0.28723439602E+03  0.77864737755E+02 0.  0.
          6    2    1    2  501    0 -0.53995501620E+02 -0.10753288706E+03  0.95294020711E+03  0.97580965656E+03  0.17213544524E+03 0.  0.
         24    2    5    5    0    0 -0.71756136899E+02 -0.88016105393E+02  0.42644862995E+03  0.44863623561E+03  0.80748126449E+02 0.  0.
          5    1    5    5  501    0  0.17760635279E+02 -0.19516781663E+02  0.52649157716E+03  0.52717342094E+03  0.47000000000E+01 0. -1.
        -11    1    6    6    0    0 -0.35998582503E+02 -0.84840941006E+02  0.21146165555E+03  0.23067274434E+03  0.00000000000E+00 0.  1.
         12    1    6    6    0    0 -0.35757554396E+02 -0.31751643865E+01  0.21498697440E+03  0.21796349128E+03  0.00000000000E+00 0. -1.
         -5    1    3    3    0  503  0.60126733248E+02  0.98604910708E+02  0.14736343567E+03  0.18728647746E+03  0.47000000000E+01 0.  1.
         11    1    4    4    0    0  0.29442777475E+02 -0.17296785645E+02  0.13236097243E+03  0.13669485346E+03  0.00000000000E+00 0. -1.
        -12    1    4    4    0    0 -0.35574009103E+02  0.26224761993E+02  0.14390589150E+03  0.15053954256E+03  0.00000000000E+00 0.  1.
</event>
<event>
12    1  0.8449700E-002  0.2096778E+03  0.7818608E-02  0.1142056E+00
         21   -1    0    0  503  502  0.00000000000E+00  0.00000000000E+00  0.13407553286E+03  0.13407553286E+03  0.00000000000E+00 0. -1.
         21   -1    0    0  501  503 -0.00000000000E+00 -0.00000000000E+00 -0.82696370691E+03  0.82696370691E+03  0.00000000000E+00 0.  1.
          6    2    1    2  501    0 -0.72763528149E+02 -0.93451254301E+02 -0.72003235641E+03  0.74961178939E+03  0.17159129511E+03 0.  0.
         24    2    3    3    0    0 -0.10515567817E+03 -0.40275006229E+02 -0.57797573279E+03  0.59443724555E+03  0.81362758213E+02 0.  0.
         -6    2    1    2    0  502  0.72763528149E+02  0.93451254301E+02  0.27144182363E+02  0.21142745038E+03  0.17302338622E+03 0.  0.
        -24    2    5    5    0    0  0.71089358247E+02  0.81835704659E+02 -0.40461499064E+02  0.14264996860E+03  0.83433214147E+02 0.  0.
          5    1    3    3  501    0  0.32392150021E+02 -0.53176248073E+02 -0.14205662361E+03  0.15517454384E+03  0.47000000000E+01 0. -1.
        -11    1    4    4    0    0 -0.33019793507E+01  0.19381063603E+02 -0.58342038279E+02  0.61565592051E+02  0.00000000000E+00 0.  1.
         12    1    4    4    0    0 -0.10185369882E+03 -0.59656069832E+02 -0.51963369451E+03  0.53287165350E+03  0.00000000000E+00 0. -1.
         -5    1    5    5    0  502  0.16741699029E+01  0.11615549642E+02  0.67605681426E+02  0.68777481776E+02  0.47000000000E+01 0.  1.
         11    1    6    6    0    0  0.49609441206E+02  0.18979752595E+02  0.15997238067E+02  0.55472869865E+02  0.00000000000E+00 0. -1.
        -12    1    6    6    0    0  0.21479917041E+02  0.62855952064E+02 -0.56458737130E+02  0.87177098738E+02  0.00000000000E+00 0.  1.
</event>
<event>
12    1  0.8449700E-002  0.3276744E+03  0.7818608E-02  0.1072214E+00
         21   -1    0    0  501  502  0.00000000000E+00  0.00000000000E+00  0.47847150939E+03  0.47847150939E+03  0.00000000000E+00 0. -1.
         21   -1    0    0  502  503 -0.00000000000E+00 -0.00000000000E+00 -0.38338409839E+03  0.38338409839E+03  0.00000000000E+00 0.  1.
         -6    2    1    2    0  503 -0.81055183083E+02  0.26668201576E+03 -0.23017225787E+03  0.40043700076E+03  0.17228256747E+03 0.  0.
        -24    2    3    3    0    0 -0.44514293773E+01  0.89315586767E+02 -0.30845720918E+02  0.12280389116E+03  0.78308670797E+02 0.  0.
          6    2    1    2  501    0  0.81055183083E+02 -0.26668201576E+03  0.32525966887E+03  0.46141860702E+03  0.17153436528E+03 0.  0.
         24    2    5    5    0    0  0.10806348462E+03 -0.11039192526E+03  0.13272527829E+03  0.21192387301E+03  0.58580155202E+02 0.  0.
          5    1    5    5  501    0 -0.27008301532E+02 -0.15629009050E+03  0.19253439059E+03  0.24949473401E+03  0.47000000000E+01 0. -1.
        -11    1    6    6    0    0  0.81217092040E+02 -0.45524563790E+02  0.91345935635E+02  0.13043305526E+03  0.00000000000E+00 0.  1.
         12    1    6    6    0    0  0.26846392576E+02 -0.64867361470E+02  0.41379342652E+02  0.81490817745E+02  0.00000000000E+00 0. -1.
         -5    1    3    3    0  503 -0.76603753706E+02  0.17736642900E+03 -0.19932653695E+03  0.27763310960E+03  0.47000000000E+01 0.  1.
         13    1    4    4    0    0 -0.31523954791E+02  0.82704073373E+02 -0.33879690303E+02  0.94771076247E+02  0.00000000000E+00 0. -1.
        -14    1    4    4    0    0  0.27072525414E+02  0.66115133940E+01  0.30339693847E+01  0.28032814912E+02  0.00000000000E+00 0.  1.
</event>
<event>
12    1  0.8449700E-002  0.2040469E+03  0.7818608E-02  0.1146633E+00
         21   -1    0    0  501  502  0.00000000000E+00  0.00000000000E+00  0.32119266192E+02  0.32119266192E+02  0.00000000000E+00 0. -1.
         21   -1    0    0  502  503 -0.00000000000E+00 -0.00000000000E+00 -0.14774234964E+04  0.14774234964E+04  0.00000000000E+00 0. -1.
         -6    2    1    2    0  503 -0.69048906306E+02 -0.84840711697E+02 -0.99082104035E+03  0.10113559268E+04  0.17073013446E+03 0.  0.
        -24    2    3    3    0    0 -0.86783797606E+02 -0.10131480235E+03 -0.59845296098E+03  0.61821381285E+03  0.79033253761E+02 0.  0.
          6    2    1    2  501    0  0.69048906306E+02  0.84840711697E+02 -0.45448318986E+03  0.49818683581E+03  0.17224823857E+03 0.  0.
         24    2    5    5    0    0 -0.18180537056E+01  0.68667622878E+02 -0.37921495724E+03  0.39344385674E+03  0.79218286155E+02 0.  0.
          5    1    5    5  501    0  0.70866960011E+02  0.16173088820E+02 -0.75268232616E+02  0.10474297907E+03  0.47000000000E+01 0. -1.
        -11    1    6    6    0    0 -0.73628792922E+01  0.86170735698E+02 -0.31458534386E+03  0.32625687158E+03  0.00000000000E+00 0.  1.
         12    1    6    6    0    0  0.55448255866E+01 -0.17503112820E+02 -0.64629613386E+02  0.67186985166E+02  0.00000000000E+00 0. -1.
         -5    1    3    3    0  503  0.17734891301E+02  0.16474090650E+02 -0.39236807938E+03  0.39314211393E+03  0.47000000000E+01 0.  1.
         13    1    4    4    0    0 -0.91460379940E+02 -0.10744597427E+03 -0.59054701687E+03  0.60717000718E+03  0.00000000000E+00 0. -1.
        -14    1    4    4    0    0  0.46765823332E+01  0.61311719270E+01 -0.79059441061E+01  0.11043805672E+02  0.00000000000E+00 0.  1.
</event>
<event>
12    1  0.8449700E-002  0.2261578E+03  0.7818608E-02  0.1129397E+00
         21   -1    0    0  501  502  0.00000000000E+00  0.00000000000E+00  0.67133597600E+02  0.67133597600E+02  0.00000000000E+00 0.  1.
         21   -1    0    0  502  503 -0.00000000000E+00 -0.00000000000E+00 -0.10223267504E+04  0.10223267504E+04  0.00000000000E+00 0.  1.
         -6    2    1    2    0  503 -0.15327061143E+02 -0.14527767186E+03 -0.75267243416E+03  0.78587842058E+03  0.17247776102E+03 0.  0.
        -24    2    3    3    0    0 -0.45348178984E+02 -0.50260737713E+02 -0.55157350959E+03  0.56139600979E+03  0.79684027477E+02 0.  0.
          6    2    1    2  501    0  0.15327061143E+02  0.14527767186E+03 -0.20252071864E+03  0.30358192742E+03  0.17264653032E+03 0.  0.
         24    2    5    5    0    0  0.25985640943E+02  0.37092312471E+02 -0.22947322354E+02  0.93614377632E+02  0.78650994378E+02 0.  0.
          5    1    5    5  501    0 -0.10658579800E+02  0.10818535939E+03 -0.17957339629E+03  0.20996754979E+03  0.47000000000E+01 0. -1.
        -11    1    6    6    0    0 -0.37227122355E+01  0.26924082947E+02  0.24583219140E+02  0.36648321819E+02  0.00000000000E+00 0.  1.
         12    1    6    6    0    0  0.29708353178E+02  0.10168229524E+02 -0.47530541493E+02  0.56966055813E+02  0.00000000000E+00 0. -1.
         -5    1    3    3    0  503  0.30021117841E+02 -0.95016934149E+02 -0.20109892458E+03  0.22448241080E+03  0.47000000000E+01 0.  1.
         13    1    4    4    0    0 -0.38464973508E+02 -0.41483300456E+02 -0.16076406479E+03  0.17042741250E+03  0.00000000000E+00 0. -1.
        -14    1    4    4    0    0 -0.68832054765E+01 -0.87774372564E+01 -0.39080944480E+03  0.39096859729E+03  0.00000000000E+00 0.  1.
</event>
<event>
12    1  0.8449700E-002  0.2211542E+03  0.7818608E-02  0.1133154E+00
         21   -1    0    0  501  502  0.00000000000E+00  0.00000000000E+00  0.16421681053E+04  0.16421681053E+04  0.00000000000E+00 0. -1.
         21   -1    0    0  502  503 -0.00000000000E+00 -0.00000000000E+00 -0.56216049591E+02  0.56216049591E+02  0.00000000000E+00 0. -1.
         -6    2    1    2    0  503  0.12943801468E+03  0.48356430514E+02  0.20898842616E+03  0.30377381625E+03  0.17178424013E+03 0.  0.
        -24    2    3    3    0    0  0.11969098704E+03  0.20985776764E+02  0.22395140639E+03  0.27075657815E+03  0.91589065835E+02 0.  0.
          6    2    1    2  501    0 -0.12943801468E+03 -0.48356430514E+02  0.13769636296E+04  0.13946103387E+04  0.17267488382E+03 0.  0.
         24    2    5    5    0    0  0.64596947709E+01 -0.24556114535E+02  0.44556748297E+03  0.45303956894E+03  0.77908527953E+02 0.  0.
          5    1    5    5  501    0 -0.13589770945E+03 -0.23800315979E+02  0.93139614662E+03  0.94157076973E+03  0.47000000000E+01 0. -1.
        -11    1    6    6    0    0  0.15798883262E+02 -0.44272005654E+02  0.16331670985E+03  0.16994694147E+03  0.00000000000E+00 0.  1.
         12    1    6    6    0    0 -0.93391884913E+01  0.19715891119E+02  0.28225077312E+03  0.28309262747E+03  0.00000000000E+00 0. -1.
         -5    1    3    3    0  503  0.97470276475E+01  0.27370653751E+02 -0.14962980237E+02  0.33017238108E+02  0.47000000000E+01 0.  1.
         13    1    4    4    0    0  0.97949552196E+02 -0.21875152524E+02  0.17754742309E+03  0.20395029914E+03  0.00000000000E+00 0. -1.
        -14    1    4    4    0    0  0.21741434840E+02  0.42860929288E+02  0.46403983298E+02  0.66806279003E+02  0.00000000000E+00 0.  1.
</event>
<event>
12    1  0.8449700E-002  0.1874635E+03  0.7818608E-02  0.1160926E+00
         21   -1    0    0  503  502  0.00000000000E+00  0.00000000000E+00  0.13396961214E+03  0.13396961214E+03  0.00000000000E+00 0.  1.
         21   -1    0    0  501  503 -0.00000000000E+00 -0.00000000000E+00 -0.27520016723E+03  0.27520016723E+03  0.00000000000E+00 0.  1.
          6    2    1    2  501    0 -0.70985314860E+02  0.11791232238E+02 -0.11661232333E+03  0.22077361879E+03  0.17310288478E+03 0.  0.
         24    2    3    3    0    0 -0.14781549947E+02  0.26151175787E+02  0.52922368560E+01  0.85688893659E+02  0.80076216892E+02 0.  0.
         -6    2    1    2    0  502  0.70985314860E+02 -0.11791232238E+02 -0.24618231754E+02  0.18839616057E+03  0.17236330207E+03 0.  0.
        -24    2    5    5    0    0 -0.23447468736E+02  0.17963915906E+02  0.19758737211E+01  0.85769380904E+02  0.80498425816E+02 0.  0.
          5    1    3    3  501    0 -0.56203764913E+02 -0.14359943548E+02 -0.12190456019E+03  0.13508472513E+03  0.47000000000E+01 0. -1.
        -11    1    4    4    0    0 -0.31383196620E+02  0.39355042326E+00 -0.26832506373E+02  0.41292170085E+02  0.00000000000E+00 0.  1.
         12    1    4    4    0    0  0.16601646673E+02  0.25757625363E+02  0.32124743229E+02  0.44396723575E+02  0.00000000000E+00 0. -1.
         -5    1    5    5    0  502  0.94432783596E+02 -0.29755148145E+02 -0.26594105475E+02  0.10262677967E+03  0.47000000000E+01 0.  1.
         13    1    6    6    0    0 -0.17492239208E+02 -0.14917482028E+02 -0.31151150102E+02  0.38715679708E+02  0.00000000000E+00 0. -1.
        -14    1    6    6    0    0 -0.59552295278E+01  0.32881397934E+02  0.33127023823E+02  0.47053701196E+02  0.00000000000E+00 0.  1.
</event>
<event>
12    1  0.8449700E-002  0.1723544E+03  0.7818608E-02  0.1181630E+00
         21   -1    0    0  503  502  0.00000000000E+00  0.00000000000E+00  0.31528775494E+03  0.31528775494E+03  0.00000000000E+00 0. -1.
         21   -1    0    0  501  503 -0.00000000000E+00 -0.00000000000E+00 -0.94516546823E+02  0.94516546823E+02  0.00000000000E+00 0. -1.
          6    2    1    2  501    0 -0.67320964090E+01  0.54845950929E+00  0.30172279581E+02  0.15283351401E+03  0.14967329294E+03 0.  0.
         24    2    3    3    0    0  0.35406549163E+02 -0.26402937601E+02 -0.59449964528E+01  0.90957905847E+02  0.79292236793E+02 0.  0.
         -6    2    1    2    0  502  0.67320964090E+01 -0.54845950929E+00  0.19059892854E+03  0.25697078776E+03  0.17222198545E+03 0.  0.
        -24    2    5    5    0    0 -0.17764488598E+02  0.56639824249E+02  0.76276379466E+02  0.12673132484E+03  0.81970091402E+02 0.  0.
          5    1    3    3  501    0 -0.42138645572E+02  0.26951397111E+02  0.36117276034E+02  0.61875608158E+02  0.47000000000E+01 0. -1.
        -13    1    4    4    0    0 -0.11361213257E+02  0.20910966966E+02 -0.55191926105E+01  0.24429637598E+02  0.00000000000E+00 0.  1.
         14    1    4    4    0    0  0.46767762421E+02 -0.47313904567E+02 -0.42580384229E+00  0.66528268248E+02  0.00000000000E+00 0. -1.
         -5    1    5    5    0  502  0.24496585007E+02 -0.57188283758E+02  0.11432254907E+03  0.13023946292E+03  0.47000000000E+01 0.  1.
         13    1    6    6    0    0  0.32710240487E+02  0.27150405403E+02  0.36435983056E+02  0.55988259550E+02  0.00000000000E+00 0. -1.
        -14    1    6    6    0    0 -0.50474729085E+02  0.29489418846E+02  0.39840396410E+02  0.70743065287E+02  0.00000000000E+00 0.  1.
</event>
<event>
12    1  0.8449700E-002  0.2110818E+03  0.7818608E-02  0.1142808E+00
         21   -1    0    0  503  502  0.00000000000E+00  0.00000000000E+00  0.15260922861E+03  0.15260922861E+03  0.00000000000E+00 0.  1.
         21   -1    0    0  501  503 -0.00000000000E+00 -0.00000000000E+00 -0.29319437767E+03  0.29319437767E+03  0.00000000000E+00 0.  1.
          6    2    1    2  501    0  0.86630253348E+02  0.54918676989E+02 -0.12305264370E+03  0.24433071293E+03  0.18448491071E+03 0.  0.
         24    2    3    3    0    0  0.27025035545E+01 -0.23491978185E+02 -0.11915726250E+02  0.84438241400E+02  0.80178896938E+02 0.  0.
         -6    2    1    2    0  502 -0.86630253348E+02 -0.54918676989E+02 -0.17532505362E+02  0.20147289336E+03  0.17251978477E+03 0.  0.
        -24    2    5    5    0    0 -0.73179158721E+02 -0.89780451271E+02 -0.51369323219E+02  0.15084389479E+03  0.81849584772E+02 0.  0.
          5    1    3    3  501    0  0.83927749794E+02  0.78410655174E+02 -0.11113691745E+03  0.15989247153E+03  0.47000000000E+01 0. -1.
        -11    1    4    4    0    0  0.31514009239E+02 -0.39578399370E+02 -0.68728275406E+01  0.51057009641E+02  0.00000000000E+00 0.  1.
         12    1    4    4    0    0 -0.28811505685E+02  0.16086421185E+02 -0.50428987090E+01  0.33381231759E+02  0.00000000000E+00 0. -1.
         -5    1    5    5    0  502 -0.13451094627E+02  0.34861774282E+02  0.33836817857E+02  0.50628998562E+02  0.47000000000E+01 0.  1.
         13    1    6    6    0    0  0.71935022180E+01 -0.18390896409E+02  0.14740657581E+02  0.24642616151E+02  0.00000000000E+00 0. -1.
        -14    1    6    6    0    0 -0.80372660939E+02 -0.71389554862E+02 -0.66109980800E+02  0.12620127864E+03  0.00000000000E+00 0.  1.
</event>
<event>
12    1  0.8449700E-002  0.1731224E+03  0.7818608E-02  0.1174959E+00
         21   -1    0    0  503  502  0.00000000000E+00  0.00000000000E+00  0.81555916657E+02  0.81555916657E+02  0.00000000000E+00 0.  1.
         21   -1    0    0  501  503 -0.00000000000E+00 -0.00000000000E+00 -0.46200260145E+03  0.46200260145E+03  0.00000000000E+00 0.  1.
          6    2    1    2  501    0  0.12574777230E+02  0.24192272627E+02 -0.31434319210E+03  0.35824517495E+03  0.16966016584E+03 0.  0.
         24    2    3    3    0    0  0.51697845445E+02  0.47730725848E+02 -0.13062174496E+03  0.16887692685E+03  0.80662796583E+02 0.  0.
         -6    2    1    2    0  502 -0.12574777230E+02 -0.24192272627E+02 -0.66103492691E+02  0.18531334316E+03  0.17096190316E+03 0.  0.
        -24    2    5    5    0    0 -0.36635479077E+02  0.43961485804E+02 -0.22849419572E+02  0.10095187682E+03  0.79965085492E+02 0.  0.
          5    1    3    3  501    0 -0.39123068215E+02 -0.23538453222E+02 -0.18372144714E+03  0.18936824809E+03  0.47000000000E+01 0. -1.
        -11    1    4    4    0    0  0.10776000521E+02  0.19140802472E+02 -0.11424802558E+03  0.11634046526E+03  0.00000000000E+00 0.  1.
         12    1    4    4    0    0  0.40921844924E+02  0.28589923376E+02 -0.16373719378E+02  0.52536461595E+02  0.00000000000E+00 0. -1.
         -5    1    5    5    0  502  0.24060701847E+02 -0.68153758431E+02 -0.43254073119E+02  0.84361466340E+02  0.47000000000E+01 0.  1.
         11    1    6    6    0    0  0.23950783172E+02  0.24707123499E+02 -0.12108203261E+02  0.36478631449E+02  0.00000000000E+00 0. -1.
        -12    1    6    6    0    0 -0.60586262249E+02  0.19254362305E+02 -0.10741216310E+02  0.64473245373E+02  0.00000000000E+00 0.  1.
</event>
<event>
12    1  0.8449700E-002  0.1732996E+03  0.7818608E-02  0.1174534E+00
         21   -1    0    0  503  502  0.00000000000E+00  0.00000000000E+00  0.18294283001E+03  0.18294283001E+03  0.00000000000E+00 0.  1.
         21   -1    0    0  501  503 -0.00000000000E+00 -0.00000000000E+00 -0.29917496385E+03  0.29917496385E+03  0.00000000000E+00 0.  1.
          6    2    1    2  501    0 -0.72998300236E+01 -0.24573556647E+02 -0.22026981257E+03  0.28027047022E+03  0.17139311230E+03 0.  0.
         24    2    3    3    0    0  0.30863315651E+02 -0.33134704450E+02 -0.47271610292E+02  0.10284390251E+03  0.79320931991E+02 0.  0.
         -6    2    1    2    0  502  0.72998300236E+01  0.24573556647E+02  0.10403767873E+03  0.20184732364E+03  0.17105951088E+03 0.  0.
        -24    2    5    5    0    0  0.91537082467E+01 -0.51506089417E+02  0.42631456794E+02  0.10394756112E+03  0.79063181904E+02 0.  0.
          5    1    3    3  501    0 -0.38163145674E+02  0.85611478035E+01 -0.17299820227E+03  0.17742656771E+03  0.47000000000E+01 0. -1.
        -13    1    4    4    0    0 -0.57581792928E+01  0.31356970371E+01 -0.50761260630E+02  0.51182954247E+02  0.00000000000E+00 0.  1.
         14    1    4    4    0    0  0.36621494944E+02 -0.36270401487E+02  0.34896503382E+01  0.51660948263E+02  0.00000000000E+00 0. -1.
         -5    1    5    5    0  502 -0.18538782231E+01  0.76079646064E+02  0.61406221933E+02  0.97899762521E+02  0.47000000000E+01 0.  1.
         11    1    6    6    0    0 -0.88618187437E+01  0.20756953794E+01 -0.18541349598E+02  0.20654829645E+02  0.00000000000E+00 0. -1.
        -12    1    6    6    0    0  0.18015526990E+02 -0.53581784796E+02  0.61172806392E+02  0.83292731475E+02  0.00000000000E+00 0.  1.
</event>
<event>
12    1  0.8449700E-002  0.2035764E+03  0.7818608E-02  0.1146799E+00
         21   -1    0    0  501  502  0.00000000000E+00  0.00000000000E+00  0.12894679825E+04  0.12894679825E+04  0.00000000000E+00 0. -1.
         21   -1    0    0  502  503 -0.00000000000E+00 -0.00000000000E+00 -0.46187308202E+02  0.46187308202E+02  0.00000000000E+00 0.  1.
         -6    2    1    2    0  503 -0.10882310421E+03 -0.89278305968E+01  0.25269748284E+03  0.32436976100E+03  0.17157374464E+03 0.  0.
        -24    2    3    3    0    0 -0.35896762826E+02  0.49531875698E+02  0.17803941690E+03  0.20465466029E+03  0.80271487574E+02 0.  0.
          6    2    1    2  501    0  0.10882310421E+03  0.89278305968E+01  0.99058319145E+03  0.10112855297E+04  0.17181731347E+03 0.  0.
         24    2    5    5    0    0  0.11314112835E+03  0.52784025643E+02  0.59574634391E+03  0.61396923585E+03  0.80358247861E+02 0.  0.
          5    1    5    5  501    0 -0.43180241382E+01 -0.43856195046E+02  0.39483684754E+03  0.39731629384E+03  0.47000000000E+01 0. -1.
        -13    1    6    6    0    0  0.34364979403E+01 -0.81668526989E+01  0.16694345324E+03  0.16717841841E+03  0.00000000000E+00 0.  1.
         14    1    6    6    0    0  0.10970463041E+03  0.60950878342E+02  0.42880289067E+03  0.44679081744E+03  0.00000000000E+00 0. -1.
         -5    1    3    3    0  503 -0.72926341388E+02 -0.58459706295E+02  0.74658065936E+02  0.11971510071E+03  0.47000000000E+01 0.  1.
         11    1    4    4    0    0  0.21052532106E+00 -0.21332240889E+02  0.40527514144E+02  0.45799434766E+02  0.00000000000E+00 0. -1.
        -12    1    4    4    0    0 -0.36107288147E+02  0.70864116587E+02  0.13751190276E+03  0.15885522553E+03  0.00000000000E+00 0.  1.
</event>
<event>
12    1  0.8449700E-002  0.1761437E+03  0.7818608E-02  0.1172114E+00
         21   -1    0    0  503  502  0.00000000000E+00  0.00000000000E+00  0.73574883541E+02  0.73574883541E+02  0.00000000000E+00 0.  1.
         21   -1    0    0  501  503 -0.00000000000E+00 -0.00000000000E+00 -0.47474807998E+03  0.47474807998E+03  0.00000000000E+00 0.  1.
          6    2    1    2  501    0 -0.52655482907E+01 -0.28781688811E+02 -0.29540330662E+03  0.34286284285E+03  0.17156836491E+03 0.  0.
         24    2    3    3    0    0 -0.51741557339E+02  0.22997817238E+02 -0.21697592109E+03  0.23791484875E+03  0.79491110018E+02 0.  0.
         -6    2    1    2    0  502  0.52655482907E+01  0.28781688811E+02 -0.10576988982E+03  0.20546012067E+03  0.17369651690E+03 0.  0.
        -24    2    5    5    0    0  0.20009313705E+02 -0.95515116067E+01 -0.13260868323E+03  0.15617296509E+03  0.79456454428E+02 0.  0.
          5    1    3    3  501    0  0.46476009048E+02 -0.51779506049E+02 -0.78427385533E+02  0.10494799410E+03  0.47000000000E+01 0. -1.
        -13    1    4    4    0    0 -0.86982643611E+01  0.36224665800E+02 -0.16496556645E+03  0.16911985197E+03  0.00000000000E+00 0.  1.
         14    1    4    4    0    0 -0.43043292978E+02 -0.13226848562E+02 -0.52010354636E+02  0.68794996785E+02  0.00000000000E+00 0. -1.
         -5    1    5    5    0  502 -0.14743765415E+02  0.38333200418E+02  0.26838793409E+02  0.49287155574E+02  0.47000000000E+01 0.  1.
         11    1    6    6    0    0 -0.15445661054E+02 -0.68594073071E+01  0.19344308499E+01  0.17010641866E+02  0.00000000000E+00 0. -1.
        -12    1    6    6    0    0  0.35454974759E+02 -0.26921042996E+01 -0.13454311408E+03  0.13916232323E+03  0.00000000000E+00 0.  1.
</event>
<event>
12    1  0.8449700E-002  0.1840431E+03  0.7818608E-02  0.1165446E+00
         21   -1    0    0  503  502  0.00000000000E+00  0.00000000000E+00  0.15680611771E+04  0.15680611771E+04  0.00000000000E+00 0. -1.
         21   -1    0    0  501  503 -0.00000000000E+00 -0.00000000000E+00 -0.35821008976E+02  0.35821008976E+02  0.00000000000E+00 0. -1.
          6    2    1    2  501    0  0.25245531321E+02  0.55329433102E+02  0.25583913644E+03  0.31515952761E+03  0.17370429210E+03 0.  0.
         24    2    3    3    0    0 -0.13602482977E+02 -0.16653657906E+02  0.69078877690E+02  0.11121782552E+03  0.84469766813E+02 0.  0.
         -6    2    1    2    0  502 -0.25245531321E+02 -0.55329433102E+02  0.12764010317E+04  0.12887226585E+04  0.16705631901E+03 0.  0.
        -24    2    5    5    0    0 -0.78602411616E+02 -0.22826612022E+02  0.85321899826E+03  0.86092771521E+03  0.80712319401E+02 0.  0.
          5    1    3    3  501    0  0.38848014298E+02  0.71983091009E+02  0.18676025875E+03  0.20394170209E+03  0.47000000000E+01 0. -1.
        -13    1    4    4    0    0 -0.46378529504E+02 -0.16768064313E+02  0.59063252283E+02  0.76945459580E+02  0.00000000000E+00 0.  1.
         14    1    4    4    0    0  0.32776046527E+02  0.11440640645E+00  0.10015625407E+02  0.34272365939E+02  0.00000000000E+00 0. -1.
         -5    1    5    5    0  502  0.53356880295E+02 -0.32502821080E+02  0.42318203342E+03  0.42779494324E+03  0.47000000000E+01 0.  1.
         11    1    6    6    0    0 -0.59086478799E+02 -0.31811708868E+02  0.80886666242E+03  0.81164553493E+03  0.00000000000E+00 0. -1.
        -12    1    6    6    0    0 -0.19515932817E+02  0.89850968458E+01  0.44352335843E+02  0.49282180286E+02  0.00000000000E+00 0.  1.
</event>
<event>
12    1  0.8449700E-002  0.2032134E+03  0.7818608E-02  0.1147183E+00
         21   -1    0    0  503  502  0.00000000000E+00  0.00000000000E+00  0.98638808840E+03  0.98638808840E+03  0.00000000000E+00 0.  1.
         21   -1    0    0  501  503 -0.00000000000E+00 -0.00000000000E+00 -0.16008598132E+03  0.16008598132E+03  0.00000000000E+00 0.  1.
          6    2    1    2  501    0 -0.60375858055E+02  0.88905499336E+02 -0.79887423053E+02  0.21777865912E+03  0.17174432148E+03 0.  0.
         24    2    3    3    0    0  0.33049503298E+02  0.35513498613E+02 -0.35425693254E+02  0.10125424408E+03  0.81510514349E+02 0.  0.
         -6    2    1    2    0  502  0.60375858055E+02 -0.88905499336E+02  0.90618953013E+03  0.92869541060E+03  0.17247106741E+03 0.  0.
        -24    2    5    5    0    0 -0.25504267824E+01 -0.97309511982E+02  0.32986163011E+03  0.34886243197E+03  0.58486371285E+02 0.  0.
          5    1    3    3  501    0 -0.93425361353E+02  0.53392000723E+02 -0.44461729799E+02  0.11652441505E+03  0.47000000000E+01 0. -1.
        -13    1    4    4    0    0  0.28698301429E+01 -0.10339681870E+01 -0.51207525659E+02  0.51298301135E+02  0.00000000000E+00 0.  1.
         14    1    4    4    0    0  0.30179673155E+02  0.36547466800E+02  0.15781832405E+02  0.49955942943E+02  0.00000000000E+00 0. -1.
         -5    1    5    5    0  502  0.62926284837E+02  0.84040126463E+01  0.57632790003E+03  0.57983297862E+03  0.47000000000E+01 0.  1.
         11    1    6    6    0    0  0.27721218138E+02 -0.39251799057E+02  0.14374864463E+03  0.15156794680E+03  0.00000000000E+00 0. -1.
        -12    1    6    6    0    0 -0.30271644921E+02 -0.58057712926E+02  0.18611298547E+03  0.19729448517E+03  0.00000000000E+00 0.  1.
</event>
<event>
12    1  0.8449700E-002  0.2463595E+03  0.7818608E-02  0.1115628E+00
         21   -1    0    0  501  502  0.00000000000E+00  0.00000000000E+00  0.35281444449E+03  0.35281444449E+03  0.00000000000E+00 0.  1.
         21   -1    0    0  502  503 -0.00000000000E+00 -0.00000000000E+00 -0.21964376570E+03  0.21964376570E+03  0.00000000000E+00 0.  1.
         -6    2    1    2    0  503 -0.98722348158E+01 -0.17612480705E+03  0.19985987553E+03  0.31723189262E+03  0.17197294895E+03 0.  0.
        -24    2    3    3    0    0 -0.53473782522E+02 -0.14982178546E+03  0.19250550640E+03  0.26556835952E+03  0.90344732923E+02 0.  0.
          6    2    1    2  501    0  0.98722348158E+01  0.17612480705E+03 -0.66689196740E+02  0.25522631757E+03  0.17197562485E+03 0.  0.
         24    2    5    5    0    0  0.68993788596E+02  0.70431614107E+02 -0.38858277446E+02  0.13087576782E+03  0.76796782126E+02 0.  0.
          5    1    5    5  501    0 -0.59121553781E+02  0.10569319294E+03 -0.27830919294E+02  0.12435054976E+03  0.47000000000E+01 0. -1.
        -11    1    6    6    0    0  0.20016229040E+02 -0.69211375123E+01 -0.32899953079E+02  0.39127464549E+02  0.00000000000E+00 0.  1.
         12    1    6    6    0    0  0.48977559557E+02  0.77352751619E+02 -0.59583243666E+01  0.91748303268E+02  0.00000000000E+00 0. -1.
         -5    1    3    3    0  503  0.43601547706E+02 -0.26303021590E+02  0.73543691272E+01  0.51663533100E+02  0.47000000000E+01 0.  1.
         11    1    4    4    0    0 -0.92040944268E+01 -0.47638621709E+01  0.69571839142E+02  0.70339537521E+02  0.00000000000E+00 0. -1.
        -12    1    4    4    0    0 -0.44269688095E+02 -0.14505792329E+03  0.12293366726E+03  0.19522882200E+03  0.00000000000E+00 0.  1.
</event>
<event>
12    1  0.8449700E-002  0.1879720E+03  0.7818608E-02  0.1161253E+00
         21   -1    0    0  501  502  0.00000000000E+00  0.00000000000E+00  0.19435751908E+03  0.19435751908E+03  0.00000000000E+00 0. -1.
         21   -1    0    0  502  503 -0.00000000000E+00 -0.00000000000E+00 -0.18328503147E+03  0.18328503147E+03  0.00000000000E+00 0. -1.
         -6    2    1    2    0  503  0.31239584681E+02  0.69057283274E+02 -0.27039291006E+02  0.18584580719E+03  0.16751931461E+03 0.  0.
        -24    2    3    3    0    0 -0.17441123817E+02 -0.15500764637E+02 -0.24674440626E+02  0.88134204176E+02  0.81328613791E+02 0.  0.
          6    2    1    2  501    0 -0.31239584681E+02 -0.69057283274E+02  0.38111778612E+02  0.19179674336E+03  0.17201355490E+03 0.  0.
         24    2    5    5    0    0 -0.71790462637E+02 -0.25647063669E+02  0.63770479547E+02  0.12691778065E+03  0.78929123787E+02 0.  0.
          5    1    5    5  501    0  0.40550877956E+02 -0.43410219605E+02 -0.25658700936E+02  0.64878962714E+02  0.47000000000E+01 0. -1.
        -11    1    6    6    0    0 -0.60992570033E+02 -0.22395226656E+01  0.32316485752E+01  0.61119167317E+02  0.00000000000E+00 0.  1.
         12    1    6    6    0    0 -0.10797892605E+02 -0.23407541004E+02  0.60538830972E+02  0.65798613329E+02  0.00000000000E+00 0. -1.
         -5    1    3    3    0  503  0.48680708498E+02  0.84558047911E+02 -0.23648503800E+01  0.97711603015E+02  0.47000000000E+01 0.  1.
         11    1    4    4    0    0  0.17363669482E+01  0.24086800745E+02 -0.35404474528E+02  0.42856338585E+02  0.00000000000E+00 0. -1.
        -12    1    4    4    0    0 -0.19177490765E+02 -0.39587565382E+02  0.10730033902E+02  0.45277865591E+02  0.00000000000E+00 0.  1.
</event>
<event>
12    1  0.8449700E-002  0.2313437E+03  0.7818608E-02  0.1125787E+00
         21   -1    0    0  503  502  0.00000000000E+00  0.00000000000E+00  0.18509059243E+04  0.18509059243E+04  0.00000000000E+00 0. -1.
         21   -1    0    0  501  503 -0.00000000000E+00 -0.00000000000E+00 -0.50892267559E+02  0.50892267559E+02  0.00000000000E+00 0. -1.
          6    2    1    2  501    0  0.15061749171E+03  0.33113783142E+02  0.27479178604E+03  0.35920803547E+03  0.17244632681E+03 0.  0.
         24    2    3    3    0    0  0.38532739744E+02 -0.40104540672E+02  0.11828911013E+03  0.15320053043E+03  0.79905836677E+02 0.  0.
         -6    2    1    2    0  502 -0.15061749171E+03 -0.33113783142E+02  0.15252218707E+04  0.15425901564E+04  0.17175705014E+03 0.  0.
        -24    2    5    5    0    0 -0.12325059141E+03 -0.62844948190E+01  0.64450798652E+03  0.66103029243E+03  0.79625998699E+02 0.  0.
          5    1    3    3  501    0  0.11208475196E+03  0.73218323814E+02  0.15650267591E+03  0.20600750504E+03  0.47000000000E+01 0. -1.
        -11    1    4    4    0    0  0.44855727179E+02 -0.56640926244E+02  0.65499659955E+02  0.97521465539E+02  0.00000000000E+00 0.  1.
         12    1    4    4    0    0 -0.63229874355E+01  0.16536385572E+02  0.52789450170E+02  0.55679064891E+02  0.00000000000E+00 0. -1.
         -5    1    5    5    0  502 -0.27366900295E+02 -0.26829288323E+02  0.88071388415E+03  0.88155986393E+03  0.47000000000E+01 0.  1.
         11    1    6    6    0    0 -0.11981698772E+03 -0.93956108798E+01  0.64524157497E+03  0.65633914870E+03  0.00000000000E+00 0. -1.
        -12    1    6    6    0    0 -0.34336036936E+01  0.31111160608E+01 -0.73358845254E+00  0.46911437290E+01  0.00000000000E+00 0.  1.
</event>
<event>
12    1  0.8449700E-002  0.2193216E+03  0.7818608E-02  0.1134555E+00
         21   -1    0    0  503  502  0.00000000000E+00  0.00000000000E+00  0.11201416624E+04  0.11201416624E+04  0.00000000000E+00 0.  1.
         21   -1    0    0  501  503 -0.00000000000E+00 -0.00000000000E+00 -0.13606096612E+03  0.13606096612E+03  0.00000000000E+00 0. -1.
          6    2    1    2  501    0 -0.11648055133E+03 -0.69958544723E+02 -0.27742315279E+02  0.22106925018E+03  0.17216288944E+03 0.  0.
         24    2    3    3    0    0 -0.46870325442E+02 -0.18100488138E+01 -0.69608610796E+02  0.11493406401E+03  0.78513544623E+02 0.  0.
         -6    2    1    2    0  502  0.11648055133E+03  0.69958544723E+02  0.10118230116E+04  0.10351333784E+04  0.17103621668E+03 0.  0.
        -24    2    5    5    0    0  0.44454781393E+02  0.12356454196E+02  0.24781655568E+03  0.26556618375E+03  0.83566997864E+02 0.  0.
          5    1    3    3  501    0 -0.69610225885E+02 -0.68148495909E+02  0.41866295518E+02  0.10613518617E+03  0.47000000000E+01 0. -1.
        -11    1    4    4    0    0 -0.18162390921E+02  0.38113822950E+02 -0.34297485936E+02  0.54395344335E+02  0.00000000000E+00 0.  1.
         12    1    4    4    0    0 -0.28707934521E+02 -0.39923871764E+02 -0.35311124860E+02  0.60538719675E+02  0.00000000000E+00 0. -1.
         -5    1    5    5    0  502  0.72025769934E+02  0.57602090527E+02  0.76400645592E+03  0.76956719463E+03  0.47000000000E+01 0.  1.
         11    1    6    6    0    0 -0.39593740608E+01  0.39636421757E+02  0.10789853338E+03  0.11501659045E+03  0.00000000000E+00 0. -1.
        -12    1    6    6    0    0  0.48414155454E+02 -0.27279967561E+02  0.13991802230E+03  0.15054959330E+03  0.00000000000E+00 0.  1.
</event>
<event>
12    1  0.8449700E-002  0.1861858E+03  0.7818608E-02  0.1162221E+00
         21   -1    0    0  503  502  0.00000000000E+00  0.00000000000E+00  0.46172366225E+02  0.46172366225E+02  0.00000000000E+00 0. -1.
         21   -1    0    0  501  503 -0.00000000000E+00 -0.00000000000E+00 -0.77630662681E+03  0.77630662681E+03  0.00000000000E+00 0. -1.
          6    2    1    2  501    0  0.44052390249E+02 -0.51719246426E+02 -0.44515678732E+03  0.48207139831E+03  0.17208362569E+03 0.  0.
         24    2    3    3    0    0 -0.15727946584E+02 -0.14212027200E+02 -0.92194907449E+02  0.12209270615E+03  0.77184052198E+02 0.  0.
         -6    2    1    2    0  502 -0.44052390249E+02  0.51719246426E+02 -0.28497747326E+03  0.34040759473E+03  0.17334842585E+03 0.  0.
        -24    2    5    5    0    0 -0.34743873467E+02  0.92718120998E+02 -0.13908569641E+03  0.18850612418E+03  0.79912084214E+02 0.  0.
          5    1    3    3  501    0  0.59780336833E+02 -0.37507219227E+02 -0.35296187987E+03  0.35997869216E+03  0.47000000000E+01 0. -1.
        -13    1    4    4    0    0  0.13909037196E+01  0.31255914632E+02 -0.40055264232E+02  0.50826085875E+02  0.00000000000E+00 0.  1.
         14    1    4    4    0    0 -0.17118850303E+02 -0.45467941832E+02 -0.52139643217E+02  0.71266620271E+02  0.00000000000E+00 0. -1.
         -5    1    5    5    0  502 -0.93085167819E+01 -0.40998874571E+02 -0.14589177685E+03  0.15190147054E+03  0.47000000000E+01 0.  1.
         13    1    6    6    0    0  0.12210546477E+02  0.71470678082E+01  0.45345674668E+01  0.14857332386E+02  0.00000000000E+00 0. -1.
        -14    1    6    6    0    0 -0.46954419944E+02  0.85571053189E+02 -0.14362026388E+03  0.17364879180E+03  0.00000000000E+00 0.  1.
</event>
<event>
12    1  0.8449700E-002  0.1738869E+03  0.7818608E-02  0.1174441E+00
         21   -1    0    0  501  502  0.00000000000E+00  0.00000000000E+00  0.10600593862E+03  0.10600593862E+03  0.00000000000E+00 0. -1.
         21   -1    0    0  502  503 -0.00000000000E+00 -0.00000000000E+00 -0.31581666468E+03  0.31581666468E+03  0.00000000000E+00 0. -1.
         -6    2    1    2    0  503  0.10092915319E+02 -0.24128735129E+02 -0.17508339203E+03  0.24676073360E+03  0.17190870451E+03 0.  0.
        -24    2    3    3    0    0  0.53479549343E+02 -0.58555158313E+02 -0.13795779295E+03  0.17991779283E+03  0.83960054643E+02 0.  0.
          6    2    1    2  501    0 -0.10092915319E+02  0.24128735129E+02 -0.34727334027E+02  0.17506186970E+03  0.16957773349E+03 0.  0.
         24    2    5    5    0    0 -0.29344338897E+02 -0.27927429378E+02  0.21141055463E+02  0.96170624828E+02  0.84621588952E+02 0.  0.
          5    1    5    5  501    0  0.19251423578E+02  0.52056164507E+02 -0.55868389489E+02  0.78891244869E+02  0.47000000000E+01 0. -1.
        -11    1    6    6    0    0 -0.26500455643E+02 -0.14335592622E+02 -0.30394346230E+02  0.42797192055E+02  0.00000000000E+00 0.  1.
         12    1    6    6    0    0 -0.28438832542E+01 -0.13591836756E+02  0.51535401692E+02  0.53373432773E+02  0.00000000000E+00 0. -1.
         -5    1    3    3    0  503 -0.43386634023E+02  0.34426423184E+02 -0.37125599076E+02  0.66842940778E+02  0.47000000000E+01 0.  1.
         13    1    4    4    0    0  0.69104400188E+02 -0.20991407179E+02 -0.10559957610E+03  0.12793485754E+03  0.00000000000E+00 0. -1.
        -14    1    4    4    0    0 -0.15624850845E+02 -0.37563751135E+02 -0.32358216856E+02  0.51982935290E+02  0.00000000000E+00 0.  1.
</event>
<event>
12    1  0.8449700E-002  0.2375836E+03  0.7818608E-02  0.1121659E+00
         21   -1    0    0  503  502  0.00000000000E+00  0.00000000000E+00  0.26820874404E+03  0.26820874404E+03  0.00000000000E+00 0.  1.
         21   -1    0    0  501  503 -0.00000000000E+00 -0.00000000000E+00 -0.37789818173E+03  0.37789818173E+03  0.00000000000E+00 0.  1.
          6    2    1    2  501    0  0.49152160071E+02 -0.15573655068E+03 -0.27080060689E+03  0.36024846871E+03  0.17255776558E+03 0.  0.
         24    2    3    3    0    0  0.33802891141E+02 -0.17440591932E+03 -0.17507490643E+03  0.26140695359E+03  0.78245206766E+02 0.  0.
         -6    2    1    2    0  502 -0.49152160071E+02  0.15573655068E+03  0.16111116920E+03  0.28585845707E+03  0.17055333647E+03 0.  0.
        -24    2    5    5    0    0  0.22341237882E+02  0.10485971751E+03  0.47829132598E+02  0.14248946488E+03  0.80752278063E+02 0.  0.
          5    1    3    3  501    0  0.15349268930E+02  0.18669368647E+02 -0.95725700457E+02  0.98841515115E+02  0.47000000000E+01 0. -1.
        -13    1    4    4    0    0  0.43681442979E+02 -0.39807201803E+02 -0.56325135722E+02  0.81640692613E+02  0.00000000000E+00 0.  1.
         14    1    4    4    0    0 -0.98785518379E+01 -0.13459871752E+03 -0.11874977071E+03  0.17976626098E+03  0.00000000000E+00 0. -1.
         -5    1    5    5    0  502 -0.71493397953E+02  0.50876833170E+02  0.11328203660E+03  0.14336899219E+03  0.47000000000E+01 0.  1.
         11    1    6    6    0    0  0.10849303744E+02  0.61745384975E+01 -0.19013245678E+02  0.22745017665E+02  0.00000000000E+00 0. -1.
        -12    1    6    6    0    0  0.11491934138E+02  0.98685179008E+02  0.66842378276E+02  0.11974444722E+03  0.00000000000E+00 0.  1.
</event>
<event>
12    1  0.8449700E-002  0.1740340E+03  0.7818608E-02  0.1174956E+00
         21   -1    0    0  503  502  0.00000000000E+00  0.00000000000E+00  0.48759105535E+02  0.48759105535E+02  0.00000000000E+00 0.  1.
         21   -1    0    0  501  503 -0.00000000000E+00 -0.00000000000E+00 -0.65312383356E+03  0.65312383356E+03  0.00000000000E+00 0.  1.
          6    2    1    2  501    0  0.81515327820E+01 -0.69501720291E+01 -0.40248414916E+03  0.43849892901E+03  0.17370396666E+03 0.  0.
         24    2    3    3    0    0 -0.55592034078E+02  0.13909777548E+02 -0.21070224980E+03  0.23527302825E+03  0.87601390342E+02 0.  0.
         -6    2    1    2    0  502 -0.81515327820E+01  0.69501720291E+01 -0.20188057886E+03  0.26338401009E+03  0.16882125539E+03 0.  0.
        -24    2    5    5    0    0  0.12063827142E+02  0.47059552713E+02 -0.19667093716E+03  0.21792354856E+03  0.80318603508E+02 0.  0.
          5    1    3    3  501    0  0.63743566860E+02 -0.20859949577E+02 -0.19178189937E+03  0.20322590075E+03  0.47000000000E+01 0. -1.
        -13    1    4    4    0    0 -0.77349366453E+02 -0.50800804610E+00 -0.17199234901E+03  0.18858565874E+03  0.00000000000E+00 0.  1.
         14    1    4    4    0    0  0.21757332375E+02  0.14417785594E+02 -0.38709900783E+02  0.46687369514E+02  0.00000000000E+00 0. -1.
         -5    1    5    5    0  502 -0.20215359924E+02 -0.40109380684E+02 -0.52096417094E+01  0.45460461529E+02  0.47000000000E+01 0.  1.
         11    1    6    6    0    0  0.32616164791E+02  0.36120609148E+02 -0.51346200583E+02  0.70745635379E+02  0.00000000000E+00 0. -1.
        -12    1    6    6    0    0 -0.20552337649E+02  0.10938943565E+02 -0.14532473657E+03  0.14717791318E+03  0.00000000000E+00 0.  1.
</event>
<event>
12    1  0.8449700E-002  0.1873469E+03  0.7818608E-02  0.1161112E+00
         21   -1    0    0  501  502  0.00000000000E+00  0.00000000000E+00  0.45735080783E+02  0.45735080783E+02  0.00000000000E+00 0. -1.
         21   -1    0    0  502  503 -0.00000000000E+00 -0.00000000000E+00 -0.94631010321E+03  0.94631010321E+03  0.00000000000E+00 0. -1.
         -6    2    1    2    0  503 -0.37394426291E+02 -0.60948746121E+02 -0.66943874950E+03  0.69515977118E+03  0.17316401287E+03 0.  0.
        -24    2    3    3    0    0 -0.82890003277E+02 -0.51683959033E+01 -0.41793508805E+03  0.43351597377E+03  0.79805367819E+02 0.  0.
          6    2    1    2  501    0  0.37394426291E+02  0.60948746121E+02 -0.23113627292E+03  0.29688541282E+03  0.17205777783E+03 0.  0.
         24    2    5    5    0    0  0.20794228616E+02  0.27027291381E+02 -0.24335139408E+03  0.25691628924E+03  0.74988027396E+02 0.  0.
          5    1    5    5  501    0  0.16600197675E+02  0.33921454740E+02  0.12215121158E+02  0.39969123576E+02  0.47000000000E+01 0. -1.
        -11    1    6    6    0    0 -0.61434893800E+01  0.45931871471E+02 -0.10617138489E+03  0.11584404278E+03  0.00000000000E+00 0.  1.
         12    1    6    6    0    0  0.26937717996E+02 -0.18904580089E+02 -0.13718000920E+03  0.14107224646E+03  0.00000000000E+00 0. -1.
         -5    1    3    3    0  503  0.45495576986E+02 -0.55780350218E+02 -0.25150366145E+03  0.26164379740E+03  0.47000000000E+01 0.  1.
         13    1    4    4    0    0 -0.37301153616E+02  0.18970332012E+02 -0.68335612131E+02  0.80131176473E+02  0.00000000000E+00 0. -1.
        -14    1    4    4    0    0 -0.45588849661E+02 -0.24138727915E+02 -0.34959947592E+03  0.35338479730E+03  0.00000000000E+00 0.  1.
</event>
<event>
12    1  0.8449700E-002  0.1957698E+03  0.7818608E-02  0.1153832E+00
         21   -1    0    0  503  502  0.00000000000E+00  0.00000000000E+00  0.15846177079E+04  0.15846177079E+04  0.00000000000E+00 0. -1.
         21   -1    0    0  501  503 -0.00000000000E+00 -0.00000000000E+00 -0.51529303912E+02  0.51529303912E+02  0.00000000000E+00 0. -1.
          6    2    1    2  501    0  0.92020117604E+02  0.16858416063E+02  0.16573432016E+03  0.25484943812E+03  0.16949472852E+03 0.  0.
         24    2    3    3    0    0  0.23913483986E+02  0.67155831449E+02  0.65780944607E+02  0.12377270174E+03  0.76881653258E+02 0.  0.
         -6    2    1    2    0  502 -0.92020117604E+02 -0.16858416063E+02  0.13673540839E+04  0.13812975737E+04  0.17197060296E+03 0.  0.
        -24    2    5    5    0    0 -0.27468987431E+02  0.44591580581E+02  0.49734435596E+03  0.50672226699E+03  0.81689002526E+02 0.  0.
          5    1    3    3  501    0  0.68106633618E+02 -0.50297415386E+02  0.99953375550E+02  0.13107673638E+03  0.47000000000E+01 0. -1.
        -11    1    4    4    0    0 -0.10993639207E+02  0.57854739798E+02  0.64901524718E+02  0.87636972397E+02  0.00000000000E+00 0.  1.
         12    1    4    4    0    0  0.34907123193E+02  0.93010916512E+01  0.87941988861E+00  0.36135729339E+02  0.00000000000E+00 0. -1.
         -5    1    5    5    0  502 -0.64551130173E+02 -0.61449996643E+02  0.87000972792E+03  0.87457530674E+03  0.47000000000E+01 0.  1.
         11    1    6    6    0    0 -0.31421385323E+02 -0.15378088578E+02  0.23446410015E+03  0.23705949322E+03  0.00000000000E+00 0. -1.
        -12    1    6    6    0    0  0.39523978925E+01  0.59969669159E+02  0.26288025581E+03  0.26966277378E+03  0.00000000000E+00 0.  1.
</event>
<event>
12    1  0.8449700E-002  0.1763294E+03  0.7818608E-02  0.1171525E+00
         21   -1    0    0  503  502  0.00000000000E+00  0.00000000000E+00  0.24308965247E+03  0.24308965247E+03  0.00000000000E+00 0. -1.
         21   -1    0    0  501  503 -0.00000000000E+00 -0.00000000000E+00 -0.12770897076E+03  0.12770897076E+03  0.00000000000E+00 0. -1.
          6    2    1    2  501    0 -0.33042114833E+02 -0.16613348577E+02  0.64292016720E+02  0.18768467355E+03  0.17240733328E+03 0.  0.
         24    2    3    3    0    0 -0.85398474148E+02 -0.11591896856E+02  0.45658834657E+02  0.13168745209E+03  0.88484938803E+02 0.  0.
         -6    2    1    2    0  502  0.33042114833E+02  0.16613348577E+02  0.51088664994E+02  0.18311394968E+03  0.17190951740E+03 0.  0.
        -24    2    5    5    0    0  0.43280022128E+02  0.11846590092E+02  0.98218015920E+02  0.13442306294E+03  0.80057973916E+02 0.  0.
          5    1    3    3  501    0  0.52356359315E+02 -0.50214517209E+01  0.18633182063E+02  0.55997221466E+02  0.47000000000E+01 0. -1.
        -11    1    4    4    0    0 -0.71518811133E+02 -0.22895667134E+02  0.69198059843E+02  0.10211524570E+03  0.00000000000E+00 0.  1.
         12    1    4    4    0    0 -0.13879663016E+02  0.11303770277E+02 -0.23539225185E+02  0.29572206381E+02  0.00000000000E+00 0. -1.
         -5    1    5    5    0  502 -0.10237907294E+02  0.47667584850E+01 -0.47129350926E+02  0.48690886734E+02  0.47000000000E+01 0.  1.
         11    1    6    6    0    0  0.65953045664E+02  0.10671965703E+02  0.85132774334E+02  0.10821868762E+03  0.00000000000E+00 0. -1.
        -12    1    6    6    0    0 -0.22673023536E+02  0.11746243894E+01  0.13085241587E+02  0.26204375324E+02  0.00000000000E+00 0.  1.
</event>
<event>
12    1  0.8449700E-002  0.1910809E+03  0.7818608E-02  0.1157513E+00
         21   -1    0    0  503  502  0.00000000000E+00  0.00000000000E+00  0.58384989885E+03  0.58384989885E+03  0.00000000000E+00 0.  1.
         21   -1    0    0  501  503 -0.00000000000E+00 -0.00000000000E+00 -0.15665158291E+03  0.15665158291E+03  0.00000000000E+00 0. -1.
          6    2    1    2  501    0 -0.60641635964E+02  0.59686359672E+02 -0.73458449022E+02  0.20461987448E+03  0.17097742470E+03 0.  0.
         24    2    3    3    0    0 -0.89937583208E+02  0.87336874266E+02 -0.44453531794E+02  0.15475827898E+03  0.79104424302E+02 0.  0.
         -6    2    1    2    0  502  0.60641635964E+02 -0.59686359672E+02  0.50065676496E+03  0.53588160728E+03  0.17109071039E+03 0.  0.
        -24    2    5    5    0    0  0.44895257002E+01  0.21243041335E+02  0.14599060031E+03  0.16776096703E+03  0.79743739778E+02 0.  0.
          5    1    3    3  501    0  0.29295947244E+02 -0.27650514594E+02 -0.29004917228E+02  0.49861595499E+02  0.47000000000E+01 0. -1.
        -13    1    4    4    0    0 -0.67688537906E+02  0.98402540057E+02 -0.22365291262E+02  0.12151133407E+03  0.00000000000E+00 0.  1.
         14    1    4    4    0    0 -0.22249045303E+02 -0.11065665791E+02 -0.22088240532E+02  0.33246944913E+02  0.00000000000E+00 0. -1.
         -5    1    5    5    0  502  0.56152110264E+02 -0.80929401007E+02  0.35466616465E+03  0.36812064025E+03  0.47000000000E+01 0.  1.
         13    1    6    6    0    0 -0.72558688666E+01 -0.26419685548E+02  0.24602487957E+02  0.36822952504E+02  0.00000000000E+00 0. -1.
        -14    1    6    6    0    0  0.11745394567E+02  0.47662726882E+02  0.12138811235E+03  0.13093801453E+03  0.00000000000E+00 0.  1.
</event>
<event>
12    1  0.8449700E-002  0.1999596E+03  0.7818608E-02  0.1150016E+00
         21   -1    0    0  503  502  0.00000000000E+00  0.00000000000E+00  0.68413633612E+03  0.68413633612E+03  0.00000000000E+00 0.  1.
         21   -1    0    0  501  503 -0.00000000000E+00 -0.00000000000E+00 -0.58114197190E+02  0.58114197190E+02  0.00000000000E+00 0.  1.
          6    2    1    2  501    0 -0.83579075204E+02  0.56358932850E+02  0.30868144057E+03  0.36716525642E+03  0.17136015480E+03 0.  0.
         24    2    3    3    0    0 -0.54596967015E+02  0.10450131008E+03  0.20656672349E+03  0.25051553922E+03  0.78656668647E+02 0.  0.
         -6    2    1    2    0  502  0.83579075204E+02 -0.56358932850E+02  0.31734069836E+03  0.37508527688E+03  0.17269063372E+03 0.  0.
        -24    2    5    5    0    0 -0.76956461321E+01 -0.38513064558E+02  0.69054511127E+02  0.10991048445E+03  0.75955973918E+02 0.  0.
          5    1    3    3  501    0 -0.28982108189E+02 -0.48142377228E+02  0.10211471708E+03  0.11664971720E+03  0.47000000000E+01 0. -1.
        -13    1    4    4    0    0 -0.26342114667E+02  0.63483508034E+02  0.18286660750E+03  0.19535674787E+03  0.00000000000E+00 0.  1.
         14    1    4    4    0    0 -0.28254852348E+02  0.41017802043E+02  0.23700115984E+02  0.55158791351E+02  0.00000000000E+00 0. -1.
         -5    1    5    5    0  502  0.91274721336E+02 -0.17845868292E+02  0.24828618723E+03  0.26517479243E+03  0.47000000000E+01 0.  1.
         13    1    6    6    0    0 -0.33460494137E+02 -0.29714466794E+01  0.76903800593E+01  0.34461226164E+02  0.00000000000E+00 0. -1.
        -14    1    6    6    0    0  0.25764848005E+02 -0.35541617878E+02  0.61364131067E+02  0.75449258285E+02  0.00000000000E+00 0.  1.
</event>
<event>
12    1  0.8449700E-002  0.2225389E+03  0.7818608E-02  0.1132586E+00
         21   -1    0    0  501  502  0.00000000000E+00  0.00000000000E+00  0.65491065258E+03  0.65491065258E+03  0.00000000000E+00 0. -1.
         21   -1    0    0  502  503 -0.00000000000E+00 -0.00000000000E+00 -0.10510856565E+03  0.10510856565E+03  0.00000000000E+00 0. -1.
         -6    2    1    2    0  503  0.10370937459E+03 -0.96893924063E+02  0.71406188998E+02  0.23371434335E+03  0.17140444440E+03 0.  0.
        -24    2    3    3    0    0  0.83296398357E+02 -0.44502961845E+02  0.11004881405E+03  0.16532688111E+03  0.79394159421E+02 0.  0.
          6    2    1    2  501    0 -0.10370937459E+03  0.96893924063E+02  0.47839589794E+03  0.52630487489E+03  0.16730247837E+03 0.  0.
         24    2    5    5    0    0 -0.58881647236E+02  0.12717602903E+03  0.40392419380E+03  0.43413841820E+03  0.75369895061E+02 0.  0.
          5    1    5    5  501    0 -0.44827727351E+02 -0.30282104967E+02  0.74471704139E+02  0.92166456687E+02  0.47000000000E+01 0. -1.
        -13    1    6    6    0    0 -0.23202410090E+02  0.38049980366E+02  0.48021355363E+02  0.65514909835E+02  0.00000000000E+00 0.  1.
         14    1    6    6    0    0 -0.35679237146E+02  0.89126048665E+02  0.35590283843E+03  0.36862350837E+03  0.00000000000E+00 0. -1.
         -5    1    3    3    0  503  0.20412976230E+02 -0.52390962219E+02 -0.38642625052E+02  0.68387462241E+02  0.47000000000E+01 0.  1.
         11    1    4    4    0    0  0.59679047380E+02  0.11900794483E+02  0.67204234924E+02  0.90662157471E+02  0.00000000000E+00 0. -1.
        -12    1    4    4    0    0  0.23617350977E+02 -0.56403756328E+02  0.42844579126E+02  0.74664723635E+02  0.00000000000E+00 0.  1.
</event>
<event>
12    1  0.8449700E-002  0.4506119E+03  0.7818608E-02  0.1027591E+00
         21   -1    0    0  501  502  0.00000000000E+00  0.00000000000E+00  0.12450884206E+04  0.12450884206E+04  0.00000000000E+00 0.  1.
         21   -1    0    0  502  503 -0.00000000000E+00 -0.00000000000E+00 -0.29635048503E+03  0.29635048503E+03  0.00000000000E+00 0. -1.
         -6    2    1    2    0  503  0.38344112293E+03 -0.16103594321E+03 -0.42757252972E+02  0.45263592789E+03  0.17346881785E+03 0.  0.
        -24    2    3    3    0    0  0.38506101994E+03 -0.17791064086E+03 -0.33664012665E+02  0.43283298602E+03  0.79290244257E+02 0.  0.
          6    2    1    2  501    0 -0.38344112293E+03  0.16103594321E+03  0.99149518855E+03  0.10888029778E+04  0.17166696156E+03 0.  0.
         24    2    5    5    0    0 -0.34906286799E+03  0.15164381280E+03  0.97603622708E+03  0.10496731168E+04  0.65773884253E+02 0.  0.
          5    1    5    5  501    0 -0.34378254941E+02  0.93921304094E+01  0.15458961469E+02  0.39129860926E+02  0.47000000000E+01 0. -1.
        -13    1    6    6    0    0 -0.15522738702E+03  0.39871003820E+02  0.35304869963E+03  0.38772235290E+03  0.00000000000E+00 0.  1.
         14    1    6    6    0    0 -0.19383548098E+03  0.11177280898E+03  0.62298752744E+03  0.66195076393E+03  0.00000000000E+00 0. -1.
         -5    1    3    3    0  503 -0.16198970008E+01  0.16874697652E+02 -0.90932403069E+01  0.19802941863E+02  0.47000000000E+01 0.  1.
         13    1    4    4    0    0  0.32306350449E+03 -0.11473024316E+03 -0.21799958863E+02  0.34352335414E+03  0.00000000000E+00 0. -1.
        -14    1    4    4    0    0  0.61997515443E+02 -0.63180397704E+02 -0.11864053801E+02  0.89309631887E+02  0.00000000000E+00 0.  1.
</event>
<event>
12    1  0.8449700E-002  0.1893125E+03  0.7818608E-02  0.1159423E+00
         21   -1    0    0  503  502  0.00000000000E+00  0.00000000000E+00  0.15481575616E+03  0.15481575616E+03  0.00000000000E+00 0. -1.
         21   -1    0    0  501  503 -0.00000000000E+00 -0.00000000000E+00 -0.33679669258E+03  0.33679669258E+03  0.00000000000E+00 0. -1.
          6    2    1    2  501    0 -0.34442269188E+02 -0.71056549197E+02 -0.22986573570E+03  0.29778763919E+03  0.17205789291E+03 0.  0.
         24    2    3    3    0    0  0.34576416552E+02 -0.62130191153E+02 -0.18835300820E+03  0.21661710640E+03  0.79940139169E+02 0.  0.
         -6    2    1    2    0  502  0.34442269188E+02  0.71056549197E+02  0.47884799271E+02  0.19382480955E+03  0.17041067955E+03 0.  0.
        -24    2    5    5    0    0 -0.23253642408E+02  0.92581571279E+02  0.43250440231E+02  0.13189168373E+03  0.80079563130E+02 0.  0.
          5    1    3    3  501    0 -0.69018685740E+02 -0.89263580439E+01 -0.41512727492E+02  0.81170532788E+02  0.47000000000E+01 0. -1.
        -11    1    4    4    0    0  0.26561695112E+02  0.12771474990E+02 -0.34960511532E+02  0.45726049328E+02  0.00000000000E+00 0.  1.
         12    1    4    4    0    0  0.80147214407E+01 -0.74901666144E+02 -0.15339249667E+03  0.17089105707E+03  0.00000000000E+00 0. -1.
         -5    1    5    5    0  502  0.57695911596E+02 -0.21525022081E+02  0.46343590395E+01  0.61933125823E+02  0.47000000000E+01 0.  1.
         11    1    6    6    0    0  0.28572709812E+02  0.37167840937E+02  0.27663639384E+02  0.54434594605E+02  0.00000000000E+00 0. -1.
        -12    1    6    6    0    0 -0.51826352220E+02  0.55413730342E+02  0.15586800847E+02  0.77457089124E+02  0.00000000000E+00 0.  1.
</event>
<event>
12    1  0.8449700E-002  0.2110514E+03  0.7818608E-02  0.1143154E+00
         21   -1    0    0  503  502  0.00000000000E+00  0.00000000000E+00  0.91637024897E+03  0.91637024897E+03  0.00000000000E+00 0.  1.
         21   -1    0    0  501  503 -0.00000000000E+00 -0.00000000000E+00 -0.70307816268E+02  0.70307816268E+02  0.00000000000E+00 0. -1.
          6    2    1    2  501    0 -0.11699795602E+03 -0.37200492796E+02  0.12442395254E+03  0.23481053254E+03  0.15678733319E+03 0.  0.
         24    2    3    3    0    0 -0.75639120546E+01 -0.48384263887E+02  0.54209821183E+02  0.10422339322E+03  0.74334118839E+02 0.  0.
         -6    2    1    2    0  502  0.11699795602E+03  0.37200492796E+02  0.72163848016E+03  0.75186753270E+03  0.17166913611E+03 0.  0.
        -24    2    5    5    0    0  0.41334737230E+02 -0.38900788272E+02  0.24698628464E+03  0.26521249638E+03  0.78189587576E+02 0.  0.
          5    1    3    3  501    0 -0.10943404397E+03  0.11183771092E+02  0.70214131358E+02  0.13058713933E+03  0.47000000000E+01 0. -1.
        -13    1    4    4    0    0 -0.24195140774E+02 -0.19136207504E+02  0.62387981119E+02  0.69597840935E+02  0.00000000000E+00 0.  1.
         14    1    4    4    0    0  0.16631228719E+02 -0.29248056384E+02 -0.81781599356E+01  0.34625552283E+02  0.00000000000E+00 0. -1.
         -5    1    5    5    0  502  0.75663218793E+02  0.76101281067E+02  0.47465219552E+03  0.48665503632E+03  0.47000000000E+01 0.  1.
         11    1    6    6    0    0  0.17210673618E+02  0.18854623334E+02  0.30063035733E+02  0.39439703662E+02  0.00000000000E+00 0. -1.
        -12    1    6    6    0    0  0.24124063612E+02 -0.57755411606E+02  0.21692324891E+03  0.22577279272E+03  0.00000000000E+00 0.  1.
</event>
<event>
12    1  0.8449700E-002  0.2136178E+03  0.7818608E-02  0.1139281E+00
         21   -1    0    0  503  502  0.00000000000E+00  0.00000000000E+00  0.87502931840E+03  0.87502931840E+03  0.00000000000E+00 0. -1.
         21   -1    0    0  501  503 -0.00000000000E+00 -0.00000000000E+00 -0.54211078717E+02  0.54211078717E+02  0.00000000000E+00 0. -1.
          6    2    1    2  501    0 -0.13028117971E+02  0.12136812817E+03  0.51756006746E+03  0.55991159315E+03  0.17530719986E+03 0.  0.
         24    2    3    3    0    0  0.34008677566E+02  0.54515675940E+01  0.16981652954E+03  0.19032159422E+03  0.78729573735E+02 0.  0.
         -6    2    1    2    0  502  0.13028117971E+02 -0.12136812817E+03  0.30325817222E+03  0.36932880396E+03  0.17186707662E+03 0.  0.
        -24    2    5    5    0    0  0.78477550667E+02 -0.88382062151E+02  0.23226693142E+03  0.26718402895E+03  0.58900450142E+02 0.  0.
          5    1    3    3  501    0 -0.47036795536E+02  0.11591656057E+03  0.34774353792E+03  0.36958999893E+03  0.47000000000E+01 0. -1.
        -13    1    4    4    0    0 -0.82251988651E+01  0.15134827367E+02  0.24037212182E+01  0.17392376821E+02  0.00000000000E+00 0.  1.
         14    1    4    4    0    0  0.42233876431E+02 -0.96832597727E+01  0.16741280832E+03  0.17292921739E+03  0.00000000000E+00 0. -1.
         -5    1    5    5    0  502 -0.65449432697E+02 -0.32986066016E+02  0.70991240805E+02  0.10214477501E+03  0.47000000000E+01 0.  1.
         11    1    6    6    0    0  0.31636770642E+02 -0.54670694773E+00  0.43665955750E+02  0.53924946330E+02  0.00000000000E+00 0. -1.
        -12    1    6    6    0    0  0.46840780025E+02 -0.87835355203E+02  0.18860097567E+03  0.21325908262E+03  0.00000000000E+00 0.  1.
</event>
<event>
12    1  0.8449700E-002  0.1821290E+03  0.7818608E-02  0.1166747E+00
         21   -1    0    0  501  502  0.00000000000E+00  0.00000000000E+00  0.27849265566E+02  0.27849265566E+02  0.00000000000E+00 0. -1.
         21   -1    0    0  502  503 -0.00000000000E+00 -0.00000000000E+00 -0.11679827423E+04  0.11679827423E+04  0.00000000000E+00 0. -1.
         -6    2    1    2    0  503  0.13839187727E+02 -0.59547177311E+02 -0.59654131798E+03  0.62254027212E+03  0.16720483519E+03 0.  0.
        -24    2    3    3    0    0  0.61413920015E+02 -0.39256481246E+01 -0.37091856416E+03  0.38529603783E+03  0.84174671053E+02 0.  0.
          6    2    1    2  501    0 -0.13839187727E+02  0.59547177311E+02 -0.54359215880E+03  0.57329173580E+03  0.17156220381E+03 0.  0.
         24    2    5    5    0    0 -0.50255974220E+02 -0.80405752732E+01 -0.36234874247E+03  0.37640203926E+03  0.88269871379E+02 0.  0.
          5    1    5    5  501    0  0.36416786493E+02  0.67587752584E+02 -0.18124341633E+03  0.19688969654E+03  0.47000000000E+01 0. -1.
        -11    1    6    6    0    0 -0.55627597940E+02  0.15268474591E+02 -0.12293197804E+03  0.13579332529E+03  0.00000000000E+00 0.  1.
         12    1    6    6    0    0  0.53716237197E+01 -0.23309049864E+02 -0.23941676443E+03  0.24060871397E+03  0.00000000000E+00 0. -1.
         -5    1    3    3    0  503 -0.47574732288E+02 -0.55621529186E+02 -0.22562275382E+03  0.23724423429E+03  0.47000000000E+01 0.  1.
         13    1    4    4    0    0  0.11386076361E+00  0.13038744084E+02 -0.23358623459E+03  0.23394988951E+03  0.00000000000E+00 0. -1.
        -14    1    4    4    0    0  0.61300059251E+02 -0.16964392209E+02 -0.13733232956E+03  0.15134614832E+03  0.00000000000E+00 0.  1.
</event>
<event>
12    1  0.8449700E-002  0.2674862E+03  0.7818608E-02  0.1102849E+00
         21   -1    0    0  501  502  0.00000000000E+00  0.00000000000E+00  0.68301290304E+02  0.68301290304E+02  0.00000000000E+00 0.  1.
         21   -1    0    0  502  503 -0.00000000000E+00 -0.00000000000E+00 -0.10824510610E+04  0.10824510610E+04  0.00000000000E+00 0. -1.
         -6    2    1    2    0  503 -0.12023926752E+02  0.20410381983E+03 -0.61590863042E+03  0.67148516141E+03  0.17247010433E+03 0.  0.
        -24    2    3    3    0    0 -0.51632835787E+02  0.15969827917E+03 -0.55838753909E+03  0.58859074867E+03  0.80454555545E+02 0.  0.
          6    2    1    2  501    0  0.12023926752E+02 -0.20410381983E+03 -0.39824114028E+03  0.47926718990E+03  0.17116684672E+03 0.  0.
         24    2    5    5    0    0  0.52774932272E+02 -0.17825202820E+03 -0.23989294369E+03  0.31366163158E+03  0.79221308123E+02 0.  0.
          5    1    5    5  501    0 -0.40751005520E+02 -0.25851791629E+02 -0.15834819659E+03  0.16560555831E+03  0.47000000000E+01 0. -1.
        -13    1    6    6    0    0  0.52529586350E+01 -0.14197542763E+03 -0.17539490292E+03  0.22571660904E+03  0.00000000000E+00 0.  1.
         14    1    6    6    0    0  0.47521973637E+02 -0.36276600573E+02 -0.64498040768E+02  0.87945022545E+02  0.00000000000E+00 0. -1.
         -5    1    3    3    0  503  0.39608909035E+02  0.44405540659E+02 -0.57521091335E+02  0.82894412745E+02  0.47000000000E+01 0.  1.
         13    1    4    4    0    0 -0.10307453263E+02  0.95107971239E+02 -0.41611712677E+03  0.42697216886E+03  0.00000000000E+00 0. -1.
        -14    1    4    4    0    0 -0.41325382524E+02  0.64590307932E+02 -0.14227041231E+03  0.16161857981E+03  0.00000000000E+00 0.  1.
</event>
<event>
12    1  0.8449700E-002  0.2627867E+03  0.7818608E-02  0.1105534E+00
         21   -1    0    0  503  502  0.00000000000E+00  0.00000000000E+00  0.70385111997E+02  0.70385111997E+02  0.00000000000E+00 0.  1.
         21   -1    0    0  501  503 -0.00000000000E+00 -0.00000000000E+00 -0.97999197280E+03  0.97999197280E+03  0.00000000000E+00 0.  1.
          6    2    1    2  501    0  0.14526655059E+03 -0.13505026697E+03 -0.46236408868E+03  0.53164500276E+03  0.17182814998E+03 0.  0.
         24    2    3    3    0    0  0.57723761431E+02 -0.10184592119E+03 -0.38446249444E+03  0.40975563941E+03  0.79897747753E+02 0.  0.
         -6    2    1    2    0  502 -0.14526655059E+03  0.13505026697E+03 -0.44724277213E+03  0.51873208204E+03  0.17238309195E+03 0.  0.
        -24    2    5    5    0    0 -0.17259526270E+03  0.13571425790E+03 -0.38318032611E+03  0.44892243816E+03  0.80602162872E+02 0.  0.
          5    1    3    3  501    0  0.87542789162E+02 -0.33204345782E+02 -0.77901594236E+02  0.12188936335E+03  0.47000000000E+01 0. -1.
        -13    1    4    4    0    0  0.75694767711E+02 -0.66037826546E+02 -0.29765953374E+03  0.31415265464E+03  0.00000000000E+00 0.  1.
         14    1    4    4    0    0 -0.17971006280E+02 -0.35808094647E+02 -0.86802960702E+02  0.95602984763E+02  0.00000000000E+00 0. -1.
         -5    1    5    5    0  502  0.27328712110E+02 -0.66399092492E+00 -0.64062446012E+02  0.69809643880E+02  0.47000000000E+01 0.  1.
         11    1    6    6    0    0 -0.39817222258E+01 -0.97640242087E+01 -0.25306072546E+02  0.27415097818E+02  0.00000000000E+00 0. -1.
        -12    1    6    6    0    0 -0.16861354048E+03  0.14547828211E+03 -0.35787425357E+03  0.42150734034E+03  0.00000000000E+00 0.  1.
</event>
<event>
12    1  0.8449700E-002  0.2446993E+03  0.7818608E-02  0.1116707E+00
         21   -1    0    0  503  502  0.00000000000E+00  0.00000000000E+00  0.74701319353E+03  0.74701319353E+03  0.00000000000E+00 0.  1.
         21   -1    0    0  501  503 -0.00000000000E+00 -0.00000000000E+00 -0.87041557526E+02  0.87041557526E+02  0.00000000000E+00 0.  1.
          6    2    1    2  501    0  0.12385991648E+03  0.12165440985E+03  0.21262194380E+03  0.32416949122E+03  0.17244330579E+03 0.  0.
         24    2    3    3    0    0  0.66472830645E+02  0.41943029938E+02  0.25704455520E+02  0.11296480583E+03  0.76957607477E+02 0.  0.
         -6    2    1    2    0  502 -0.12385991648E+03 -0.12165440985E+03  0.44734969220E+03  0.50988525983E+03  0.17239535008E+03 0.  0.
        -24    2    5    5    0    0 -0.11009900070E+03 -0.52435847715E+02  0.22517394700E+03  0.27672281881E+03  0.10488519418E+03 0.  0.
          5    1    3    3  501    0  0.57387085835E+02  0.79711379912E+02  0.18691748828E+03  0.21120468539E+03  0.47000000000E+01 0. -1.
        -13    1    4    4    0    0  0.82879097270E+02  0.43147768980E+02  0.20010044723E+02  0.95556667073E+02  0.00000000000E+00 0.  1.
         14    1    4    4    0    0 -0.16406266625E+02 -0.12047390419E+01  0.56944107968E+01  0.17408138759E+02  0.00000000000E+00 0. -1.
         -5    1    5    5    0  502 -0.13760915780E+02 -0.69218562135E+02  0.22217574520E+03  0.23316244102E+03  0.47000000000E+01 0.  1.
         13    1    6    6    0    0  0.19034386880E+02  0.15320858773E+01  0.15330652398E+02  0.24488447765E+02  0.00000000000E+00 0. -1.
        -14    1    6    6    0    0 -0.12913338758E+03 -0.53967933592E+02  0.20984329460E+03  0.25223437104E+03  0.00000000000E+00 0.  1.
</event>
<event>
12    1  0.8449700E-002  0.2408999E+03  0.7818608E-02  0.1119578E+00
         21   -1    0    0  501  502  0.00000000000E+00  0.00000000000E+00  0.16697283975E+04  0.16697283975E+04  0.00000000000E+00 0. -1.
         21   -1    0    0  502  503 -0.00000000000E+00 -0.00000000000E+00 -0.46941944142E+02  0.46941944142E+02  0.00000000000E+00 0. -1.
         -6    2    1    2    0  503 -0.47139387291E+01  0.17012718596E+03  0.12517684938E+04  0.12743049970E+04  0.16722255476E+03 0.  0.
        -24    2    3    3    0    0  0.28403779584E+02  0.18360928145E+03  0.11010246798E+04  0.11193071338E+04  0.77935686515E+02 0.  0.
          6    2    1    2  501    0  0.47139387291E+01 -0.17012718596E+03  0.37101795963E+03  0.44236534466E+03  0.17049132285E+03 0.  0.
         24    2    5    5    0    0  0.69413951242E+02 -0.67180874069E+02  0.18745730613E+03  0.22213674011E+03  0.69806326472E+02 0.  0.
          5    1    5    5  501    0 -0.64700012513E+02 -0.10294631189E+03  0.18356065349E+03  0.22022860455E+03  0.47000000000E+01 0. -1.
        -11    1    6    6    0    0  0.67163792534E+02 -0.18681173236E+02  0.96707556160E+02  0.11921540454E+03  0.00000000000E+00 0.  1.
         12    1    6    6    0    0  0.22501587081E+01 -0.48499700833E+02  0.90749749975E+02  0.10292133557E+03  0.00000000000E+00 0. -1.
         -5    1    3    3    0  503 -0.33117718313E+02 -0.13482095491E+02  0.15074381398E+03  0.15499786327E+03  0.47000000000E+01 0.  1.
         11    1    4    4    0    0 -0.12170699164E+02  0.13596225584E+03  0.67016453763E+03  0.68392570389E+03  0.00000000000E+00 0. -1.
        -12    1    4    4    0    0  0.40574478747E+02  0.47647025609E+02  0.43086014216E+03  0.43538142988E+03  0.00000000000E+00 0.  1.
</event>
<event>
12    1  0.8449700E-002  0.1957965E+03  0.7818608E-02  0.1153444E+00
         21   -1    0    0  501  502  0.00000000000E+00  0.00000000000E+00  0.11338802827E+03  0.11338802827E+03  0.00000000000E+00 0. -1.
         21   -1    0    0  502  503 -0.00000000000E+00 -0.00000000000E+00 -0.34705326807E+03  0.34705326807E+03  0.00000000000E+00 0. -1.
         -6    2    1    2    0  503  0.65035561946E+01 -0.93132631035E+02 -0.15542000438E+03  0.24958924348E+03  0.17153259018E+03 0.  0.
        -24    2    3    3    0    0 -0.45408489817E+02 -0.59592357758E+02 -0.15129952623E+03  0.18746936910E+03  0.81486426252E+02 0.  0.
          6    2    1    2  501    0 -0.65035561946E+01  0.93132631035E+02 -0.78245235413E+02  0.21085205286E+03  0.17210545640E+03 0.  0.
         24    2    5    5    0    0 -0.32300796697E+02  0.78530410478E-01 -0.75952710326E+02  0.11414678448E+03  0.78850025790E+02 0.  0.
          5    1    5    5  501    0  0.25797240502E+02  0.93054100624E+02 -0.22925250867E+01  0.96705268376E+02  0.47000000000E+01 0. -1.
        -13    1    6    6    0    0 -0.45155215530E+02  0.27939663652E+02 -0.57831251317E+02  0.78511603750E+02  0.00000000000E+00 0.  1.
         14    1    6    6    0    0  0.12854418833E+02 -0.27861133241E+02 -0.18121459009E+02  0.35635180730E+02  0.00000000000E+00 0. -1.
         -5    1    3    3    0  503  0.51912046011E+02 -0.33540273277E+02 -0.41204781473E+01  0.62119874378E+02  0.47000000000E+01 0.  1.
         11    1    4    4    0    0 -0.40576597210E+02 -0.55249477394E+02 -0.47339689272E+02  0.83306729463E+02  0.00000000000E+00 0. -1.
        -12    1    4    4    0    0 -0.48318926069E+01 -0.43428803641E+01 -0.10395983696E+03  0.10416263964E+03  0.00000000000E+00 0.  1.
</event>
<event>
12    1  0.8449700E-002  0.1937119E+03  0.7818608E-02  0.1155297E+00
         21   -1    0    0  501  502  0.00000000000E+00  0.00000000000E+00  0.43694128791E+02  0.43694128791E+02  0.00000000000E+00 0.  1.
         21   -1    0    0  502  503 -0.00000000000E+00 -0.00000000000E+00 -0.12214708296E+04  0.12214708296E+04  0.00000000000E+00 0.  1.
         -6    2    1    2    0  503 -0.73593555385E+02  0.50524802517E+02 -0.93561830047E+03  0.95546109595E+03  0.17191723194E+03 0.  0.
        -24    2    3    3    0    0 -0.99633596996E+02 -0.10864753689E+02 -0.59667925865E+03  0.60999253668E+03  0.77587760460E+02 0.  0.
          6    2    1    2  501    0  0.73593555385E+02 -0.50524802517E+02 -0.24215840034E+03  0.30970386244E+03  0.17119294521E+03 0.  0.
         24    2    5    5    0    0  0.57305468719E+02 -0.96621125078E+02 -0.14215473881E+03  0.19829024101E+03  0.80569791841E+02 0.  0.
          5    1    5    5  501    0  0.16288086666E+02  0.46096322561E+02 -0.10000366152E+03  0.11141362142E+03  0.47000000000E+01 0. -1.
        -11    1    6    6    0    0  0.74961635333E+02 -0.65339571775E+02 -0.85170610150E+02  0.13092952014E+03  0.00000000000E+00 0.  1.
         12    1    6    6    0    0 -0.17656166614E+02 -0.31281553303E+02 -0.56984128664E+02  0.67360720870E+02  0.00000000000E+00 0. -1.
         -5    1    3    3    0  503  0.26040041611E+02  0.61389556206E+02 -0.33893904182E+03  0.34546855928E+03  0.47000000000E+01 0.  1.
         13    1    4    4    0    0 -0.86415422611E+02 -0.15678095389E+02 -0.29039430033E+03  0.30338470233E+03  0.00000000000E+00 0. -1.
        -14    1    4    4    0    0 -0.13218174385E+02  0.48133417003E+01 -0.30628495832E+03  0.30660783435E+03  0.00000000000E+00 0.  1.
</event>
<event>
12    1  0.8449700E-002  0.1887283E+03  0.7818608E-02  0.1159653E+00
         21   -1    0    0  501  502  0.00000000000E+00  0.00000000000E+00  0.88229612978E+02  0.88229612978E+02  0.00000000000E+00 0.  1.
         21   -1    0    0  502  503 -0.00000000000E+00 -0.00000000000E+00 -0.48598172583E+03  0.48598172583E+03  0.00000000000E+00 0. -1.
         -6    2    1    2    0  503  0.20357721980E+02  0.74771355816E+02 -0.31720213625E+03  0.36901220078E+03  0.17189420173E+03 0.  0.
        -24    2    3    3    0    0 -0.30083054200E+02  0.99926883911E+02 -0.23555286143E+03  0.26968563548E+03  0.79717119732E+02 0.  0.
          6    2    1    2  501    0 -0.20357721980E+02 -0.74771355816E+02 -0.80549976605E+02  0.20519913803E+03  0.17208484833E+03 0.  0.
         24    2    5    5    0    0  0.28898418027E+02 -0.21468980579E+02 -0.97426965345E+02  0.13053834991E+03  0.79070927204E+02 0.  0.
          5    1    5    5  501    0 -0.49256140007E+02 -0.53302375238E+02  0.16876988740E+02  0.74660788124E+02  0.47000000000E+01 0. -1.
        -13    1    6    6    0    0  0.39470489016E+02 -0.96617876868E+01 -0.10217749537E+02  0.41900740448E+02  0.00000000000E+00 0.  1.
         14    1    6    6    0    0 -0.10572070990E+02 -0.11807192892E+02 -0.87209215808E+02  0.88637609460E+02  0.00000000000E+00 0. -1.
         -5    1    3    3    0  503  0.50440776180E+02 -0.25155528095E+02 -0.81649274826E+02  0.99326565303E+02  0.47000000000E+01 0.  1.
         13    1    4    4    0    0 -0.16311386105E+02  0.10577902729E+02 -0.12671923739E+03  0.12820186609E+03  0.00000000000E+00 0. -1.
        -14    1    4    4    0    0 -0.13771668095E+02  0.89348981182E+02 -0.10883362403E+03  0.14148376939E+03  0.00000000000E+00 0.  1.
</event>
<event>
12    1  0.8449700E-002  0.2896180E+03  0.7818608E-02  0.1090771E+00
         21   -1    0    0  503  502  0.00000000000E+00  0.00000000000E+00  0.69263026848E+03  0.69263026848E+03  0.00000000000E+00 0. -1.
         21   -1    0    0  501  503 -0.00000000000E+00 -0.00000000000E+00 -0.51632689391E+03  0.51632689391E+03  0.00000000000E+00 0. -1.
          6    2    1    2  501    0  0.95730406804E+02 -0.21038914216E+03 -0.44124160592E+03  0.52687185652E+03  0.17167380835E+03 0.  0.
         24    2    3    3    0    0 -0.11557707870E+02 -0.61672108252E+02 -0.12007893679E+03  0.15701371376E+03  0.79355691041E+02 0.  0.
         -6    2    1    2    0  502 -0.95730406804E+02  0.21038914216E+03  0.61754498049E+03  0.68208530586E+03  0.17450117371E+03 0.  0.
        -24    2    5    5    0    0 -0.70041847031E+02  0.70663908282E+02  0.16657819433E+03  0.20924688176E+03  0.78337184234E+02 0.  0.
          5    1    3    3  501    0  0.10728811467E+03 -0.14871703390E+03 -0.32116266913E+03  0.36985814276E+03  0.47000000000E+01 0. -1.
        -13    1    4    4    0    0 -0.21852153849E+02 -0.62457691155E+02 -0.12793907258E+03  0.14403779402E+03  0.00000000000E+00 0.  1.
         14    1    4    4    0    0  0.10294445979E+02  0.78558290260E+00  0.78601357917E+01  0.12975919743E+02  0.00000000000E+00 0. -1.
         -5    1    5    5    0  502 -0.25688559774E+02  0.13972523388E+03  0.45096678616E+03  0.47283842410E+03  0.47000000000E+01 0.  1.
         13    1    6    6    0    0 -0.72712517953E+02  0.49532012549E+02  0.16607612822E+03  0.18794097716E+03  0.00000000000E+00 0. -1.
        -14    1    6    6    0    0  0.26706709222E+01  0.21131895732E+02  0.50206611009E+00  0.21305904599E+02  0.00000000000E+00 0.  1.
</event>
<event>
12    1  0.8449700E-002  0.1781831E+03  0.7818608E-02  0.1173134E+00
         21   -1    0    0  503  502  0.00000000000E+00  0.00000000000E+00  0.10450098485E+03  0.10450098485E+03  0.00000000000E+00 0. -1.
         21   -1    0    0  501  503 -0.00000000000E+00 -0.00000000000E+00 -0.28255097283E+03  0.28255097283E+03  0.00000000000E+00 0. -1.
          6    2    1    2  501    0 -0.10311956753E+01 -0.40336501868E+02 -0.69226825683E+02  0.17826567417E+03  0.15924258364E+03 0.  0.
         24    2    3    3    0    0 -0.15476770011E+02  0.32724808131E+02 -0.26318346017E+02  0.92185146384E+02  0.80591577721E+02 0.  0.
         -6    2    1    2    0  502  0.10311956753E+01  0.40336501868E+02 -0.10882316229E+03  0.20878628351E+03  0.17355441447E+03 0.  0.
        -24    2    5    5    0    0 -0.15916739237E+02  0.91569865399E+02 -0.63085698525E+02  0.13789132157E+03  0.79973923055E+02 0.  0.
          5    1    3    3  501    0  0.14445574336E+02 -0.73061310000E+02 -0.42908479666E+02  0.86080527786E+02  0.47000000000E+01 0. -1.
        -11    1    4    4    0    0  0.66552751784E+01  0.38196314950E+02 -0.47328535805E+02  0.61182035475E+02  0.00000000000E+00 0.  1.
         12    1    4    4    0    0 -0.22132045190E+02 -0.54715068183E+01  0.21010189788E+02  0.31003110909E+02  0.00000000000E+00 0. -1.
         -5    1    5    5    0  502  0.16947934913E+02 -0.51233363531E+02 -0.45737463768E+02  0.70894961939E+02  0.47000000000E+01 0.  1.
         11    1    6    6    0    0 -0.32881939370E+02  0.63213881724E+02 -0.74349291159E+02  0.10298074517E+03  0.00000000000E+00 0. -1.
        -12    1    6    6    0    0  0.16965200133E+02  0.28355983675E+02  0.11263592634E+02  0.34910576402E+02  0.00000000000E+00 0.  1.
</event>
<event>
12    1  0.8449700E-002  0.1734333E+03  0.7818608E-02  0.1174337E+00
         21   -1    0    0  503  502  0.00000000000E+00  0.00000000000E+00  0.37666730160E+03  0.37666730160E+03  0.00000000000E+00 0. -1.
         21   -1    0    0  501  503 -0.00000000000E+00 -0.00000000000E+00 -0.23808385951E+03  0.23808385951E+03  0.00000000000E+00 0. -1.
          6    2    1    2  501    0 -0.22359477366E+02  0.49516412306E+00 -0.18131496079E+03  0.25090682835E+03  0.17198526125E+03 0.  0.
         24    2    3    3    0    0 -0.60214631402E+02  0.39240861951E+02 -0.15974014347E+03  0.19241063591E+03  0.79619672780E+02 0.  0.
         -6    2    1    2    0  502  0.22359477366E+02 -0.49516412306E+00  0.31989840289E+03  0.36384433276E+03  0.17189391756E+03 0.  0.
        -24    2    5    5    0    0  0.17472081918E+02  0.26014815256E+02  0.63445049717E+02  0.10593528291E+03  0.78835052942E+02 0.  0.
          5    1    3    3  501    0  0.37855154036E+02 -0.38745697828E+02 -0.21574817322E+02  0.58496192438E+02  0.47000000000E+01 0. -1.
        -13    1    4    4    0    0 -0.64726188446E+02  0.54411072041E+02 -0.10174890907E+03  0.13229846835E+03  0.00000000000E+00 0.  1.
         14    1    4    4    0    0  0.45115570435E+01 -0.15170210089E+02 -0.57991234404E+02  0.60112167560E+02  0.00000000000E+00 0. -1.
         -5    1    5    5    0  502  0.48873954484E+01 -0.26509979379E+02  0.25645335317E+03  0.25790904985E+03  0.47000000000E+01 0.  1.
         13    1    6    6    0    0 -0.29356347853E+02  0.10799021427E+02  0.90452755114E+01  0.32561189047E+02  0.00000000000E+00 0. -1.
        -14    1    6    6    0    0  0.46828429771E+02  0.15215793829E+02  0.54399774205E+02  0.73374093863E+02  0.00000000000E+00 0.  1.
</event>
<event>
12    1  0.8449700E-002  0.1903616E+03  0.7818608E-02  0.1158303E+00
         21   -1    0    0  503  502  0.00000000000E+00  0.00000000000E+00  0.93596641112E+02  0.93596641112E+02  0.00000000000E+00 0. -1.
         21   -1    0    0  501  503 -0.00000000000E+00 -0.00000000000E+00 -0.41457246075E+03  0.41457246075E+03  0.00000000000E+00 0. -1.
          6    2    1    2  501    0  0.30665534847E+02  0.75228440629E+02 -0.22787568915E+03  0.29692568504E+03  0.17215643882E+03 0.  0.
         24    2    3    3    0    0 -0.15316053444E+02  0.83282362045E+01 -0.10915597371E+03  0.15302848338E+03  0.10582414241E+03 0.  0.
         -6    2    1    2    0  502 -0.30665534847E+02 -0.75228440629E+02 -0.93100130490E+02  0.21124341682E+03  0.17133725090E+03 0.  0.
        -24    2    5    5    0    0  0.25705516097E+02 -0.21668303743E+02 -0.10193541169E+03  0.13284357089E+03  0.78270666452E+02 0.  0.
          5    1    3    3  501    0  0.45981588291E+02  0.66900204425E+02 -0.11871971544E+03  0.14389720167E+03  0.47000000000E+01 0. -1.
        -13    1    4    4    0    0 -0.34259013658E+02  0.41274715450E+02 -0.10069944433E+03  0.11409496150E+03  0.00000000000E+00 0.  1.
         14    1    4    4    0    0  0.18942960214E+02 -0.32946479245E+02 -0.84565293853E+01  0.38933521875E+02  0.00000000000E+00 0. -1.
         -5    1    5    5    0  502 -0.56371050943E+02 -0.53560136886E+02  0.88352811971E+01  0.78399845928E+02  0.47000000000E+01 0.  1.
         13    1    6    6    0    0 -0.27606717750E+02 -0.31245686082E+01 -0.43362742491E+02  0.51499720681E+02  0.00000000000E+00 0. -1.
        -14    1    6    6    0    0  0.53312233847E+02 -0.18543735135E+02 -0.58572669196E+02  0.81343850211E+02  0.00000000000E+00 0.  1.
</event>
<event>
12    1  0.8449700E-002  0.2747454E+03  0.7818608E-02  0.1099012E+00
         21   -1    0    0  501  502  0.00000000000E+00  0.00000000000E+00  0.20193421898E+03  0.20193421898E+03  0.00000000000E+00 0.  1.
         21   -1    0    0  502  503 -0.00000000000E+00 -0.00000000000E+00 -0.12480221951E+04  0.12480221951E+04  0.00000000000E+00 0. -1.
         -6    2    1    2    0  503 -0.13310174861E+03 -0.16274183900E+03  0.84275715235E+02  0.28738028741E+03  0.17687298203E+03 0.  0.
        -24    2    3    3    0    0 -0.12433843102E+03 -0.10083571082E+03 -0.62111644651E+01  0.17729336794E+03  0.75937301415E+02 0.  0.
          6    2    1    2  501    0  0.13310174861E+03  0.16274183900E+03 -0.11303636913E+04  0.11625761266E+04  0.17222135149E+03 0.  0.
         24    2    5    5    0    0  0.26200817502E+02  0.13035598783E+03 -0.55154937142E+03  0.57306382027E+03  0.80723395543E+02 0.  0.
          5    1    5    5  501    0  0.10690093111E+03  0.32385851175E+02 -0.57881431992E+03  0.58951230638E+03  0.47000000000E+01 0. -1.
        -13    1    6    6    0    0  0.30976115027E+02  0.14054653327E+03 -0.52079768993E+03  0.54031757473E+03  0.00000000000E+00 0.  1.
         14    1    6    6    0    0 -0.47752975246E+01 -0.10190545447E+02 -0.30751681490E+02  0.32746245547E+02  0.00000000000E+00 0. -1.
         -5    1    3    3    0  503 -0.87633175887E+01 -0.61906128179E+02  0.90486879700E+02  0.11008691947E+03  0.47000000000E+01 0.  1.
         13    1    4    4    0    0 -0.61773695682E+02 -0.12237121541E+02  0.19311667070E+02  0.65868635228E+02  0.00000000000E+00 0. -1.
        -14    1    4    4    0    0 -0.62564735337E+02 -0.88598589281E+02 -0.25522831535E+02  0.11142473271E+03  0.00000000000E+00 0.  1.
</event>
<event>
12    1  0.8449700E-002  0.1945483E+03  0.7818608E-02  0.1154594E+00
         21   -1    0    0  501  502  0.00000000000E+00  0.00000000000E+00  0.69766799102E+02  0.69766799102E+02  0.00000000000E+00 0.  1.
         21   -1    0    0  502  503 -0.00000000000E+00 -0.00000000000E+00 -0.75163438204E+03  0.75163438204E+03  0.00000000000E+00 0. -1.
         -6    2    1    2    0  503 -0.87650824961E+02 -0.13327867701E+02 -0.55820228143E+03  0.59087533608E+03  0.17228922377E+03 0.  0.
        -24    2    3    3    0    0 -0.20427371494E+02 -0.65668894263E+02 -0.25541391540E+03  0.27629393111E+03  0.79827232230E+02 0.  0.
          6    2    1    2  501    0  0.87650824961E+02  0.13327867701E+02 -0.12366530151E+03  0.23052584506E+03  0.17317262852E+03 0.  0.
         24    2    5    5    0    0 -0.54736556892E+01 -0.24825575326E+02 -0.35578082321E+02  0.96700203659E+02  0.86248822306E+02 0.  0.
          5    1    5    5  501    0  0.93124480650E+02  0.38153443027E+02 -0.88087219187E+02  0.13382564140E+03  0.47000000000E+01 0. -1.
        -13    1    6    6    0    0  0.43341574834E+01 -0.45859691669E+02 -0.51086197727E+02  0.68787323245E+02  0.00000000000E+00 0.  1.
         14    1    6    6    0    0 -0.98078131725E+01  0.21034116343E+02  0.15508115406E+02  0.27912880414E+02  0.00000000000E+00 0. -1.
         -5    1    3    3    0  503 -0.67223453467E+02  0.52341026562E+02 -0.30278836602E+03  0.31458140498E+03  0.47000000000E+01 0.  1.
         13    1    4    4    0    0  0.24042304833E+02 -0.39739195710E+02 -0.17298211341E+03  0.17910903845E+03  0.00000000000E+00 0. -1.
        -14    1    4    4    0    0 -0.44469676327E+02 -0.25929698552E+02 -0.82431801995E+02  0.97184892652E+02  0.00000000000E+00 0.  1.
</event>
<event>
12    1  0.8449700E-002  0.2571412E+03  0.7818608E-02  0.1109000E+00
         21   -1    0    0  501  502  0.00000000000E+00  0.00000000000E+00  0.72298267817E+02  0.72298267817E+02  0.00000000000E+00 0. -1.
         21   -1    0    0  502  503 -0.00000000000E+00 -0.00000000000E+00 -0.94995146850E+03  0.94995146850E+03  0.00000000000E+00 0. -1.
         -6    2    1    2    0  503  0.16285774405E+03 -0.99911025559E+02 -0.54217621821E+03  0.60006388209E+03  0.17209518634E+03 0.  0.
        -24    2    3    3    0    0  0.16155914499E+03 -0.10329141224E+03 -0.34475459890E+03  0.40255312505E+03  0.80142447246E+02 0.  0.
          6    2    1    2  501    0 -0.16285774405E+03  0.99911025559E+02 -0.33547698247E+03  0.42218585423E+03  0.17085441733E+03 0.  0.
         24    2    5    5    0    0 -0.33810400532E+02  0.23625834914E+02 -0.56204702000E+02  0.10518783560E+03  0.78766674240E+02 0.  0.
          5    1    5    5  501    0 -0.12904734352E+03  0.76285190645E+02 -0.27927228047E+03  0.31699801864E+03  0.47000000000E+01 0. -1.
        -13    1    6    6    0    0 -0.15581249018E+02 -0.28705277013E+02 -0.27935231308E+02  0.42978429445E+02  0.00000000000E+00 0.  1.
         14    1    6    6    0    0 -0.18229151514E+02  0.52331111927E+02 -0.28269470693E+02  0.62209406151E+02  0.00000000000E+00 0. -1.
         -5    1    3    3    0  503  0.12985990631E+01  0.33803866831E+01 -0.19742161931E+03  0.19751075704E+03  0.47000000000E+01 0.  1.
         11    1    4    4    0    0  0.31142796490E+02  0.11373660416E+02 -0.71083117316E+02  0.78434963453E+02  0.00000000000E+00 0. -1.
        -12    1    4    4    0    0  0.13041634850E+03 -0.11466507266E+03 -0.27367148158E+03  0.32411816159E+03  0.00000000000E+00 0.  1.
</event>
<event>
12    1  0.8449700E-002  0.2105569E+03  0.7818608E-02  0.1141954E+00
         21   -1    0    0  501  502  0.00000000000E+00  0.00000000000E+00  0.15757257803E+03  0.15757257803E+03  0.00000000000E+00 0.  1.
         21   -1    0    0  502  503 -0.00000000000E+00 -0.00000000000E+00 -0.33497842486E+03  0.33497842486E+03  0.00000000000E+00 0.  1.
         -6    2    1    2    0  503  0.56026517339E+02  0.10464793734E+03  0.14050258559E+02  0.21102519913E+03  0.17390820414E+03 0.  0.
        -24    2    3    3    0    0  0.80426814658E+02  0.82216370068E+02 -0.41963975883E+02  0.14577005236E+03  0.79119712277E+02 0.  0.
          6    2    1    2  501    0 -0.56026517339E+02 -0.10464793734E+03 -0.19145610539E+03  0.28152580377E+03  0.16885252874E+03 0.  0.
         24    2    5    5    0    0 -0.11145939914E+02 -0.95679621923E+02 -0.19868265731E+03  0.23495317270E+03  0.80307988511E+02 0.  0.
          5    1    5    5  501    0 -0.44880577425E+02 -0.89683154146E+01  0.72265519214E+01  0.46572631062E+02  0.47000000000E+01 0. -1.
        -11    1    6    6    0    0  0.11480450785E+02 -0.25101090340E+02 -0.13327285722E+03  0.13610113871E+03  0.00000000000E+00 0.  1.
         12    1    6    6    0    0 -0.22626390699E+02 -0.70578531583E+02 -0.65409800092E+02  0.98852033993E+02  0.00000000000E+00 0. -1.
         -5    1    3    3    0  503 -0.24400297318E+02  0.22431567269E+02  0.56014234441E+02  0.65255146766E+02  0.47000000000E+01 0.  1.
         11    1    4    4    0    0  0.21785661882E+02  0.77610032551E+02 -0.20725715816E+02  0.83231529557E+02  0.00000000000E+00 0. -1.
        -12    1    4    4    0    0  0.58641152775E+02  0.46063375169E+01 -0.21238260066E+02  0.62538522806E+02  0.00000000000E+00 0.  1.
</event>
<event>
12    1  0.8449700E-002  0.2146947E+03  0.7818608E-02  0.1140055E+00
         21   -1    0    0  503  502  0.00000000000E+00  0.00000000000E+00  0.17985334739E+03  0.17985334739E+03  0.00000000000E+00 0. -1.
         21   -1    0    0  501  503 -0.00000000000E+00 -0.00000000000E+00 -0.44485395545E+03  0.44485395545E+03  0.00000000000E+00 0.  1.
          6    2    1    2  501    0  0.88130670814E+01  0.12790034544E+03 -0.34451590555E+03  0.40593719118E+03  0.17221389460E+03 0.  0.
         24    2    3    3    0    0  0.23107712336E+02  0.38307754934E+02 -0.28221943365E+03  0.29578225680E+03  0.76406048539E+02 0.  0.
         -6    2    1    2    0  502 -0.88130670814E+01 -0.12790034544E+03  0.79515297492E+02  0.21877011165E+03  0.15843456283E+03 0.  0.
        -24    2    5    5    0    0 -0.34517746035E+02 -0.13401475152E+03  0.30224577658E+02  0.16264719705E+03  0.79932203752E+02 0.  0.
          5    1    3    3  501    0 -0.14294645255E+02  0.89592590509E+02 -0.62296471904E+02  0.11015493438E+03  0.47000000000E+01 0. -1.
        -13    1    4    4    0    0  0.41883075844E+02  0.17850605978E+02 -0.24582177221E+03  0.25000235972E+03  0.00000000000E+00 0.  1.
         14    1    4    4    0    0 -0.18775363508E+02  0.20457148956E+02 -0.36397661439E+02  0.45779897079E+02  0.00000000000E+00 0. -1.
         -5    1    5    5    0  502  0.25704678954E+02  0.61144060762E+01  0.49290719834E+02  0.56122914603E+02  0.47000000000E+01 0.  1.
         13    1    6    6    0    0 -0.24466507833E+02 -0.54372531908E+02  0.52388527470E+02  0.79369641817E+02  0.00000000000E+00 0. -1.
        -14    1    6    6    0    0 -0.10051238203E+02 -0.79642219611E+02 -0.22163949812E+02  0.83277555231E+02  0.00000000000E+00 0.  1.
</event>
<event>
12    1  0.8449700E-002  0.2646456E+03  0.7818608E-02  0.1104506E+00
         21   -1    0    0  501  502  0.00000000000E+00  0.00000000000E+00  0.13012507616E+03  0.13012507616E+03  0.00000000000E+00 0.  1.
         21   -1    0    0  502  503 -0.00000000000E+00 -0.00000000000E+00 -0.10607317046E+04  0.10607317046E+04  0.00000000000E+00 0.  1.
         -6    2    1    2    0  503  0.82691875238E+02 -0.18279655947E+03 -0.88424375531E+03  0.92299747500E+03  0.17258270966E+03 0.  0.
        -24    2    3    3    0    0  0.52756190155E+02 -0.34356206476E+02 -0.22712785016E+03  0.24864290474E+03  0.79200184560E+02 0.  0.
          6    2    1    2  501    0 -0.82691875238E+02  0.18279655947E+03 -0.46362873121E+02  0.26785930574E+03  0.17130838650E+03 0.  0.
         24    2    5    5    0    0  0.24047387631E+02  0.83931042741E+02 -0.15635322572E+02  0.11908453302E+03  0.79460467564E+02 0.  0.
          5    1    5    5  501    0 -0.10673926287E+03  0.98865516724E+02 -0.30727550548E+02  0.14877477272E+03  0.47000000000E+01 0. -1.
        -13    1    6    6    0    0 -0.29342382810E+02  0.34330574634E+02 -0.69861605788E+01  0.45698689514E+02  0.00000000000E+00 0.  1.
         14    1    6    6    0    0  0.53389770440E+02  0.49600468107E+02 -0.86491619932E+01  0.73385843508E+02  0.00000000000E+00 0. -1.
         -5    1    3    3    0  503  0.29935685083E+02 -0.14844035299E+03 -0.65711590515E+03  0.67435457026E+03  0.47000000000E+01 0.  1.
         13    1    4    4    0    0  0.40204368066E+02 -0.59500438737E+02 -0.14436392790E+03  0.16123782776E+03  0.00000000000E+00 0. -1.
        -14    1    4    4    0    0  0.12551822089E+02  0.25144232261E+02 -0.82763922260E+02  0.87405076978E+02  0.00000000000E+00 0.  1.
</event>
<event>
12    1  0.8449700E-002  0.2368945E+03  0.7818608E-02  0.1122399E+00
         21   -1    0    0  501  502  0.00000000000E+00  0.00000000000E+00  0.10704032093E+03  0.10704032093E+03  0.00000000000E+00 0.  1.
         21   -1    0    0  502  503 -0.00000000000E+00 -0.00000000000E+00 -0.53767291855E+03  0.53767291855E+03  0.00000000000E+00 0. -1.
         -6    2    1    2    0  503  0.12294441156E+03  0.10523719710E+03 -0.27633241123E+03  0.36199860919E+03  0.16879927599E+03 0.  0.
        -24    2    3    3    0    0  0.10199570865E+03  0.32390194475E+02 -0.24704402614E+03  0.28060184361E+03  0.79084729926E+02 0.  0.
          6    2    1    2  501    0 -0.12294441156E+03 -0.10523719710E+03 -0.15430018639E+03  0.28271463029E+03  0.17299947593E+03 0.  0.
         24    2    5    5    0    0 -0.19488576758E+01 -0.25202826594E+02 -0.97629414499E+02  0.12689713799E+03  0.77022078256E+02 0.  0.
          5    1    5    5  501    0 -0.12099555388E+03 -0.80034370508E+02 -0.56670771893E+02  0.15581749231E+03  0.47000000000E+01 0. -1.
        -11    1    6    6    0    0  0.17574823806E+01  0.20474133301E+02 -0.17440301575E+01  0.20623300414E+02  0.00000000000E+00 0.  1.
         12    1    6    6    0    0 -0.37063400564E+01 -0.45676959896E+02 -0.95885384341E+02  0.10627383757E+03  0.00000000000E+00 0. -1.
         -5    1    3    3    0  503  0.20948702904E+02  0.72847002627E+02 -0.29288385091E+02  0.81396765577E+02  0.47000000000E+01 0.  1.
         13    1    4    4    0    0  0.31214822682E+02 -0.23613305328E+02 -0.10758915276E+03  0.11448746279E+03  0.00000000000E+00 0. -1.
        -14    1    4    4    0    0  0.70780885970E+02  0.56003499803E+02 -0.13945487338E+03  0.16611438083E+03  0.00000000000E+00 0.  1.
</event>
<event>
12    1  0.8449700E-002  0.1764579E+03  0.7818608E-02  0.1173169E+00
         21   -1    0    0  503  502  0.00000000000E+00  0.00000000000E+00  0.12969258605E+04  0.12969258605E+04  0.00000000000E+00 0. -1.
         21   -1    0    0  501  503 -0.00000000000E+00 -0.00000000000E+00 -0.40952380169E+02  0.40952380169E+02  0.00000000000E+00 0. -1.
          6    2    1    2  501    0  0.28564912234E+02 -0.32574483335E+02  0.19282117417E+03  0.26137594226E+03  0.17105650180E+03 0.  0.
         24    2    3    3    0    0  0.73945124219E+02 -0.28197946983E+02  0.76243433472E+02  0.13611231092E+03  0.80314970127E+02 0.  0.
         -6    2    1    2    0  502 -0.28564912234E+02  0.32574483335E+02  0.10631523062E+04  0.10765022984E+04  0.16336254531E+03 0.  0.
        -24    2    5    5    0    0  0.42630754812E+02  0.31630247566E+02  0.56818743905E+03  0.57642028087E+03  0.81274353230E+02 0.  0.
          5    1    3    3  501    0 -0.45380211986E+02 -0.43765363520E+01  0.11657774070E+03  0.12526363134E+03  0.47000000000E+01 0. -1.
        -11    1    4    4    0    0  0.14744455353E+01 -0.36037931801E+02  0.42632656358E+02  0.55843082887E+02  0.00000000000E+00 0.  1.
         12    1    4    4    0    0  0.72470678684E+02  0.78399848185E+01  0.33610777114E+02  0.80269228034E+02  0.00000000000E+00 0. -1.
         -5    1    5    5    0  502 -0.71195667046E+02  0.94423576859E+00  0.49496486715E+03  0.50008201758E+03  0.47000000000E+01 0.  1.
         13    1    6    6    0    0  0.48233246426E+02  0.54081464397E+02  0.46928375502E+03  0.47484575767E+03  0.00000000000E+00 0. -1.
        -14    1    6    6    0    0 -0.56024916137E+01 -0.22451216831E+02  0.98903684024E+02  0.10157452320E+03  0.00000000000E+00 0.  1.
</event>
<event>
12    1  0.8449700E-002  0.2637601E+03  0.7818608E-02  0.1105209E+00
         21   -1    0    0  501  502  0.00000000000E+00  0.00000000000E+00  0.35783727038E+03  0.35783727038E+03  0.00000000000E+00 0. -1.
         21   -1    0    0  502  503 -0.00000000000E+00 -0.00000000000E+00 -0.23993507194E+03  0.23993507194E+03  0.00000000000E+00 0. -1.
         -6    2    1    2    0  503  0.83829404072E+02  0.18203477491E+03 -0.73558414913E+02  0.27184818968E+03  0.16830498971E+03 0.  0.
        -24    2    3    3    0    0  0.48048175807E+02  0.20123441056E+03 -0.57523644823E+02  0.22793775633E+03  0.76437790756E+02 0.  0.
          6    2    1    2  501    0 -0.83829404072E+02 -0.18203477491E+03  0.19146061335E+03  0.32592415264E+03  0.17147990712E+03 0.  0.
         24    2    5    5    0    0 -0.66625324175E+02 -0.86753592875E+02  0.31897260684E+02  0.13922375754E+03  0.80004373175E+02 0.  0.
          5    1    5    5  501    0 -0.17204079898E+02 -0.95281182035E+02  0.15956335267E+03  0.18670039510E+03  0.47000000000E+01 0. -1.
        -13    1    6    6    0    0  0.13828054897E+02  0.11633063912E+01 -0.45473718630E+01  0.14602978288E+02  0.00000000000E+00 0.  1.
         14    1    6    6    0    0 -0.80453379072E+02 -0.87916899266E+02  0.36444632547E+02  0.12462077926E+03  0.00000000000E+00 0. -1.
         -5    1    3    3    0  503  0.35781228265E+02 -0.19199635646E+02 -0.16034770091E+02  0.43910433350E+02  0.47000000000E+01 0.  1.
         11    1    4    4    0    0  0.55603217003E+00  0.13895637888E+03 -0.55384896780E+02  0.14958833910E+03  0.00000000000E+00 0. -1.
        -12    1    4    4    0    0  0.47492143637E+02  0.62278031673E+02 -0.21387480425E+01  0.78349417226E+02  0.00000000000E+00 0.  1.
</event>
<event>
12    1  0.8449700E-002  0.1910549E+03  0.7818608E-02  0.1158463E+00
         21   -1    0    0  501  502  0.00000000000E+00  0.00000000000E+00  0.30491159003E+03  0.30491159003E+03  0.00000000000E+00 0. -1.
         21   -1    0    0  502  503 -0.00000000000E+00 -0.00000000000E+00 -0.13498680535E+03  0.13498680535E+03  0.00000000000E+00 0. -1.
         -6    2    1    2    0  503  0.82831458176E+02  0.11596568066E+02  0.57211609011E+01  0.19114056934E+03  0.17177442973E+03 0.  0.
        -24    2    3    3    0    0  0.44081456854E+02  0.19909522619E+02 -0.62400006270E+02  0.11218962740E+03  0.79706886684E+02 0.  0.
          6    2    1    2  501    0 -0.82831458176E+02 -0.11596568066E+02  0.16420362378E+03  0.24875782605E+03  0.16709905776E+03 0.  0.
         24    2    5    5    0    0 -0.10999823676E+03 -0.12021047763E+00  0.78624635774E+02  0.15811791304E+03  0.81974474894E+02 0.  0.
          5    1    5    5  501    0  0.27166778580E+02 -0.11476357589E+02  0.85578988004E+02  0.90639913006E+02  0.47000000000E+01 0. -1.
        -11    1    6    6    0    0 -0.39316864323E+00  0.48375075204E+01 -0.13819795015E+02  0.14647279435E+02  0.00000000000E+00 0.  1.
         12    1    6    6    0    0 -0.10960506811E+03 -0.49577179980E+01  0.92444430789E+02  0.14347063361E+03  0.00000000000E+00 0. -1.
         -5    1    3    3    0  503  0.38750001323E+02 -0.83129545530E+01  0.68121167171E+02  0.78950941936E+02  0.47000000000E+01 0.  1.
         11    1    4    4    0    0  0.67465498815E+02  0.12316316643E+02 -0.47806256750E+02  0.83598584740E+02  0.00000000000E+00 0. -1.
        -12    1    4    4    0    0 -0.23384041962E+02  0.75932059759E+01 -0.14593749520E+02  0.28591042662E+02  0.00000000000E+00 0.  1.
</event>
<event>
12    1  0.8449700E-002  0.1776518E+03  0.7818608E-02  0.1170117E+00
         21   -1    0    0  503  502  0.00000000000E+00  0.00000000000E+00  0.40881596229E+03  0.40881596229E+03  0.00000000000E+00 0. -1.
         21   -1    0    0  501  503 -0.00000000000E+00 -0.00000000000E+00 -0.11064094207E+03  0.11064094207E+03  0.00000000000E+00 0. -1.
          6    2    1    2  501    0 -0.37381686799E+02 -0.27008588851E+02  0.62388826141E+01  0.17776132574E+03  0.17156139103E+03 0.  0.
         24    2    3    3    0    0  0.23506403196E+02  0.17927624950E+02  0.40728270086E+02  0.94465283443E+02  0.79943399129E+02 0.  0.
         -6    2    1    2    0  502  0.37381686799E+02  0.27008588851E+02  0.29193613761E+03  0.34169557863E+03  0.17147100522E+03 0.  0.
        -24    2    5    5    0    0  0.55182507603E+02  0.74778620912E+02  0.17287051280E+03  0.21209018446E+03  0.80380848838E+02 0.  0.
          5    1    3    3  501    0 -0.60888089994E+02 -0.44936213800E+02 -0.34489387471E+02  0.83296042295E+02  0.47000000000E+01 0. -1.
        -13    1    4    4    0    0 -0.22172607500E+02  0.24391187615E+02  0.34831180417E+02  0.47955872277E+02  0.00000000000E+00 0.  1.
         14    1    4    4    0    0  0.45679010695E+02 -0.64635626654E+01  0.58970896685E+01  0.46509411166E+02  0.00000000000E+00 0. -1.
         -5    1    5    5    0  502 -0.17800820804E+02 -0.47770032062E+02  0.11906562481E+03  0.12960539417E+03  0.47000000000E+01 0.  1.
         13    1    6    6    0    0 -0.40660967186E+01  0.30128177105E+02  0.11221853780E+03  0.11626366769E+03  0.00000000000E+00 0. -1.
        -14    1    6    6    0    0  0.59248604322E+02  0.44650443808E+02  0.60651974997E+02  0.95826516775E+02  0.00000000000E+00 0.  1.
</event>
<event>
12    1  0.8449700E-002  0.1853080E+03  0.7818608E-02  0.1162966E+00
         21   -1    0    0  503  502  0.00000000000E+00  0.00000000000E+00  0.48154146889E+03  0.48154146889E+03  0.00000000000E+00 0.  1.
         21   -1    0    0  501  503 -0.00000000000E+00 -0.00000000000E+00 -0.25183968790E+03  0.25183968790E+03  0.00000000000E+00 0.  1.
          6    2    1    2  501    0 -0.16811347490E+02 -0.67605306467E+02 -0.19597656671E+03  0.26911710503E+03  0.17077500594E+03 0.  0.
         24    2    3    3    0    0  0.52075387323E+02 -0.65303824998E+02 -0.13004772365E+03  0.17362165280E+03  0.79092555716E+02 0.  0.
         -6    2    1    2    0  502  0.16811347490E+02  0.67605306467E+02  0.42567834769E+03  0.46426405177E+03  0.17171474951E+03 0.  0.
        -24    2    5    5    0    0 -0.44926987168E+02  0.32256523083E+02  0.14555180556E+03  0.17520674247E+03  0.80331544528E+02 0.  0.
          5    1    3    3  501    0 -0.68886734813E+02 -0.23014814690E+01 -0.65928843055E+02  0.95495452231E+02  0.47000000000E+01 0. -1.
        -11    1    4    4    0    0  0.30673763830E+02  0.10786210368E+02 -0.20155090221E+02  0.38255062193E+02  0.00000000000E+00 0.  1.
         12    1    4    4    0    0  0.21401623493E+02 -0.76090035366E+02 -0.10989263343E+03  0.13536659061E+03  0.00000000000E+00 0. -1.
         -5    1    5    5    0  502  0.61738334658E+02  0.35348783384E+02  0.28012654213E+03  0.28905730930E+03  0.47000000000E+01 0.  1.
         11    1    6    6    0    0 -0.42968492835E+02 -0.18309538963E+02  0.75737562341E+02  0.88981508994E+02  0.00000000000E+00 0. -1.
        -12    1    6    6    0    0 -0.19584943329E+01  0.50566062046E+02  0.69814243223E+02  0.86225233474E+02  0.00000000000E+00 0.  1.
</event>
<event>
12    1  0.8449700E-002  0.2018816E+03  0.7818608E-02  0.1149665E+00
         21   -1    0    0  501  502  0.00000000000E+00  0.00000000000E+00  0.26045252323E+03  0.26045252323E+03  0.00000000000E+00 0.  1.
         21   -1    0    0  502  503 -0.00000000000E+00 -0.00000000000E+00 -0.24142287917E+03  0.24142287917E+03  0.00000000000E+00 0. -1.
         -6    2    1    2    0  503  0.32236238689E+01 -0.91981800980E+02 -0.14411434718E+03  0.24231398232E+03  0.17168598516E+03 0.  0.
        -24    2    3    3    0    0 -0.62348952064E+02 -0.47434030983E+02 -0.84331330855E+02  0.14291395431E+03  0.84706822956E+02 0.  0.
          6    2    1    2  501    0 -0.32236238689E+01  0.91981800980E+02  0.16314399124E+03  0.25956142008E+03  0.17968062070E+03 0.  0.
         24    2    5    5    0    0 -0.25410874652E+02  0.13105085378E+03  0.11393535458E+03  0.19276138337E+03  0.79722312228E+02 0.  0.
          5    1    5    5  501    0  0.22187250783E+02 -0.39069052795E+02  0.49208636658E+02  0.66800036717E+02  0.47000000000E+01 0. -1.
        -13    1    6    6    0    0 -0.40292064253E+02  0.33847501597E+02  0.18638730898E+02  0.55825675953E+02  0.00000000000E+00 0.  1.
         14    1    6    6    0    0  0.14881189601E+02  0.97203352178E+02  0.95296623685E+02  0.13693570741E+03  0.00000000000E+00 0. -1.
         -5    1    3    3    0  503  0.65572575933E+02 -0.44547769997E+02 -0.59783016326E+02  0.99400028004E+02  0.47000000000E+01 0.  1.
         11    1    4    4    0    0  0.15430783653E+01 -0.51338202840E+02 -0.36719457683E+02  0.63137237302E+02  0.00000000000E+00 0. -1.
        -12    1    4    4    0    0 -0.63892030429E+02  0.39041718573E+01 -0.47611873173E+02  0.79776717012E+02  0.00000000000E+00 0.  1.
</event>
<event>
12    1  0.8449700E-002  0.1733075E+03  0.7818608E-02  0.1175108E+00
         21   -1    0    0  501  502  0.00000000000E+00  0.00000000000E+00  0.19040090399E+03  0.19040090399E+03  0.00000000000E+00 0. -1.
         21   -1    0    0  502  503 -0.00000000000E+00 -0.00000000000E+00 -0.11488827643E+04  0.11488827643E+04  0.00000000000E+00 0. -1.
         -6    2    1    2    0  503  0.95196694063E+00  0.10231926318E+02 -0.11014600364E+04  0.11146100542E+04  0.17039883386E+03 0.  0.
        -24    2    3    3    0    0 -0.43701564946E+02  0.54202440859E+02 -0.69524545357E+03  0.70356295062E+03  0.82382360980E+02 0.  0.
          6    2    1    2  501    0 -0.95196694063E+00 -0.10231926318E+02  0.14297817608E+03  0.22467361409E+03  0.17300253026E+03 0.  0.
         24    2    5    5    0    0 -0.64075660707E+02 -0.31212516720E+02  0.71960981997E+02  0.12725535223E+03  0.77043041522E+02 0.  0.
          5    1    5    5  501    0  0.63123693766E+02  0.20980590402E+02  0.71017194082E+02  0.97418261859E+02  0.47000000000E+01 0. -1.
        -11    1    6    6    0    0 -0.46861356798E+02 -0.23891532542E+02  0.88061052488E+02  0.10257456338E+03  0.00000000000E+00 0.  1.
         12    1    6    6    0    0 -0.17214303909E+02 -0.73209841781E+01 -0.16100070491E+02  0.24680788849E+02  0.00000000000E+00 0. -1.
         -5    1    3    3    0  503  0.44653531886E+02 -0.43970514541E+02 -0.40621458286E+03  0.41104710361E+03  0.47000000000E+01 0.  1.
         11    1    4    4    0    0 -0.32466817145E+02  0.30880969371E+01 -0.51070104719E+03  0.51174133130E+03  0.00000000000E+00 0. -1.
        -12    1    4    4    0    0 -0.11234747801E+02  0.51114343921E+02 -0.18454440638E+03  0.19182161932E+03  0.00000000000E+00 0.  1.
</event>
<event>
12    1  0.8449700E-002  0.1878078E+03  0.7818608E-02  0.1160731E+00
         21   -1    0    0  503  502  0.00000000000E+00  0.00000000000E+00  0.35911732468E+03  0.35911732468E+03  0.00000000000E+00 0.  1.
         21   -1    0    0  501  503 -0.00000000000E+00 -0.00000000000E+00 -0.20584379836E+03  0.20584379836E+03  0.00000000000E+00 0.  1.
          6    2    1    2  501    0 -0.39832191262E+02 -0.62124192556E+02 -0.12810102609E+03  0.22733593739E+03  0.17270129351E+03 0.  0.
         24    2    3    3    0    0 -0.23845165579E+02  0.34119863723E+02 -0.56573147265E+02  0.10627053850E+03  0.79750544444E+02 0.  0.
         -6    2    1    2    0  502  0.39832191262E+02  0.62124192556E+02  0.28137455241E+03  0.33762518565E+03  0.17138584678E+03 0.  0.
        -24    2    5    5    0    0 -0.32230821655E+02 -0.30551003484E+01  0.11326636607E+03  0.14339884766E+03  0.81766743388E+02 0.  0.
          5    1    3    3  501    0 -0.15987025682E+02 -0.96244056280E+02 -0.71527878823E+02  0.12106539889E+03  0.47000000000E+01 0. -1.
        -13    1    4    4    0    0  0.18188134300E+02  0.43198187549E+02 -0.27166583183E+02  0.54174854671E+02  0.00000000000E+00 0.  1.
         14    1    4    4    0    0 -0.42033299879E+02 -0.90783238252E+01 -0.29406564081E+02  0.52095683826E+02  0.00000000000E+00 0. -1.
         -5    1    5    5    0  502  0.72063012917E+02  0.65179292905E+02  0.16810818634E+03  0.19422633799E+03  0.47000000000E+01 0.  1.
         13    1    6    6    0    0  0.84814762879E+01  0.12166577980E+02 -0.63477972455E+01  0.16132439048E+02  0.00000000000E+00 0. -1.
        -14    1    6    6    0    0 -0.40712297943E+02 -0.15221678328E+02  0.11961416332E+03  0.12726640861E+03  0.00000000000E+00 0.  1.
</event>
<event>
12    1  0.8449700E-002  0.3005090E+03  0.7818608E-02  0.1085109E+00
         21   -1    0    0  501  502  0.00000000000E+00  0.00000000000E+00  0.27941767590E+02  0.27941767590E+02  0.00000000000E+00 0. -1.
         21   -1    0    0  502  503 -0.00000000000E+00 -0.00000000000E+00 -0.33938018632E+04  0.33938018632E+04  0.00000000000E+00 0.  1.
         -6    2    1    2    0  503  0.17316671656E+03 -0.17295787342E+03 -0.20659438249E+04  0.20875442551E+04  0.17267307833E+03 0.  0.
        -24    2    3    3    0    0  0.17270502954E+03 -0.15378445840E+03 -0.20418799209E+04  0.20564155791E+04  0.78068788146E+02 0.  0.
          6    2    1    2  501    0 -0.17316671656E+03  0.17295787342E+03 -0.12999162707E+04  0.13341993756E+04  0.17436893452E+03 0.  0.
         24    2    5    5    0    0 -0.18328188785E+03  0.14943856204E+03 -0.12709207701E+04  0.12952339582E+04  0.80419328409E+02 0.  0.
          5    1    5    5  501    0  0.10115171296E+02  0.23519311386E+02 -0.28995500636E+02  0.38965417431E+02  0.47000000000E+01 0. -1.
        -11    1    6    6    0    0 -0.54784319643E+02  0.95117689927E+02 -0.51894229426E+03  0.53042417120E+03  0.00000000000E+00 0.  1.
         12    1    6    6    0    0 -0.12849756821E+03  0.54320872108E+02 -0.75197847582E+03  0.76480978699E+03  0.00000000000E+00 0. -1.
         -5    1    3    3    0  503  0.46168701538E+00 -0.19173415018E+02 -0.24063903945E+02  0.31128676031E+02  0.47000000000E+01 0.  1.
         13    1    4    4    0    0  0.17993671180E+03 -0.13847621257E+03 -0.18853759696E+04  0.18989985330E+04  0.00000000000E+00 0. -1.
        -14    1    4    4    0    0 -0.72316822560E+01 -0.15308245837E+02 -0.15650395132E+03  0.15741704608E+03  0.00000000000E+00 0.  1.
</event>
<event>
12    1  0.8449700E-002  0.1746613E+03  0.7818608E-02  0.1173422E+00
         21   -1    0    0  503  502  0.00000000000E+00  0.00000000000E+00  0.46151868473E+03  0.46151868473E+03  0.00000000000E+00 0. -1.
         21   -1    0    0  501  503 -0.00000000000E+00 -0.00000000000E+00 -0.98890337174E+02  0.98890337174E+02  0.00000000000E+00 0. -1.
          6    2    1    2  501    0  0.20033377249E+02  0.13629798505E+02  0.18207457296E+02  0.17423247854E+03  0.17157603989E+03 0.  0.
         24    2    3    3    0    0  0.50388686034E+02 -0.34552934376E+02  0.44755188416E+02  0.11122539523E+03  0.81456348428E+02 0.  0.
         -6    2    1    2    0  502 -0.20033377249E+02 -0.13629798505E+02  0.34442089026E+03  0.38617654336E+03  0.17297244112E+03 0.  0.
        -24    2    5    5    0    0 -0.78332014293E+02  0.41406506789E+01  0.19994692743E+03  0.22930291308E+03  0.80299456439E+02 0.  0.
          5    1    3    3  501    0 -0.30355308785E+02  0.48182732881E+02 -0.26547731120E+02  0.63007083308E+02  0.47000000000E+01 0. -1.
        -11    1    4    4    0    0  0.12124081570E+02  0.23166560289E+02  0.31116822678E+02  0.40644058891E+02  0.00000000000E+00 0.  1.
         12    1    4    4    0    0  0.38264604464E+02 -0.57719494665E+02  0.13638365738E+02  0.70581336338E+02  0.00000000000E+00 0. -1.
         -5    1    5    5    0  502  0.58298637044E+02 -0.17770449183E+02  0.14447396283E+03  0.15687363029E+03  0.47000000000E+01 0.  1.
         13    1    6    6    0    0  0.95746323436E+01  0.14518679853E+02  0.69610488960E+02  0.71750162525E+02  0.00000000000E+00 0. -1.
        -14    1    6    6    0    0 -0.87906646637E+02 -0.10378029174E+02  0.13033643847E+03  0.15755275055E+03  0.00000000000E+00 0.  1.
</event>
<event>
12    1  0.8449700E-002  0.2227350E+03  0.7818608E-02  0.1131911E+00
         21   -1    0    0  503  502  0.00000000000E+00  0.00000000000E+00  0.19794100902E+03  0.19794100902E+03  0.00000000000E+00 0.  1.
         21   -1    0    0  501  503 -0.00000000000E+00 -0.00000000000E+00 -0.25446984412E+03  0.25446984412E+03  0.00000000000E+00 0.  1.
          6    2    1    2  501    0 -0.68552244746E+02  0.12222924562E+03  0.60067100852E+00  0.22273582327E+03  0.17312275245E+03 0.  0.
         24    2    3    3    0    0 -0.11087526532E+03  0.93538140501E+02 -0.21852031749E+02  0.16669448634E+03  0.79163326727E+02 0.  0.
         -6    2    1    2    0  502  0.68552244746E+02 -0.12222924562E+03 -0.57129506115E+02  0.22967502987E+03  0.17276411703E+03 0.  0.
        -24    2    5    5    0    0  0.67075099733E+02 -0.14904725765E+03 -0.20928538003E+02  0.18435408749E+03  0.82669654978E+02 0.  0.
          5    1    3    3  501    0  0.42323020571E+02  0.28691105121E+02  0.22452702757E+02  0.56041336926E+02  0.47000000000E+01 0. -1.
        -13    1    4    4    0    0 -0.60903055820E+02  0.68601624178E+02 -0.49650856536E+02  0.10430998324E+03  0.00000000000E+00 0.  1.
         14    1    4    4    0    0 -0.49972209498E+02  0.24936516323E+02  0.27798824788E+02  0.62384503107E+02  0.00000000000E+00 0. -1.
         -5    1    5    5    0  502  0.14771450132E+01  0.26818012023E+02 -0.36200968112E+02  0.45320942383E+02  0.47000000000E+01 0.  1.
         11    1    6    6    0    0  0.11355973986E+02  0.71445071318E+01  0.85674329272E+01  0.15918637953E+02  0.00000000000E+00 0. -1.
        -12    1    6    6    0    0  0.55719125747E+02 -0.15619176478E+03 -0.29495970931E+02  0.16843544953E+03  0.00000000000E+00 0.  1.
</event>
<event>
12    1  0.8449700E-002  0.2298240E+03  0.7818608E-02  0.1126998E+00
         21   -1    0    0  503  502  0.00000000000E+00  0.00000000000E+00  0.48567783060E+02  0.48567783060E+02  0.00000000000E+00 0.  1.
         21   -1    0    0  501  503 -0.00000000000E+00 -0.00000000000E+00 -0.11152935404E+04  0.11152935404E+04  0.00000000000E+00 0.  1.
          6    2    1    2  501    0 -0.81485013460E+02 -0.12875523530E+03 -0.43322616889E+03  0.49041207341E+03  0.17205048764E+03 0.  0.
         24    2    3    3    0    0 -0.43231117980E+02 -0.15614692310E+03 -0.37006594269E+03  0.41151359906E+03  0.78382709317E+02 0.  0.
         -6    2    1    2    0  502  0.81485013460E+02  0.12875523530E+03 -0.63349958846E+03  0.67344925006E+03  0.17027755517E+03 0.  0.
        -24    2    5    5    0    0  0.31375268755E+02 -0.42863127603E+01 -0.24752770623E+03  0.26210095008E+03  0.80150874701E+02 0.  0.
          5    1    3    3  501    0 -0.38253895479E+02  0.27391687804E+02 -0.63160226206E+02  0.78898474348E+02  0.47000000000E+01 0. -1.
        -11    1    4    4    0    0 -0.60521438128E+02 -0.93743198599E+02 -0.27199454560E+03  0.29399262677E+03  0.00000000000E+00 0.  1.
         12    1    4    4    0    0  0.17290320147E+02 -0.62403724505E+02 -0.98071397086E+02  0.11752097230E+03  0.00000000000E+00 0. -1.
         -5    1    5    5    0  502  0.50109744705E+02  0.13304154806E+03 -0.38597188223E+03  0.41134829998E+03  0.47000000000E+01 0.  1.
         11    1    6    6    0    0 -0.53420584734E+01  0.55940275784E+01 -0.20463477449E+03  0.20478091137E+03  0.00000000000E+00 0. -1.
        -12    1    6    6    0    0  0.36717327228E+02 -0.98803403387E+01 -0.42892931741E+02  0.57320038707E+02  0.00000000000E+00 0.  1.
</event>
<event>
12    1  0.8449700E-002  0.1837791E+03  0.7818608E-02  0.1164218E+00
         21   -1    0    0  501  502  0.00000000000E+00  0.00000000000E+00  0.53908393487E+02  0.53908393487E+02  0.00000000000E+00 0. -1.
         21   -1    0    0  502  503 -0.00000000000E+00 -0.00000000000E+00 -0.69875625126E+03  0.69875625126E+03  0.00000000000E+00 0. -1.
         -6    2    1    2    0  503 -0.32770761841E+02 -0.55400172163E+02 -0.44377586458E+03  0.48032466149E+03  0.17213849233E+03 0.  0.
        -24    2    3    3    0    0 -0.19250425107E+02 -0.39720754422E+02 -0.99400022188E+02  0.13529501860E+03  0.80473973735E+02 0.  0.
          6    2    1    2  501    0  0.32770761841E+02  0.55400172163E+02 -0.20107199319E+03  0.27233998326E+03  0.17203493287E+03 0.  0.
         24    2    5    5    0    0 -0.38993639544E+02 -0.46395441643E+01 -0.80189802564E+02  0.11940375193E+03  0.79276870803E+02 0.  0.
          5    1    5    5  501    0  0.71764401385E+02  0.60039716328E+02 -0.12088219063E+03  0.15293623133E+03  0.47000000000E+01 0. -1.
        -11    1    6    6    0    0 -0.33126681794E+02 -0.80591999987E+01 -0.96173341484E+02  0.10203744099E+03  0.00000000000E+00 0.  1.
         12    1    6    6    0    0 -0.58669577499E+01  0.34196558345E+01  0.15983538919E+02  0.17366310940E+02  0.00000000000E+00 0. -1.
         -5    1    3    3    0  503 -0.13520336734E+02 -0.15679417741E+02 -0.34437584239E+03  0.34502964288E+03  0.47000000000E+01 0.  1.
         11    1    4    4    0    0 -0.34709071002E+01  0.22935720666E+02 -0.45817737097E+02  0.51355228665E+02  0.00000000000E+00 0. -1.
        -12    1    4    4    0    0 -0.15779518007E+02 -0.62656475088E+02 -0.53582285092E+02  0.83939789936E+02  0.00000000000E+00 0.  1.
</event>
<event>
12    1  0.8449700E-002  0.1776860E+03  0.7818608E-02  0.1170145E+00
         21   -1    0    0  503  502  0.00000000000E+00  0.00000000000E+00  0.31575290787E+02  0.31575290787E+02  0.00000000000E+00 0. -1.
         21   -1    0    0  501  503 -0.00000000000E+00 -0.00000000000E+00 -0.14846017192E+04  0.14846017192E+04  0.00000000000E+00 0. -1.
          6    2    1    2  501    0  0.29945653999E+02  0.31958290154E+02 -0.11609983121E+04  0.11745166578E+04  0.17220401920E+03 0.  0.
         24    2    3    3    0    0 -0.50114674303E+01 -0.11704309436E+02 -0.27710410212E+03  0.28884206327E+03  0.80504338009E+02 0.  0.
         -6    2    1    2    0  502 -0.29945653999E+02 -0.31958290154E+02 -0.29202811624E+03  0.34166035212E+03  0.17185255609E+03 0.  0.
        -24    2    5    5    0    0  0.29484345202E+02  0.18106809424E+02 -0.73913325778E+02  0.11006892132E+03  0.73856648681E+02 0.  0.
          5    1    3    3  501    0  0.34957121429E+02  0.43662599590E+02 -0.88389421003E+03  0.88567459457E+03  0.47000000000E+01 0. -1.
        -11    1    4    4    0    0  0.92843251932E+01 -0.44590420246E+02 -0.14792650247E+03  0.15477969636E+03  0.00000000000E+00 0.  1.
         12    1    4    4    0    0 -0.14295792623E+02  0.32886110810E+02 -0.12917759965E+03  0.13406236691E+03  0.00000000000E+00 0. -1.
         -5    1    5    5    0  502 -0.59429999201E+02 -0.50065099578E+02 -0.21811479046E+03  0.23159143080E+03  0.47000000000E+01 0.  1.
         11    1    6    6    0    0  0.27686489289E+01  0.13119970569E+02  0.13199274685E+02  0.18815416468E+02  0.00000000000E+00 0. -1.
        -12    1    6    6    0    0  0.26715696273E+02  0.49868388545E+01 -0.87112600463E+02  0.91253504857E+02  0.00000000000E+00 0.  1.
</event>
<event>
12    1  0.8449700E-002  0.2831955E+03  0.7818608E-02  0.1094287E+00
         21   -1    0    0  501  502  0.00000000000E+00  0.00000000000E+00  0.15803808828E+04  0.15803808828E+04  0.00000000000E+00 0.  1.
         21   -1    0    0  502  503 -0.00000000000E+00 -0.00000000000E+00 -0.55562227566E+02  0.55562227566E+02  0.00000000000E+00 0.  1.
         -6    2    1    2    0  503  0.63315279540E+02  0.21209519404E+03  0.50790838609E+03  0.58033607547E+03  0.17270158042E+03 0.  0.
        -24    2    3    3    0    0  0.71145468190E+02  0.10001268952E+03  0.16973720053E+03  0.22395756824E+03  0.79259443729E+02 0.  0.
          6    2    1    2  501    0 -0.63315279540E+02 -0.21209519404E+03  0.10169102692E+04  0.10556070349E+04  0.17665367438E+03 0.  0.
         24    2    5    5    0    0 -0.12312986124E+02 -0.15926465165E+03  0.89889262798E+03  0.91652952497E+03  0.80632342203E+02 0.  0.
          5    1    5    5  501    0 -0.51002293416E+02 -0.52830542382E+02  0.11801764120E+03  0.13907750996E+03  0.47000000000E+01 0. -1.
        -13    1    6    6    0    0 -0.13533295199E+02 -0.10258837067E+03  0.75185329438E+03  0.75894064336E+03  0.00000000000E+00 0.  1.
         14    1    6    6    0    0  0.12203090755E+01 -0.56676280989E+02  0.14703933360E+03  0.15758888161E+03  0.00000000000E+00 0. -1.
         -5    1    3    3    0  503 -0.78301886502E+01  0.11208250452E+03  0.33817118556E+03  0.35637850723E+03  0.47000000000E+01 0.  1.
         13    1    4    4    0    0  0.54307642111E+02  0.70717293599E+02  0.16791343675E+03  0.19011885190E+03  0.00000000000E+00 0. -1.
        -14    1    4    4    0    0  0.16837826079E+02  0.29295395922E+02  0.18237637745E+01  0.33838716341E+02  0.00000000000E+00 0.  1.
</event>
<event>
12    1  0.8449700E-002  0.1861394E+03  0.7818608E-02  0.1162083E+00
         21   -1    0    0  501  502  0.00000000000E+00  0.00000000000E+00  0.10153813608E+04  0.10153813608E+04  0.00000000000E+00 0. -1.
         21   -1    0    0  502  503 -0.00000000000E+00 -0.00000000000E+00 -0.35619695305E+02  0.35619695305E+02  0.00000000000E+00 0. -1.
         -6    2    1    2    0  503 -0.10427128980E+02  0.73223018688E+02  0.38005690525E+03  0.42319159785E+03  0.17081434887E+03 0.  0.
        -24    2    3    3    0    0  0.19524306587E+02  0.10117987710E+03  0.19376510564E+03  0.23238960880E+03  0.76429366313E+02 0.  0.
          6    2    1    2  501    0  0.10427128980E+02 -0.73223018688E+02  0.59970476020E+03  0.62780945821E+03  0.17037775948E+03 0.  0.
         24    2    5    5    0    0 -0.18587588780E+02  0.51050458058E+01  0.43951806560E+03  0.44709142740E+03  0.79643295458E+02 0.  0.
          5    1    5    5  501    0  0.29014717760E+02 -0.78328064494E+02  0.16018669460E+03  0.18071803081E+03  0.47000000000E+01 0. -1.
        -11    1    6    6    0    0  0.91214439738E+01 -0.11768456188E+02  0.37081369952E+03  0.37111251266E+03  0.00000000000E+00 0.  1.
         12    1    6    6    0    0 -0.27709032754E+02  0.16873501994E+02  0.68704366079E+02  0.75978914734E+02  0.00000000000E+00 0. -1.
         -5    1    3    3    0  503 -0.29951435568E+02 -0.27956858416E+02  0.18629179961E+03  0.19080198905E+03  0.47000000000E+01 0.  1.
         11    1    4    4    0    0  0.35815543320E+02  0.54968167607E+02  0.15987332493E+03  0.17281126300E+03  0.00000000000E+00 0. -1.
        -12    1    4    4    0    0 -0.16291236732E+02  0.46211709497E+02  0.33891780708E+02  0.59578345802E+02  0.00000000000E+00 0.  1.
</event>
<event>
12    1  0.8449700E-002  0.2132822E+03  0.7818608E-02  0.1139652E+00
         21   -1    0    0  503  502  0.00000000000E+00  0.00000000000E+00  0.10562359913E+03  0.10562359913E+03  0.00000000000E+00 0.  1.
         21   -1    0    0  501  503 -0.00000000000E+00 -0.00000000000E+00 -0.51579682937E+03  0.51579682937E+03  0.00000000000E+00 0.  1.
          6    2    1    2  501    0  0.92191889822E+02  0.76172126973E+02 -0.33757388113E+03  0.39930619300E+03  0.17660060325E+03 0.  0.
         24    2    3    3    0    0 -0.14937901240E+02  0.52936745865E+02 -0.19664353947E+03  0.22070012852E+03  0.83752165091E+02 0.  0.
         -6    2    1    2    0  502 -0.92191889822E+02 -0.76172126973E+02 -0.72599349107E+02  0.22211423549E+03  0.17251820380E+03 0.  0.
        -24    2    5    5    0    0 -0.85070888935E-01 -0.80287864845E+02 -0.18718393701E+02  0.11522245495E+03  0.80496505412E+02 0.  0.
          5    1    3    3  501    0  0.10712979106E+03  0.23235381107E+02 -0.14093034166E+03  0.17860606448E+03  0.47000000000E+01 0. -1.
        -13    1    4    4    0    0  0.10166571743E+02  0.60632285751E+02 -0.78686253595E+02  0.99855694686E+02  0.00000000000E+00 0.  1.
         14    1    4    4    0    0 -0.25104472983E+02 -0.76955398852E+01 -0.11795728588E+03  0.12084443384E+03  0.00000000000E+00 0. -1.
         -5    1    5    5    0  502 -0.92106818933E+02  0.41157378726E+01 -0.53880955406E+02  0.10689178054E+03  0.47000000000E+01 0.  1.
         13    1    6    6    0    0  0.22635152400E+01 -0.32471796382E+02 -0.48816398576E+02  0.58673518997E+02  0.00000000000E+00 0. -1.
        -14    1    6    6    0    0 -0.23485861289E+01 -0.47816068463E+02  0.30098004875E+02  0.56548935954E+02  0.00000000000E+00 0.  1.
</event>
<event>
12    1  0.8449700E-002  0.2196065E+03  0.7818608E-02  0.1134241E+00
         21   -1    0    0  503  502  0.00000000000E+00  0.00000000000E+00  0.12197118055E+04  0.12197118055E+04  0.00000000000E+00 0. -1.
         21   -1    0    0  501  503 -0.00000000000E+00 -0.00000000000E+00 -0.46515406129E+02  0.46515406129E+02  0.00000000000E+00 0. -1.
          6    2    1    2  501    0 -0.13740264718E+03  0.37546555562E+01  0.34073250152E+03  0.40537102646E+03  0.17127009840E+03 0.  0.
         24    2    3    3    0    0 -0.10344043003E+03  0.49133582664E+02  0.14348713544E+03  0.20008950352E+03  0.79581529709E+02 0.  0.
         -6    2    1    2    0  502  0.13740264718E+03 -0.37546555562E+01  0.83246389781E+03  0.86085618514E+03  0.17083221430E+03 0.  0.
        -24    2    5    5    0    0  0.67901560898E+02 -0.26327128160E+02  0.71117704776E+03  0.71917870806E+03  0.78367603182E+02 0.  0.
          5    1    3    3  501    0 -0.33962217153E+02 -0.45378927108E+02  0.19724536608E+03  0.20528152294E+03  0.47000000000E+01 0. -1.
        -11    1    4    4    0    0 -0.29491374428E+02 -0.22036485732E+02  0.38617118402E+02  0.53353816196E+02  0.00000000000E+00 0.  1.
         12    1    4    4    0    0 -0.73949055598E+02  0.71170068396E+02  0.10487001704E+03  0.14673568732E+03  0.00000000000E+00 0. -1.
         -5    1    5    5    0  502  0.69501086281E+02  0.22572472604E+02  0.12128685006E+03  0.14167747708E+03  0.47000000000E+01 0.  1.
         13    1    6    6    0    0  0.23613456346E+02 -0.37388803851E+02  0.15653658237E+03  0.16266290172E+03  0.00000000000E+00 0. -1.
        -14    1    6    6    0    0  0.44288104553E+02  0.11061675691E+02  0.55464046538E+03  0.55651580635E+03  0.00000000000E+00 0.  1.
</event>
<event>
12    1  0.8449700E-002  0.2035383E+03  0.7818608E-02  0.1147191E+00
         21   -1    0    0  503  502  0.00000000000E+00  0.00000000000E+00  0.86239719713E+02  0.86239719713E+02  0.00000000000E+00 0.  1.
         21   -1    0    0  501  503 -0.00000000000E+00 -0.00000000000E+00 -0.10284855807E+04  0.10284855807E+04  0.00000000000E+00 0.  1.
          6    2    1    2  501    0  0.98436809226E+02  0.45091586303E+02 -0.87865596833E+03  0.90148477269E+03  0.17004537088E+03 0.  0.
         24    2    3    3    0    0  0.15601050014E+02 -0.16266622210E+02 -0.22262858592E+03  0.23739094708E+03  0.79265242858E+02 0.  0.
         -6    2    1    2    0  502 -0.98436809226E+02 -0.45091586303E+02 -0.63589892675E+02  0.21324052773E+03  0.17235078083E+03 0.  0.
        -24    2    5    5    0    0 -0.11485028608E+03 -0.40024055488E+02  0.11686339280E+01  0.14607774891E+03  0.80900122326E+02 0.  0.
          5    1    3    3  501    0  0.82835759212E+02  0.61358208513E+02 -0.65602738240E+03  0.66409382561E+03  0.47000000000E+01 0. -1.
        -13    1    4    4    0    0  0.11576191664E+02  0.94772987051E+00 -0.21904506678E+03  0.21935279275E+03  0.00000000000E+00 0.  1.
         14    1    4    4    0    0  0.40248583502E+01 -0.17214352080E+02 -0.35835191438E+01  0.18038154333E+02  0.00000000000E+00 0. -1.
         -5    1    5    5    0  502  0.16413476853E+02 -0.50675308154E+01 -0.64758526603E+02  0.67162778819E+02  0.47000000000E+01 0.  1.
         11    1    6    6    0    0  0.11674464826E+02 -0.60023624210E+01 -0.68627316111E+01  0.14812783964E+02  0.00000000000E+00 0. -1.
        -12    1    6    6    0    0 -0.12652475091E+03 -0.34021693067E+02  0.80313655392E+01  0.13126496495E+03  0.00000000000E+00 0.  1.
</event>
<event>
12    1  0.8449700E-002  0.1974683E+03  0.7818608E-02  0.1151897E+00
         21   -1    0    0  503  502  0.00000000000E+00  0.00000000000E+00  0.17618236108E+03  0.17618236108E+03  0.00000000000E+00 0. -1.
         21   -1    0    0  501  503 -0.00000000000E+00 -0.00000000000E+00 -0.33624701791E+03  0.33624701791E+03  0.00000000000E+00 0. -1.
          6    2    1    2  501    0 -0.96013366419E+02 -0.89132377532E+01 -0.22983623836E+03  0.30301553885E+03  0.17232442654E+03 0.  0.
         24    2    3    3    0    0 -0.33865566080E+02 -0.20557378111E+02 -0.31728715151E+02  0.95009250858E+02  0.80315403397E+02 0.  0.
         -6    2    1    2    0  502  0.96013366419E+02  0.89132377532E+01  0.69771581525E+02  0.20941384014E+03  0.17230226497E+03 0.  0.
        -24    2    5    5    0    0  0.12455830682E+03 -0.23707518198E+02  0.35860889762E+02  0.15417841349E+03  0.80050993474E+02 0.  0.
          5    1    3    3  501    0 -0.62147800340E+02  0.11644140358E+02 -0.19810752321E+03  0.20800628799E+03  0.47000000000E+01 0. -1.
        -13    1    4    4    0    0 -0.14970748170E+02 -0.41547597037E+02 -0.45655961975E+02  0.63520020342E+02  0.00000000000E+00 0.  1.
         14    1    4    4    0    0 -0.18894817910E+02  0.20990218926E+02  0.13927246824E+02  0.31489230516E+02  0.00000000000E+00 0. -1.
         -5    1    5    5    0  502 -0.28544940397E+02  0.32620755951E+02  0.33910691763E+02  0.55235426648E+02  0.47000000000E+01 0.  1.
         13    1    6    6    0    0  0.33522385518E+02 -0.10123838869E+02  0.50012405819E+02  0.61053117693E+02  0.00000000000E+00 0. -1.
        -14    1    6    6    0    0  0.91035921299E+02 -0.13583679329E+02 -0.14151516057E+02  0.93125295798E+02  0.00000000000E+00 0.  1.
</event>
<event>
12    1  0.8449700E-002  0.2110248E+03  0.7818608E-02  0.1141033E+00
         21   -1    0    0  503  502  0.00000000000E+00  0.00000000000E+00  0.80141882911E+03  0.80141882911E+03  0.00000000000E+00 0. -1.
         21   -1    0    0  501  503 -0.00000000000E+00 -0.00000000000E+00 -0.65206410208E+02  0.65206410208E+02  0.00000000000E+00 0.  1.
          6    2    1    2  501    0 -0.56666503390E+02  0.10675983722E+03  0.53889872024E+03  0.57874286599E+03  0.17298184532E+03 0.  0.
         24    2    3    3    0    0 -0.92774803716E+02  0.10540224531E+03  0.34670822605E+03  0.38312863219E+03  0.82850209859E+02 0.  0.
         -6    2    1    2    0  502  0.56666503390E+02 -0.10675983722E+03  0.19731369866E+03  0.28788237332E+03  0.17127407785E+03 0.  0.
        -24    2    5    5    0    0 -0.35364542950E+02 -0.41925269144E+02  0.89992406271E+02  0.13227651062E+03  0.79937869527E+02 0.  0.
          5    1    3    3  501    0  0.36108300326E+02  0.13575919052E+01  0.19219049419E+03  0.19561423380E+03  0.47000000000E+01 0. -1.
        -11    1    4    4    0    0 -0.25733296182E+02  0.30082144410E+02  0.27056957326E+02  0.47950149994E+02  0.00000000000E+00 0.  1.
         12    1    4    4    0    0 -0.67041507534E+02  0.75320100902E+02  0.31965126872E+03  0.33517848220E+03  0.00000000000E+00 0. -1.
         -5    1    5    5    0  502  0.92031046340E+02 -0.64834568073E+02  0.10732129239E+03  0.15560586270E+03  0.47000000000E+01 0.  1.
         11    1    6    6    0    0 -0.21974314153E+02  0.77556359277E+01  0.75215990057E+02  0.78743034812E+02  0.00000000000E+00 0. -1.
        -12    1    6    6    0    0 -0.13390228797E+02 -0.49680905072E+02  0.14776416214E+02  0.53533475808E+02  0.00000000000E+00 0.  1.
</event>
<event>
12    1  0.8449700E-002  0.1742127E+03  0.7818608E-02  0.1176139E+00
         21   -1    0    0  503  502  0.00000000000E+00  0.00000000000E+00  0.20171729984E+03  0.20171729984E+03  0.00000000000E+00 0.  1.
         21   -1    0    0  501  503 -0.00000000000E+00 -0.00000000000E+00 -0.30116367623E+03  0.30116367623E+03  0.00000000000E+00 0.  1.
          6    2    1    2  501    0 -0.30168162160E+02 -0.89717419778E+01 -0.23321621650E+03  0.29110111197E+03  0.17134597628E+03 0.  0.
         24    2    3    3    0    0 -0.59729939486E+02  0.13609475486E+02 -0.23273548272E+03  0.25360269646E+03  0.79972740616E+02 0.  0.
         -6    2    1    2    0  502  0.30168162160E+02  0.89717419778E+01  0.13376984012E+03  0.21177986410E+03  0.16113885487E+03 0.  0.
        -24    2    5    5    0    0  0.36487681534E+02  0.60861202811E+02  0.63910804259E+02  0.12440236492E+03  0.79724027660E+02 0.  0.
          5    1    3    3  501    0  0.29561777325E+02 -0.22581217464E+02 -0.48073378293E+00  0.37498415510E+02  0.47000000000E+01 0. -1.
        -13    1    4    4    0    0  0.22822021732E+01 -0.26444970687E+02 -0.71587393857E+02  0.76349851871E+02  0.00000000000E+00 0.  1.
         14    1    4    4    0    0 -0.62012141659E+02  0.40054446173E+02 -0.16114808886E+03  0.17725284459E+03  0.00000000000E+00 0. -1.
         -5    1    5    5    0  502 -0.63195193732E+01 -0.51889460833E+02  0.69859035861E+02  0.87377499175E+02  0.47000000000E+01 0.  1.
         11    1    6    6    0    0  0.27180193037E+02  0.57239512531E+02  0.38122261733E+01  0.63479585354E+02  0.00000000000E+00 0. -1.
        -12    1    6    6    0    0  0.93074884963E+01  0.36216902804E+01  0.60098578086E+02  0.60922779570E+02  0.00000000000E+00 0.  1.
</event>
<event>
12    1  0.8449700E-002  0.2195416E+03  0.7818608E-02  0.1134309E+00
         21   -1    0    0  503  502  0.00000000000E+00  0.00000000000E+00  0.15034558934E+04  0.15034558934E+04  0.00000000000E+00 0.  1.
         21   -1    0    0  501  503 -0.00000000000E+00 -0.00000000000E+00 -0.39632398827E+02  0.39632398827E+02  0.00000000000E+00 0.  1.
          6    2    1    2  501    0  0.10417636330E+03 -0.88132478695E+02  0.10700425759E+04  0.10922425069E+04  0.17141333437E+03 0.  0.
         24    2    3    3    0    0  0.12710557742E+03 -0.10686235819E+03  0.98370829973E+03  0.10008518373E+04  0.80293149778E+02 0.  0.
         -6    2    1    2    0  502 -0.10417636330E+03  0.88132478695E+02  0.39378091875E+03  0.45084578539E+03  0.17198389971E+03 0.  0.
        -24    2    5    5    0    0 -0.30399612073E+02  0.27798591603E+02  0.31454984870E+03  0.32681821017E+03  0.78559767528E+02 0.  0.
          5    1    3    3  501    0 -0.22929214127E+02  0.18729879497E+02  0.86334276125E+02  0.91390669548E+02  0.47000000000E+01 0. -1.
        -11    1    4    4    0    0  0.99381303197E+02 -0.40958816279E+02  0.46642249124E+03  0.47864831390E+03  0.00000000000E+00 0.  1.
         12    1    4    4    0    0  0.27724274227E+02 -0.65903541914E+02  0.51728580848E+03  0.52220352342E+03  0.00000000000E+00 0. -1.
         -5    1    5    5    0  502 -0.73776751225E+02  0.60333887092E+02  0.79231070053E+02  0.12402757522E+03  0.47000000000E+01 0.  1.
         11    1    6    6    0    0 -0.26625613642E+02 -0.21769262440E+02  0.18268790317E+03  0.18589699851E+03  0.00000000000E+00 0. -1.
        -12    1    6    6    0    0 -0.37739984303E+01  0.49567854043E+02  0.13186194553E+03  0.14092121167E+03  0.00000000000E+00 0.  1.
</event>
<event>
12    1  0.8449700E-002  0.2635368E+03  0.7818608E-02  0.1105361E+00
         21   -1    0    0  501  502  0.00000000000E+00  0.00000000000E+00  0.43993949069E+03  0.43993949069E+03  0.00000000000E+00 0.  1.
         21   -1    0    0  502  503 -0.00000000000E+00 -0.00000000000E+00 -0.16354877975E+03  0.16354877975E+03  0.00000000000E+00 0.  1.
         -6    2    1    2    0  503 -0.19290158467E+03  0.57409323759E+02  0.20112890721E+03  0.33151844999E+03  0.17013169472E+03 0.  0.
        -24    2    3    3    0    0 -0.10905667302E+03  0.12969376317E+00  0.39453126939E+02  0.14054182015E+03  0.79385636191E+02 0.  0.
          6    2    1    2  501    0  0.19290158467E+03 -0.57409323759E+02  0.75261803730E+02  0.27196982045E+03  0.16672250091E+03 0.  0.
         24    2    5    5    0    0  0.63876898341E+02 -0.76833773084E+02  0.45576839418E+02  0.13807446571E+03  0.83687651190E+02 0.  0.
          5    1    5    5  501    0  0.12902468633E+03  0.19424449324E+02  0.29684964313E+02  0.13389535474E+03  0.47000000000E+01 0. -1.
        -11    1    6    6    0    0  0.44369614998E+02  0.29061608193E+01  0.59856646549E+00  0.44468716954E+02  0.00000000000E+00 0.  1.
         12    1    6    6    0    0  0.19507283343E+02 -0.79739933903E+02  0.44978272952E+02  0.93605748755E+02  0.00000000000E+00 0. -1.
         -5    1    3    3    0  503 -0.83844911648E+02  0.57279629996E+02  0.16167578027E+03  0.19097662985E+03  0.47000000000E+01 0.  1.
         13    1    4    4    0    0  0.12052130707E+02 -0.54528345318E+01  0.73192884144E+01  0.15118175878E+02  0.00000000000E+00 0. -1.
        -14    1    4    4    0    0 -0.12110880373E+03  0.55825282950E+01  0.32133838524E+02  0.12542364427E+03  0.00000000000E+00 0.  1.
</event>
<event>
12    1  0.8449700E-002  0.2357107E+03  0.7818608E-02  0.1122692E+00
         21   -1    0    0  501  502  0.00000000000E+00  0.00000000000E+00  0.37687150301E+03  0.37687150301E+03  0.00000000000E+00 0. -1.
         21   -1    0    0  502  503 -0.00000000000E+00 -0.00000000000E+00 -0.18890850635E+03  0.18890850635E+03  0.00000000000E+00 0.  1.
         -6    2    1    2    0  503  0.15870243771E+03  0.24996662974E+02 -0.38642575624E+02  0.23880963765E+03  0.17241083924E+03 0.  0.
        -24    2    3    3    0    0  0.23389904826E+02  0.20640660284E+02 -0.20139053642E+02  0.10208755955E+03  0.95095551043E+02 0.  0.
          6    2    1    2  501    0 -0.15870243771E+03 -0.24996662974E+02  0.22660557228E+03  0.32697037171E+03  0.17247678595E+03 0.  0.
         24    2    5    5    0    0 -0.11611368591E+03 -0.78524558304E+02  0.18888632041E+03  0.24871521648E+03  0.80825259400E+02 0.  0.
          5    1    5    5  501    0 -0.42588751804E+02  0.53527895330E+02  0.37719251866E+02  0.78255155230E+02  0.47000000000E+01 0. -1.
        -11    1    6    6    0    0 -0.42034167577E+02 -0.72894402414E+02  0.74882120337E+02  0.11264012204E+03  0.00000000000E+00 0.  1.
         12    1    6    6    0    0 -0.74079518328E+02 -0.56301558902E+01  0.11400420008E+03  0.13607509444E+03  0.00000000000E+00 0. -1.
         -5    1    3    3    0  503  0.13531253288E+03  0.43560026903E+01 -0.18503521982E+02  0.13672207810E+03  0.47000000000E+01 0.  1.
         13    1    4    4    0    0  0.16304897456E+02 -0.21348423861E+01 -0.56364753467E+02  0.58714501331E+02  0.00000000000E+00 0. -1.
        -14    1    4    4    0    0  0.70850073695E+01  0.22775502670E+02  0.36225699826E+02  0.43373058218E+02  0.00000000000E+00 0.  1.
</event>
<event>
12    1  0.8449700E-002  0.1788088E+03  0.7818608E-02  0.1169115E+00
         21   -1    0    0  501  502  0.00000000000E+00  0.00000000000E+00  0.44120292041E+03  0.44120292041E+03  0.00000000000E+00 0.  1.
         21   -1    0    0  502  503 -0.00000000000E+00 -0.00000000000E+00 -0.28154471138E+03  0.28154471138E+03  0.00000000000E+00 0.  1.
         -6    2    1    2    0  503 -0.39610313303E+02 -0.18859115161E+02 -0.23173796000E+03  0.29270303681E+03  0.17334342360E+03 0.  0.
        -24    2    3    3    0    0  0.72259887311E+01 -0.24602351575E+02 -0.23042411159E+03  0.24526423254E+03  0.80011136369E+02 0.  0.
          6    2    1    2  501    0  0.39610313303E+02  0.18859115161E+02  0.39139616904E+03  0.43004459498E+03  0.17269264428E+03 0.  0.
         24    2    5    5    0    0 -0.23291022765E+01 -0.49529232976E+02  0.22081852477E+03  0.24148504612E+03  0.84235604011E+02 0.  0.
          5    1    5    5  501    0  0.41939415580E+02  0.68388348138E+02  0.17057764427E+03  0.18855954886E+03  0.47000000000E+01 0. -1.
        -13    1    6    6    0    0 -0.19988061173E+02 -0.22729789471E+02  0.20205220152E+03  0.20430677438E+03  0.00000000000E+00 0.  1.
         14    1    6    6    0    0  0.17658958897E+02 -0.26799443506E+02  0.18766323252E+02  0.37178271744E+02  0.00000000000E+00 0. -1.
         -5    1    3    3    0  503 -0.46836302034E+02  0.57432364133E+01 -0.13138484120E+01  0.47438804268E+02  0.47000000000E+01 0.  1.
         11    1    4    4    0    0  0.37522720646E+02 -0.13200701120E+02 -0.61332418033E+02  0.73101837025E+02  0.00000000000E+00 0. -1.
        -12    1    4    4    0    0 -0.30296731915E+02 -0.11401650454E+02 -0.16909169356E+03  0.17216239551E+03  0.00000000000E+00 0.  1.
</event>
<event>
12    1  0.8449700E-002  0.1902290E+03  0.7818608E-02  0.1158459E+00
         21   -1    0    0  501  502  0.00000000000E+00  0.00000000000E+00  0.14215319906E+04  0.14215319906E+04  0.00000000000E+00 0.  1.
         21   -1    0    0  502  503 -0.00000000000E+00 -0.00000000000E+00 -0.95002990486E+02  0.95002990486E+02  0.00000000000E+00 0.  1.
         -6    2    1    2    0  503 -0.19287849070E+02  0.78395207114E+02  0.13506642962E+02  0.18980412465E+03  0.17124645021E+03 0.  0.
        -24    2    3    3    0    0 -0.80026865105E+01 -0.49940456891E+01  0.53263126757E+02  0.96617267309E+02  0.80055931614E+02 0.  0.
          6    2    1    2  501    0  0.19287849070E+02 -0.78395207114E+02  0.13130223571E+04  0.13267308564E+04  0.17224757015E+03 0.  0.
         24    2    5    5    0    0 -0.17350728960E+02 -0.29819315913E+02  0.11417845386E+04  0.11449439397E+04  0.77681741702E+02 0.  0.
          5    1    5    5  501    0  0.36638578030E+02 -0.48575891201E+02  0.17123781849E+03  0.18178691671E+03  0.47000000000E+01 0. -1.
        -13    1    6    6    0    0 -0.34893895047E+02 -0.41743853641E+02  0.52859769336E+03  0.53139030350E+03  0.00000000000E+00 0.  1.
         14    1    6    6    0    0  0.17543166087E+02  0.11924537728E+02  0.61318684528E+03  0.61355363621E+03  0.00000000000E+00 0. -1.
         -5    1    3    3    0  503 -0.11285162560E+02  0.83389252803E+02 -0.39756483795E+02  0.93186857339E+02  0.47000000000E+01 0.  1.
         11    1    4    4    0    0 -0.39199806353E+02  0.13580942576E+02  0.15651840782E+02  0.44340127867E+02  0.00000000000E+00 0. -1.
        -12    1    4    4    0    0  0.31197119843E+02 -0.18574988266E+02  0.37611285975E+02  0.52277139442E+02  0.00000000000E+00 0.  1.
</event>
<event>
12    1  0.8449700E-002  0.1733758E+03  0.7818608E-02  0.1175160E+00
         21   -1    0    0  503  502  0.00000000000E+00  0.00000000000E+00  0.11018641466E+03  0.11018641466E+03  0.00000000000E+00 0. -1.
         21   -1    0    0  501  503 -0.00000000000E+00 -0.00000000000E+00 -0.27310603074E+03  0.27310603074E+03  0.00000000000E+00 0. -1.
          6    2    1    2  501    0  0.29962535855E+02 -0.14803523257E+02 -0.10695977625E+03  0.20110932908E+03  0.16699601987E+03 0.  0.
         24    2    3    3    0    0  0.81122868634E+02  0.45130086239E+01 -0.83066117619E+02  0.14124694543E+03  0.80308359676E+02 0.  0.
         -6    2    1    2    0  502 -0.29962535855E+02  0.14803523257E+02 -0.55959839828E+02  0.18218311632E+03  0.17012432614E+03 0.  0.
        -24    2    5    5    0    0 -0.21894492162E+02 -0.56923697189E+02 -0.30481585033E+02  0.10549466250E+03  0.80500439140E+02 0.  0.
          5    1    3    3  501    0 -0.51160332780E+02 -0.19316531881E+02 -0.23893658631E+02  0.59862383655E+02  0.47000000000E+01 0. -1.
        -11    1    4    4    0    0  0.25125240584E+01 -0.24319711134E+02 -0.17233525475E+01  0.24509815805E+02  0.00000000000E+00 0.  1.
         12    1    4    4    0    0  0.78610344576E+02  0.28832719758E+02 -0.81342765071E+02  0.11673712962E+03  0.00000000000E+00 0. -1.
         -5    1    5    5    0  502 -0.80680436921E+01  0.71727220446E+02 -0.25478254796E+02  0.76688453821E+02  0.47000000000E+01 0.  1.
         11    1    6    6    0    0 -0.39233579440E+02 -0.18674975749E+02  0.12690214677E+02  0.45266654653E+02  0.00000000000E+00 0. -1.
        -12    1    6    6    0    0  0.17339087277E+02 -0.38248721440E+02 -0.43171799710E+02  0.60228007850E+02  0.00000000000E+00 0.  1.
</event>
<event>
12    1  0.8449700E-002  0.2392800E+03  0.7818608E-02  0.1120497E+00
         21   -1    0    0  501  502  0.00000000000E+00  0.00000000000E+00  0.77231576214E+02  0.77231576214E+02  0.00000000000E+00 0. -1.
         21   -1    0    0  502  503 -0.00000000000E+00 -0.00000000000E+00 -0.73721754660E+03  0.73721754660E+03  0.00000000000E+00 0. -1.
         -6    2    1    2    0  503 -0.13475646057E+03 -0.94666473601E+02 -0.33149105463E+03  0.40882911227E+03  0.17359112550E+03 0.  0.
        -24    2    3    3    0    0 -0.76803474565E+02 -0.12636462183E+03 -0.27142589681E+03  0.31942422218E+03  0.80579308154E+02 0.  0.
          6    2    1    2  501    0  0.13475646057E+03  0.94666473601E+02 -0.32849491575E+03  0.40562001054E+03  0.17174876530E+03 0.  0.
         24    2    5    5    0    0  0.84240670824E+02  0.12962558841E+03 -0.21395082947E+03  0.27555686270E+03  0.79103371354E+02 0.  0.
          5    1    5    5  501    0  0.50515789751E+02 -0.34959114811E+02 -0.11454408628E+03  0.13006314783E+03  0.47000000000E+01 0. -1.
        -13    1    6    6    0    0 -0.50010768778E+01 -0.11328209332E+01  0.37704155465E+01  0.63647534593E+01  0.00000000000E+00 0.  1.
         14    1    6    6    0    0  0.89241747701E+02  0.13075840934E+03 -0.21772124502E+03  0.26919210925E+03  0.00000000000E+00 0. -1.
         -5    1    3    3    0  503 -0.57952986010E+02  0.31698148225E+02 -0.60065157823E+02  0.89404890094E+02  0.47000000000E+01 0.  1.
         13    1    4    4    0    0 -0.93680808006E+02 -0.11335790709E+03 -0.23928121922E+03  0.28085870248E+03  0.00000000000E+00 0. -1.
        -14    1    4    4    0    0  0.16877333441E+02 -0.13006714735E+02 -0.32144677590E+02  0.38565519699E+02  0.00000000000E+00 0.  1.
</event>
<event>
12    1  0.8449700E-002  0.4971455E+03  0.7818608E-02  0.1014542E+00
         21   -1    0    0  501  502  0.00000000000E+00  0.00000000000E+00  0.15127449114E+04  0.15127449114E+04  0.00000000000E+00 0.  1.
         21   -1    0    0  502  503 -0.00000000000E+00 -0.00000000000E+00 -0.51245232135E+03  0.51245232135E+03  0.00000000000E+00 0. -1.
         -6    2    1    2    0  503  0.41796491540E+03  0.20685830328E+03 -0.33571191692E+03  0.59969323193E+03  0.17159386099E+03 0.  0.
        -24    2    3    3    0    0  0.17142421784E+03  0.11529698497E+03 -0.85329018191E+02  0.23654109227E+03  0.77401484383E+02 0.  0.
          6    2    1    2  501    0 -0.41796491540E+03 -0.20685830328E+03  0.13360045070E+04  0.14255040008E+04  0.17224571274E+03 0.  0.
         24    2    5    5    0    0 -0.38319487121E+03 -0.17374435414E+03  0.12881621950E+04  0.13575594174E+04  0.81119179308E+02 0.  0.
          5    1    5    5  501    0 -0.34770044188E+02 -0.33113949139E+02  0.47842311993E+02  0.67944583428E+02  0.47000000000E+01 0. -1.
        -11    1    6    6    0    0 -0.10010757323E+03 -0.86399176260E+02  0.39659345287E+03  0.41805826237E+03  0.00000000000E+00 0.  1.
         12    1    6    6    0    0 -0.28308729798E+03 -0.87345177877E+02  0.89156874213E+03  0.93950115504E+03  0.00000000000E+00 0. -1.
         -5    1    3    3    0  503  0.24654069756E+03  0.91561318301E+02 -0.25038289873E+03  0.36315213966E+03  0.47000000000E+01 0.  1.
         11    1    4    4    0    0  0.38603861346E+02  0.23808965417E+02 -0.56915643133E+02  0.72777162478E+02  0.00000000000E+00 0. -1.
        -12    1    4    4    0    0  0.13282035649E+03  0.91488019557E+02 -0.28413375057E+02  0.16376392980E+03  0.00000000000E+00 0.  1.
</event>
<event>
12    1  0.8449700E-002  0.1796866E+03  0.7818608E-02  0.1168560E+00
         21   -1    0    0  503  502  0.00000000000E+00  0.00000000000E+00  0.88531889116E+03  0.88531889116E+03  0.00000000000E+00 0. -1.
         21   -1    0    0  501  503 -0.00000000000E+00 -0.00000000000E+00 -0.36099307961E+02  0.36099307961E+02  0.00000000000E+00 0. -1.
          6    2    1    2  501    0 -0.10994297802E+01 -0.44589168242E+02  0.42079857355E+03  0.45755734955E+03  0.17406287931E+03 0.  0.
         24    2    3    3    0    0 -0.55634823569E+02 -0.21814735940E+00  0.30536123402E+03  0.32231399101E+03  0.86865092992E+02 0.  0.
         -6    2    1    2    0  502  0.10994297802E+01  0.44589168242E+02  0.42842100965E+03  0.46386084957E+03  0.17214216098E+03 0.  0.
        -24    2    5    5    0    0 -0.36115667225E+02  0.75494722707E+02  0.20344947716E+03  0.23369917341E+03  0.78865831138E+02 0.  0.
          5    1    3    3  501    0  0.54535393789E+02 -0.44371020883E+02  0.11543733953E+03  0.13524335853E+03  0.47000000000E+01 0. -1.
        -11    1    4    4    0    0 -0.48374905049E+02  0.64721767829E+01  0.30820075480E+03  0.31204122448E+03  0.00000000000E+00 0.  1.
         12    1    4    4    0    0 -0.72599185205E+01 -0.66903241423E+01 -0.28395207859E+01  0.10272766538E+02  0.00000000000E+00 0. -1.
         -5    1    5    5    0  502  0.37215097006E+02 -0.30905554465E+02  0.22497153249E+03  0.23016167616E+03  0.47000000000E+01 0.  1.
         11    1    6    6    0    0  0.11612612285E+02  0.62352740629E+02  0.91937500812E+02  0.11169252922E+03  0.00000000000E+00 0. -1.
        -12    1    6    6    0    0 -0.47728279511E+02  0.13141982078E+02  0.11151197635E+03  0.12200664419E+03  0.00000000000E+00 0.  1.
</event>
<event>
12    1  0.8449700E-002  0.2302355E+03  0.7818608E-02  0.1126660E+00
         21   -1    0    0  501  502  0.00000000000E+00  0.00000000000E+00  0.10869840965E+04  0.10869840965E+04  0.00000000000E+00 0. -1.
         21   -1    0    0  502  503 -0.00000000000E+00 -0.00000000000E+00 -0.68390339480E+02  0.68390339480E+02  0.00000000000E+00 0.  1.
         -6    2    1    2    0  503 -0.98772185308E+01  0.15107435691E+03  0.19892422889E+03  0.30426838788E+03  0.17345714820E+03 0.  0.
        -24    2    3    3    0    0  0.77231648234E+01  0.19939947120E+02  0.13400159344E+03  0.15681315563E+03  0.78591920494E+02 0.  0.
          6    2    1    2  501    0  0.98772185308E+01 -0.15107435691E+03  0.81966952816E+03  0.85110604813E+03  0.17205333187E+03 0.  0.
         24    2    5    5    0    0 -0.16442342116E+01 -0.10869502730E+03  0.29303517557E+03  0.32262276289E+03  0.79990752882E+02 0.  0.
          5    1    5    5  501    0  0.11521452742E+02 -0.42379329608E+02  0.52663435258E+03  0.52848328524E+03  0.47000000000E+01 0. -1.
        -13    1    6    6    0    0  0.30350271701E+02 -0.89764275403E+02  0.17686009554E+03  0.20064460502E+03  0.00000000000E+00 0.  1.
         14    1    6    6    0    0 -0.31994505912E+02 -0.18930751898E+02  0.11617508004E+03  0.12197815787E+03  0.00000000000E+00 0. -1.
         -5    1    3    3    0  503 -0.17600383354E+02  0.13113440979E+03  0.64922635449E+02  0.14745523225E+03  0.47000000000E+01 0.  1.
         13    1    4    4    0    0 -0.34141653166E+02  0.14425263834E+02  0.44971648032E+02  0.58276837975E+02  0.00000000000E+00 0. -1.
        -14    1    4    4    0    0  0.41864817989E+02  0.55146832862E+01  0.89029945408E+02  0.98536317652E+02  0.00000000000E+00 0.  1.
</event>
<event>
12    1  0.8449700E-002  0.2127865E+03  0.7818608E-02  0.1139391E+00
         21   -1    0    0  501  502  0.00000000000E+00  0.00000000000E+00  0.10789777513E+04  0.10789777513E+04  0.00000000000E+00 0. -1.
         21   -1    0    0  502  503 -0.00000000000E+00 -0.00000000000E+00 -0.44575619317E+02  0.44575619317E+02  0.00000000000E+00 0.  1.
         -6    2    1    2    0  503 -0.96048814266E+02  0.78667227447E+02  0.38080366249E+03  0.43618954129E+03  0.17273094443E+03 0.  0.
        -24    2    3    3    0    0 -0.12737150332E+03  0.35635649300E+02  0.31945956678E+03  0.35483835416E+03  0.79764926012E+02 0.  0.
          6    2    1    2  501    0  0.96048814266E+02 -0.78667227447E+02  0.65359846947E+03  0.68736382931E+03  0.17281252025E+03 0.  0.
         24    2    5    5    0    0  0.54272139210E+02 -0.11942134509E+03  0.43523443069E+03  0.46128611675E+03  0.78415235074E+02 0.  0.
          5    1    5    5  501    0  0.41776675056E+02  0.40754117643E+02  0.21836403878E+03  0.22607771256E+03  0.47000000000E+01 0. -1.
        -11    1    6    6    0    0 -0.42576650794E+01 -0.29792824950E+02  0.31354733956E+02  0.43461010939E+02  0.00000000000E+00 0.  1.
         12    1    6    6    0    0  0.58529804289E+02 -0.89628520141E+02  0.40387969673E+03  0.41782510581E+03  0.00000000000E+00 0. -1.
         -5    1    3    3    0  503  0.31322689051E+02  0.43031578147E+02  0.61344095717E+02  0.81351187124E+02  0.47000000000E+01 0.  1.
         13    1    4    4    0    0 -0.46488877078E+02 -0.25416266017E+02  0.11674677404E+03  0.12820690902E+03  0.00000000000E+00 0. -1.
        -14    1    4    4    0    0 -0.80882626240E+02  0.61051915317E+02  0.20271279273E+03  0.22663144515E+03  0.00000000000E+00 0.  1.
</event>
<event>
12    1  0.8449700E-002  0.2549542E+03  0.7818608E-02  0.1110613E+00
         21   -1    0    0  501  502  0.00000000000E+00  0.00000000000E+00  0.24397746330E+03  0.24397746330E+03  0.00000000000E+00 0.  1.
         21   -1    0    0  502  503 -0.00000000000E+00 -0.00000000000E+00 -0.28791233832E+03  0.28791233832E+03  0.00000000000E+00 0.  1.
         -6    2    1    2    0  503  0.14199081443E+03  0.12213535816E+03 -0.98931256261E+02  0.27107135405E+03  0.16915628403E+03 0.  0.
        -24    2    3    3    0    0  0.65168217385E+02  0.12617294392E+03 -0.10808604144E+03  0.19345747896E+03  0.74677275500E+02 0.  0.
          6    2    1    2  501    0 -0.14199081443E+03 -0.12213535816E+03  0.54996381242E+02  0.26081844756E+03  0.17298330423E+03 0.  0.
         24    2    5    5    0    0 -0.73394925998E+02 -0.11242144653E+03  0.92062235645E+02  0.18210552898E+03  0.81618451654E+02 0.  0.
          5    1    5    5  501    0 -0.68595888434E+02 -0.97139116347E+01 -0.37065854403E+02  0.78712918583E+02  0.47000000000E+01 0. -1.
        -11    1    6    6    0    0 -0.82882291588E+02 -0.60788492984E+02  0.73749767055E+02  0.12650590215E+03  0.00000000000E+00 0.  1.
         12    1    6    6    0    0  0.94873655901E+01 -0.51632953543E+02  0.18312468590E+02  0.55599626826E+02  0.00000000000E+00 0. -1.
         -5    1    3    3    0  503  0.76822597046E+02 -0.40375857631E+01  0.91547851761E+01  0.77613875096E+02  0.47000000000E+01 0.  1.
         11    1    4    4    0    0  0.62377595585E+01  0.18278615943E+01  0.10137727516E+02  0.12042601111E+02  0.00000000000E+00 0. -1.
        -12    1    4    4    0    0  0.58930457827E+02  0.12434508233E+03 -0.11822376895E+03  0.18141487785E+03  0.00000000000E+00 0.  1.
</event>
<event>
12    1  0.8449700E-002  0.1983450E+03  0.7818608E-02  0.1152278E+00
         21   -1    0    0  501  502  0.00000000000E+00  0.00000000000E+00  0.30199856519E+03  0.30199856519E+03  0.00000000000E+00 0.  1.
         21   -1    0    0  502  503 -0.00000000000E+00 -0.00000000000E+00 -0.27000638397E+03  0.27000638397E+03  0.00000000000E+00 0.  1.
         -6    2    1    2    0  503 -0.33293842310E+02  0.99852304797E+02 -0.19235127886E+03  0.27255422191E+03  0.16188831548E+03 0.  0.
        -24    2    3    3    0    0 -0.35018883309E+02  0.88459535419E+02 -0.57782213120E+02  0.13741098524E+03  0.80570361287E+02 0.  0.
          6    2    1    2  501    0  0.33293842310E+02 -0.99852304797E+02  0.22434346008E+03  0.29945072725E+03  0.16811242447E+03 0.  0.
         24    2    5    5    0    0  0.35234799308E+02 -0.48265915439E+02  0.47838003864E+02  0.11549097906E+03  0.86478910460E+02 0.  0.
          5    1    5    5  501    0 -0.19409569985E+01 -0.51586389358E+02  0.17650545622E+03  0.18395974820E+03  0.47000000000E+01 0. -1.
        -11    1    6    6    0    0 -0.16691848310E+02 -0.32355974536E+01  0.43404676864E+02  0.46616015108E+02  0.00000000000E+00 0.  1.
         12    1    6    6    0    0  0.51926647618E+02 -0.45030317985E+02  0.44333270002E+01  0.68874963949E+02  0.00000000000E+00 0. -1.
         -5    1    3    3    0  503  0.17250409993E+01  0.11392769378E+02 -0.13456906575E+03  0.13514323666E+03  0.47000000000E+01 0.  1.
         13    1    4    4    0    0 -0.15939768922E+02  0.95253849756E+02 -0.64427354062E+02  0.11609589174E+03  0.00000000000E+00 0. -1.
        -14    1    4    4    0    0 -0.19079114387E+02 -0.67943143370E+01  0.66451409423E+01  0.21315093508E+02  0.00000000000E+00 0.  1.
</event>
<event>
12    1  0.8449700E-002  0.2868153E+03  0.7818608E-02  0.1092214E+00
         21   -1    0    0  503  502  0.00000000000E+00  0.00000000000E+00  0.11372442189E+03  0.11372442189E+03  0.00000000000E+00 0. -1.
         21   -1    0    0  501  503 -0.00000000000E+00 -0.00000000000E+00 -0.10349730781E+04  0.10349730781E+04  0.00000000000E+00 0. -1.
          6    2    1    2  501    0 -0.17665635449E+03  0.14403044902E+03 -0.77839417603E+03  0.82955439358E+03  0.17409985867E+03 0.  0.
         24    2    3    3    0    0 -0.32415923478E+02  0.21089458022E+02 -0.17556538395E+03  0.19761734625E+03  0.82060064380E+02 0.  0.
         -6    2    1    2    0  502  0.17665635449E+03 -0.14403044902E+03 -0.14285448015E+03  0.31914310638E+03  0.17173433560E+03 0.  0.
        -24    2    5    5    0    0  0.17133975080E+03 -0.58833855189E+02 -0.11481929528E+03  0.22917206956E+03  0.80731865948E+02 0.  0.
          5    1    3    3  501    0 -0.14424043102E+03  0.12294099100E+03 -0.60282879209E+03  0.63193704732E+03  0.47000000000E+01 0. -1.
        -11    1    4    4    0    0 -0.81764870486E+00 -0.48614548960E+01 -0.14850110758E+03  0.14858291034E+03  0.00000000000E+00 0.  1.
         12    1    4    4    0    0 -0.31598274774E+02  0.25950912918E+02 -0.27064276363E+02  0.49034435910E+02  0.00000000000E+00 0. -1.
         -5    1    5    5    0  502  0.53166036941E+01 -0.85196593829E+02 -0.28035184868E+02  0.89971036815E+02  0.47000000000E+01 0.  1.
         11    1    6    6    0    0  0.95706704922E+02 -0.57853110013E+02 -0.30542227479E+02  0.11592921704E+03  0.00000000000E+00 0. -1.
        -12    1    6    6    0    0  0.75633045878E+02 -0.98074517637E+00 -0.84277067800E+02  0.11324285252E+03  0.00000000000E+00 0.  1.
</event>
<event>
12    1  0.8449700E-002  0.1876351E+03  0.7818608E-02  0.1160986E+00
         21   -1    0    0  503  502  0.00000000000E+00  0.00000000000E+00  0.39618011986E+03  0.39618011986E+03  0.00000000000E+00 0. -1.
         21   -1    0    0  501  503 -0.00000000000E+00 -0.00000000000E+00 -0.90745222911E+02  0.90745222911E+02  0.00000000000E+00 0. -1.
          6    2    1    2  501    0 -0.53117153390E+00  0.74584258920E+02  0.11048784456E+03  0.21634953328E+03  0.17040088888E+03 0.  0.
         24    2    3    3    0    0 -0.17568805676E+01 -0.26955506899E+02  0.47090344789E+02  0.96544861488E+02  0.79835604375E+02 0.  0.
         -6    2    1    2    0  502  0.53117153390E+00 -0.74584258920E+02  0.19494705239E+03  0.27057580949E+03  0.17217381225E+03 0.  0.
        -24    2    5    5    0    0 -0.60689452551E+02 -0.69750663491E+02  0.15314497803E+03  0.19613904520E+03  0.80428701638E+02 0.  0.
          5    1    3    3  501    0  0.12257090337E+01  0.10153976582E+03  0.63397499768E+02  0.11980467179E+03  0.47000000000E+01 0. -1.
        -11    1    4    4    0    0  0.19059562255E+02 -0.10172667856E+02 -0.16745989874E+02  0.27334561667E+02  0.00000000000E+00 0.  1.
         12    1    4    4    0    0 -0.20816442822E+02 -0.16782839043E+02  0.63836334663E+02  0.69210299821E+02  0.00000000000E+00 0. -1.
         -5    1    5    5    0  502  0.61220624085E+02 -0.48335954283E+01  0.41802074362E+02  0.74436764297E+02  0.47000000000E+01 0.  1.
         11    1    6    6    0    0 -0.59079258151E+02 -0.52577279482E+02  0.15927837989E+03  0.17783231248E+03  0.00000000000E+00 0. -1.
        -12    1    6    6    0    0 -0.16101943998E+01 -0.17173384009E+02 -0.61334018632E+01  0.18306732716E+02  0.00000000000E+00 0.  1.
</event>
<event>
12    1  0.8449700E-002  0.2133214E+03  0.7818608E-02  0.1140348E+00
         21   -1    0    0  503  502  0.00000000000E+00  0.00000000000E+00  0.12775574219E+03  0.12775574219E+03  0.00000000000E+00 0.  1.
         21   -1    0    0  501  503 -0.00000000000E+00 -0.00000000000E+00 -0.99902012796E+03  0.99902012796E+03  0.00000000000E+00 0. -1.
          6    2    1    2  501    0 -0.10576019078E+03 -0.70385891546E+02 -0.89411471936E+03  0.91921005750E+03  0.17136687761E+03 0.  0.
         24    2    3    3    0    0 -0.55076121850E+02  0.66267050982E+01 -0.24028994058E+03  0.25890047386E+03  0.78821998238E+02 0.  0.
         -6    2    1    2    0  502  0.10576019078E+03  0.70385891546E+02  0.22850333597E+02  0.20756581265E+03  0.16254856860E+03 0.  0.
        -24    2    5    5    0    0  0.36131427503E+02  0.79729932083E+02 -0.26471796938E+02  0.12159931726E+03  0.80145466508E+02 0.  0.
          5    1    3    3  501    0 -0.50684068934E+02 -0.77012596645E+02 -0.65382477879E+03  0.66030958363E+03  0.47000000000E+01 0. -1.
        -11    1    4    4    0    0 -0.22319885709E+02  0.33119988342E+02 -0.18569024954E+03  0.18993677816E+03  0.00000000000E+00 0.  1.
         12    1    4    4    0    0 -0.32756236142E+02 -0.26493283243E+02 -0.54599691041E+02  0.68963695702E+02  0.00000000000E+00 0. -1.
         -5    1    5    5    0  502  0.69628763282E+02 -0.93440405366E+01  0.49322130535E+02  0.85966495393E+02  0.47000000000E+01 0.  1.
         11    1    6    6    0    0 -0.39607792855E+01  0.11297452925E+02  0.24536071590E+02  0.27300897864E+02  0.00000000000E+00 0. -1.
        -12    1    6    6    0    0  0.40092206788E+02  0.68432479158E+02 -0.51007868528E+02  0.94298419396E+02  0.00000000000E+00 0.  1.
</event>
<event>
12    1  0.8449700E-002  0.2135475E+03  0.7818608E-02  0.1139168E+00
         21   -1    0    0  503  502  0.00000000000E+00  0.00000000000E+00  0.22140069618E+03  0.22140069618E+03  0.00000000000E+00 0.  1.
         21   -1    0    0  501  503 -0.00000000000E+00 -0.00000000000E+00 -0.26413585648E+03  0.26413585648E+03  0.00000000000E+00 0. -1.
          6    2    1    2  501    0  0.10248770101E+03  0.70858811206E+02 -0.13704075211E+03  0.25209256296E+03  0.17101401281E+03 0.  0.
         24    2    3    3    0    0  0.12744119987E+03  0.66960046241E+02 -0.67454222994E+02  0.17791539323E+03  0.79868064534E+02 0.  0.
         -6    2    1    2    0  502 -0.10248770101E+03 -0.70858811206E+02  0.94305591810E+02  0.23344398970E+03  0.17342967364E+03 0.  0.
        -24    2    5    5    0    0 -0.17852369353E+02  0.55626858070E+01 -0.41142007737E+01  0.82739211605E+02  0.80493477525E+02 0.  0.
          5    1    3    3  501    0 -0.24953498865E+02  0.38987649651E+01 -0.69586529114E+02  0.74177169722E+02  0.47000000000E+01 0. -1.
        -13    1    4    4    0    0  0.54167725890E+02  0.58468664563E+02 -0.26814067612E+01  0.79749089062E+02  0.00000000000E+00 0.  1.
         14    1    4    4    0    0  0.73273473982E+02  0.84913816776E+01 -0.64772816233E+02  0.98166304172E+02  0.00000000000E+00 0. -1.
         -5    1    5    5    0  502 -0.84635331653E+02 -0.76421497013E+02  0.98419792584E+02  0.15070477810E+03  0.47000000000E+01 0.  1.
         11    1    6    6    0    0 -0.32694399901E+02  0.34045671570E+02  0.89904976138E+01  0.48050604418E+02  0.00000000000E+00 0. -1.
        -12    1    6    6    0    0  0.14842030548E+02 -0.28482985763E+02 -0.13104698388E+02  0.34688607187E+02  0.00000000000E+00 0.  1.
</event>
<event>
12    1  0.8449700E-002  0.2139497E+03  0.7818608E-02  0.1138555E+00
         21   -1    0    0  503  502  0.00000000000E+00  0.00000000000E+00  0.63083527818E+03  0.63083527818E+03  0.00000000000E+00 0. -1.
         21   -1    0    0  501  503 -0.00000000000E+00 -0.00000000000E+00 -0.13491793395E+03  0.13491793395E+03  0.00000000000E+00 0.  1.
          6    2    1    2  501    0  0.13480223789E+02  0.12605913713E+03 -0.12497647097E+02  0.21431442133E+03  0.17234226852E+03 0.  0.
         24    2    3    3    0    0 -0.33151022304E+02  0.76586149482E+02 -0.67484957440E+02  0.12674876643E+03  0.67428493520E+02 0.  0.
         -6    2    1    2    0  502 -0.13480223789E+02 -0.12605913713E+03  0.50841499133E+03  0.55143879081E+03  0.17183222663E+03 0.  0.
        -24    2    5    5    0    0 -0.30766314478E+02 -0.79252994441E+01  0.29052681237E+03  0.30293977458E+03  0.79732689869E+02 0.  0.
          5    1    3    3  501    0  0.46631246094E+02  0.49472987653E+02  0.54987310343E+02  0.87565654901E+02  0.47000000000E+01 0. -1.
        -11    1    4    4    0    0  0.28611522777E+01  0.48563244691E+02 -0.64814395094E+02  0.81039994686E+02  0.00000000000E+00 0.  1.
         12    1    4    4    0    0 -0.36012174582E+02  0.28022904791E+02 -0.26705623463E+01  0.45708771743E+02  0.00000000000E+00 0. -1.
         -5    1    5    5    0  502  0.17286090689E+02 -0.11813383769E+03  0.21788817896E+03  0.24849901623E+03  0.47000000000E+01 0.  1.
         13    1    6    6    0    0 -0.12354559598E+02 -0.85212778207E+01  0.28241154819E+03  0.28281005971E+03  0.00000000000E+00 0. -1.
        -14    1    6    6    0    0 -0.18411754880E+02  0.59597837663E+00  0.81152641818E+01  0.20129714870E+02  0.00000000000E+00 0.  1.
</event>
<event>
12    1  0.8449700E-002  0.1935439E+03  0.7818608E-02  0.1156830E+00
         21   -1    0    0  503  502  0.00000000000E+00  0.00000000000E+00  0.19526416961E+03  0.19526416961E+03  0.00000000000E+00 0. -1.
         21   -1    0    0  501  503 -0.00000000000E+00 -0.00000000000E+00 -0.20679102882E+03  0.20679102882E+03  0.00000000000E+00 0.  1.
          6    2    1    2  501    0  0.46801119125E+02  0.58136577586E+02 -0.70688534388E+02  0.19967106966E+03  0.17117669456E+03 0.  0.
         24    2    3    3    0    0  0.10118284737E+02  0.47792792443E+01 -0.10151290377E+03  0.12780408577E+03  0.76836147163E+02 0.  0.
         -6    2    1    2    0  502 -0.46801119125E+02 -0.58136577586E+02  0.59161675181E+02  0.20238412878E+03  0.17857498528E+03 0.  0.
        -24    2    5    5    0    0 -0.27369038608E+02 -0.41602115246E+02  0.11019486438E+03  0.14513493142E+03  0.80258581567E+02 0.  0.
          5    1    3    3  501    0  0.36682834388E+02  0.53357298341E+02  0.30824369385E+02  0.71866983887E+02  0.47000000000E+01 0. -1.
        -13    1    4    4    0    0  0.55657761220E+01  0.29391917521E+02 -0.98078984330E+02  0.10253950383E+03  0.00000000000E+00 0.  1.
         14    1    4    4    0    0  0.45525086155E+01 -0.24612638276E+02 -0.34339194434E+01  0.25264581935E+02  0.00000000000E+00 0. -1.
         -5    1    5    5    0  502 -0.19432080517E+02 -0.16534462339E+02 -0.51033189201E+02  0.57249197358E+02  0.47000000000E+01 0.  1.
         11    1    6    6    0    0  0.10691759109E+02 -0.32421003380E+02  0.71179034455E+01  0.34872621388E+02  0.00000000000E+00 0. -1.
        -12    1    6    6    0    0 -0.38060797717E+02 -0.91811118666E+01  0.10307696094E+03  0.11026231003E+03  0.00000000000E+00 0.  1.
</event>
<event>
12    1  0.8449700E-002  0.2131261E+03  0.7818608E-02  0.1139219E+00
         21   -1    0    0  503  502  0.00000000000E+00  0.00000000000E+00  0.64072719848E+03  0.64072719848E+03  0.00000000000E+00 0. -1.
         21   -1    0    0  501  503 -0.00000000000E+00 -0.00000000000E+00 -0.84214089555E+02  0.84214089555E+02  0.00000000000E+00 0.  1.
          6    2    1    2  501    0 -0.96454636717E+02  0.80076105242E+02  0.13341916927E+03  0.25144266410E+03  0.17235735848E+03 0.  0.
         24    2    3    3    0    0 -0.47599350691E+02 -0.11059849019E+02  0.10586185411E+03  0.14432545376E+03  0.85059308723E+02 0.  0.
         -6    2    1    2    0  502  0.96454636717E+02 -0.80076105242E+02  0.42309393965E+03  0.47349862394E+03  0.17168804713E+03 0.  0.
        -24    2    5    5    0    0  0.12488875289E+03 -0.87583705248E+02  0.40084752999E+03  0.43632530336E+03  0.80205498752E+02 0.  0.
          5    1    3    3  501    0 -0.48855286027E+02  0.91135954261E+02  0.27557315166E+02  0.10711721034E+03  0.47000000000E+01 0. -1.
        -13    1    4    4    0    0 -0.60553011582E+02 -0.21164907403E+02  0.38114619450E+02  0.74614641544E+02  0.00000000000E+00 0.  1.
         14    1    4    4    0    0  0.12953660891E+02  0.10105058384E+02  0.67747234660E+02  0.69710812213E+02  0.00000000000E+00 0. -1.
         -5    1    5    5    0  502 -0.28434116169E+02  0.75076000065E+01  0.22246409665E+02  0.37173320583E+02  0.47000000000E+01 0.  1.
         13    1    6    6    0    0  0.25813315773E+02 -0.65812371618E+02  0.15419588093E+03  0.16962890445E+03  0.00000000000E+00 0. -1.
        -14    1    6    6    0    0  0.99075437113E+02 -0.21771333630E+02  0.24665164905E+03  0.26669639890E+03  0.00000000000E+00 0.  1.
</event>
<event>
12    1  0.8449700E-002  0.2030642E+03  0.7818608E-02  0.1147556E+00
         21   -1    0    0  503  502  0.00000000000E+00  0.00000000000E+00  0.71854470222E+03  0.71854470222E+03  0.00000000000E+00 0. -1.
         21   -1    0    0  501  503 -0.00000000000E+00 -0.00000000000E+00 -0.69802868016E+02  0.69802868016E+02  0.00000000000E+00 0.  1.
          6    2    1    2  501    0  0.10542561525E+03 -0.57004070576E+01  0.15355430886E+03  0.25314130081E+03  0.17133165911E+03 0.  0.
         24    2    3    3    0    0  0.50865742464E+02  0.65434080622E+01  0.67786156386E+01  0.96004784210E+02  0.80875391905E+02 0.  0.
         -6    2    1    2    0  502 -0.10542561525E+03  0.57004070576E+01  0.49518752534E+03  0.53520626943E+03  0.17345895938E+03 0.  0.
        -24    2    5    5    0    0 -0.78235600871E+02  0.71150552949E+02  0.30466749822E+03  0.33187651456E+03  0.78335981631E+02 0.  0.
          5    1    3    3  501    0  0.54559872788E+02 -0.12243815120E+02  0.14677569322E+03  0.15713651660E+03  0.47000000000E+01 0. -1.
        -13    1    4    4    0    0 -0.14396560450E+02  0.10570357025E+02 -0.18673082835E+02  0.25839454774E+02  0.00000000000E+00 0.  1.
         14    1    4    4    0    0  0.65262302915E+02 -0.40269489627E+01  0.25451698474E+02  0.70165329436E+02  0.00000000000E+00 0. -1.
         -5    1    5    5    0  502 -0.27190014381E+02 -0.65450145891E+02  0.19052002712E+03  0.20332975487E+03  0.47000000000E+01 0.  1.
         11    1    6    6    0    0 -0.11655312794E+02 -0.35119568860E+00  0.13942402854E+03  0.13991079083E+03  0.00000000000E+00 0. -1.
        -12    1    6    6    0    0 -0.66580288077E+02  0.71501748637E+02  0.16524346968E+03  0.19196572374E+03  0.00000000000E+00 0.  1.
</event>
<event>
12    1  0.8449700E-002  0.2011727E+03  0.7818608E-02  0.1148962E+00
         21   -1    0    0  501  502  0.00000000000E+00  0.00000000000E+00  0.30454892159E+02  0.30454892159E+02  0.00000000000E+00 0.  1.
         21   -1    0    0  502  503 -0.00000000000E+00 -0.00000000000E+00 -0.15805718404E+04  0.15805718404E+04  0.00000000000E+00 0.  1.
         -6    2    1    2    0  503 -0.70218567250E+02 -0.74485038914E+02 -0.11022766257E+04  0.11204839264E+04  0.17318141202E+03 0.  0.
        -24    2    3    3    0    0 -0.56544338274E+02 -0.10601444987E+03 -0.10331638101E+04  0.10431550212E+04  0.79426783816E+02 0.  0.
          6    2    1    2  501    0  0.70218567250E+02  0.74485038914E+02 -0.44784032249E+03  0.49054280614E+03  0.17202506213E+03 0.  0.
         24    2    5    5    0    0  0.34984701726E+02 -0.28518466225E+02 -0.11939670597E+03  0.14449592119E+03  0.67721972609E+02 0.  0.
          5    1    5    5  501    0  0.35233865524E+02  0.10300350514E+03 -0.32844361652E+03  0.34604688495E+03  0.47000000000E+01 0. -1.
        -13    1    6    6    0    0 -0.11861481278E+02  0.12654681510E+02 -0.15213543609E+02  0.23071359114E+02  0.00000000000E+00 0.  1.
         14    1    6    6    0    0  0.46846183004E+02 -0.41173147735E+02 -0.10418316236E+03  0.12142456208E+03  0.00000000000E+00 0. -1.
         -5    1    3    3    0  503 -0.13674228976E+02  0.31529410959E+02 -0.69112815600E+02  0.77328905162E+02  0.47000000000E+01 0.  1.
         11    1    4    4    0    0 -0.53616918267E+02 -0.34291410695E+02 -0.31185738963E+03  0.31828557341E+03  0.00000000000E+00 0. -1.
        -12    1    4    4    0    0 -0.29274200071E+01 -0.71723039179E+02 -0.72130642050E+03  0.72486944782E+03  0.00000000000E+00 0.  1.
</event>
<event>
12    1  0.8449700E-002  0.1969609E+03  0.7818608E-02  0.1152492E+00
         21   -1    0    0  503  502  0.00000000000E+00  0.00000000000E+00  0.74127553807E+02  0.74127553807E+02  0.00000000000E+00 0.  1.
         21   -1    0    0  501  503 -0.00000000000E+00 -0.00000000000E+00 -0.52776910607E+03  0.52776910607E+03  0.00000000000E+00 0. -1.
          6    2    1    2  501    0  0.11182527188E+02 -0.94771732628E+02 -0.19399805634E+03  0.27645763786E+03  0.17229872155E+03 0.  0.
         24    2    3    3    0    0  0.56186267666E+02 -0.56610366946E+02 -0.18491251941E+03  0.21657221836E+03  0.79682216397E+02 0.  0.
         -6    2    1    2    0  502 -0.11182527188E+02  0.94771732628E+02 -0.25964349592E+03  0.32543902202E+03  0.17143244109E+03 0.  0.
        -24    2    5    5    0    0  0.34353182668E+02  0.38714627571E+02 -0.59873952483E+02  0.11296346958E+03  0.80603298477E+02 0.  0.
          5    1    3    3  501    0 -0.45003740478E+02 -0.38161365682E+02 -0.90855369329E+01  0.59885419503E+02  0.47000000000E+01 0. -1.
        -13    1    4    4    0    0 -0.14576948277E+02 -0.29955964832E+02 -0.33059850683E+02  0.46934006618E+02  0.00000000000E+00 0.  1.
         14    1    4    4    0    0  0.70763215943E+02 -0.26654402115E+02 -0.15185266873E+03  0.16963821174E+03  0.00000000000E+00 0. -1.
         -5    1    5    5    0  502 -0.45535709855E+02  0.56057105058E+02 -0.19976954344E+03  0.21247555244E+03  0.47000000000E+01 0.  1.
         11    1    6    6    0    0  0.86463945476E+00  0.14626764257E+02 -0.69146943489E+02  0.70682314817E+02  0.00000000000E+00 0. -1.
        -12    1    6    6    0    0  0.33488543213E+02  0.24087863313E+02  0.92729910060E+01  0.42281154759E+02  0.00000000000E+00 0.  1.
</event>
<event>
12    1  0.8449700E-002  0.3138794E+03  0.7818608E-02  0.1078509E+00
         21   -1    0    0  501  502  0.00000000000E+00  0.00000000000E+00  0.14638973820E+03  0.14638973820E+03  0.00000000000E+00 0.  1.
         21   -1    0    0  502  503 -0.00000000000E+00 -0.00000000000E+00 -0.88811607243E+03  0.88811607243E+03  0.00000000000E+00 0.  1.
         -6    2    1    2    0  503  0.22926556800E+03  0.12783619761E+03 -0.62548610771E+03  0.69979389847E+03  0.17197044892E+03 0.  0.
        -24    2    3    3    0    0  0.32799962229E+02  0.11853229200E+02 -0.17403233198E+03  0.19394472644E+03  0.78172679223E+02 0.  0.
          6    2    1    2  501    0 -0.22926556800E+03 -0.12783619761E+03 -0.11624022651E+03  0.33471191216E+03  0.17209148670E+03 0.  0.
         24    2    5    5    0    0 -0.17159860905E+03 -0.17787690307E+02 -0.75330438771E+02  0.20382320812E+03  0.78145637167E+02 0.  0.
          5    1    5    5  501    0 -0.57666958949E+02 -0.11004850730E+03 -0.40909787744E+02  0.13088870405E+03  0.47000000000E+01 0. -1.
        -13    1    6    6    0    0 -0.83204457555E+02 -0.36920808297E+02 -0.86098914553E+01  0.91434446864E+02  0.00000000000E+00 0.  1.
         14    1    6    6    0    0 -0.88394151493E+02  0.19133117990E+02 -0.66720547315E+02  0.11238876125E+03  0.00000000000E+00 0. -1.
         -5    1    3    3    0  503  0.19646560577E+03  0.11598296841E+03 -0.45145377574E+03  0.50584917203E+03  0.47000000000E+01 0.  1.
         13    1    4    4    0    0  0.33790219743E+02 -0.18816189806E+02 -0.37018751486E+02  0.53537051756E+02  0.00000000000E+00 0. -1.
        -14    1    4    4    0    0 -0.99025751386E+00  0.30669419006E+02 -0.13701358049E+03  0.14040767469E+03  0.00000000000E+00 0.  1.
</event>
<event>
12    1  0.8449700E-002  0.1926257E+03  0.7818608E-02  0.1156160E+00
         21   -1    0    0  501  502  0.00000000000E+00  0.00000000000E+00  0.28211787200E+03  0.28211787200E+03  0.00000000000E+00 0. -1.
         21   -1    0    0  502  503 -0.00000000000E+00 -0.00000000000E+00 -0.32460457607E+03  0.32460457607E+03  0.00000000000E+00 0. -1.
         -6    2    1    2    0  503 -0.80305817613E+02 -0.19584348839E+02 -0.25529131738E+03  0.31968504078E+03  0.17375930912E+03 0.  0.
        -24    2    3    3    0    0 -0.63796976983E+02 -0.54403576415E+02 -0.25368201188E+03  0.28083146576E+03  0.86498240511E+02 0.  0.
          6    2    1    2  501    0  0.80305817613E+02  0.19584348839E+02  0.21280461331E+03  0.28703740728E+03  0.17398878892E+03 0.  0.
         24    2    5    5    0    0  0.46214086114E+02 -0.26014922075E+02  0.38724129883E+02  0.10382265794E+03  0.80418083421E+02 0.  0.
          5    1    5    5  501    0  0.34091731498E+02  0.45599270914E+02  0.17408048343E+03  0.18321474934E+03  0.47000000000E+01 0. -1.
        -13    1    6    6    0    0  0.60781771343E+02 -0.39428237466E+02  0.42011166803E+02  0.83749315062E+02  0.00000000000E+00 0.  1.
         14    1    6    6    0    0 -0.14567685229E+02  0.13413315390E+02 -0.32870369199E+01  0.20073342881E+02  0.00000000000E+00 0. -1.
         -5    1    3    3    0  503 -0.16508840630E+02  0.34819227575E+02 -0.16093055055E+01  0.38853575023E+02  0.47000000000E+01 0.  1.
         13    1    4    4    0    0 -0.63533169259E+02 -0.29299429753E+02 -0.24415103443E+03  0.25397765215E+03  0.00000000000E+00 0. -1.
        -14    1    4    4    0    0 -0.26380772384E+00 -0.25104146661E+02 -0.95309774478E+01  0.26853813607E+02  0.00000000000E+00 0.  1.
</event>
<event>
12    1  0.8449700E-002  0.2699757E+03  0.7818608E-02  0.1101573E+00
         21   -1    0    0  501  502  0.00000000000E+00  0.00000000000E+00  0.96916627224E+03  0.96916627224E+03  0.00000000000E+00 0. -1.
         21   -1    0    0  502  503 -0.00000000000E+00 -0.00000000000E+00 -0.75139684675E+02  0.75139684675E+02  0.00000000000E+00 0.  1.
         -6    2    1    2    0  503  0.13983235898E+02 -0.20668403482E+03  0.48695218581E+03  0.55584258703E+03  0.17007271725E+03 0.  0.
        -24    2    3    3    0    0  0.56291928001E+02 -0.97152895911E+02  0.17261609818E+03  0.22025897330E+03  0.78167970584E+02 0.  0.
          6    2    1    2  501    0 -0.13983235898E+02  0.20668403482E+03  0.40707440175E+03  0.48846336988E+03  0.17312733469E+03 0.  0.
         24    2    5    5    0    0 -0.12701577999E+02  0.11599416527E+03  0.36166827405E+03  0.38692469981E+03  0.72737929644E+02 0.  0.
          5    1    5    5  501    0 -0.12816578990E+01  0.90689869552E+02  0.45406127697E+02  0.10153867007E+03  0.47000000000E+01 0. -1.
        -11    1    6    6    0    0  0.43651621364E+01 -0.93304372402E+01  0.18268343735E+02  0.20972460094E+02  0.00000000000E+00 0.  1.
         12    1    6    6    0    0 -0.17066740136E+02  0.12532460251E+03  0.34339993032E+03  0.36595223972E+03  0.00000000000E+00 0. -1.
         -5    1    3    3    0  503 -0.42308692103E+02 -0.10953113891E+03  0.31433608763E+03  0.33558361373E+03  0.47000000000E+01 0.  1.
         11    1    4    4    0    0  0.23141814429E+02  0.71467002957E+01  0.52170089669E+02  0.57518146321E+02  0.00000000000E+00 0. -1.
        -12    1    4    4    0    0  0.33150113572E+02 -0.10429959621E+03  0.12044600851E+03  0.16274082698E+03  0.00000000000E+00 0.  1.
</event>
<event>
12    1  0.8449700E-002  0.2952846E+03  0.7818608E-02  0.1088263E+00
         21   -1    0    0  501  502  0.00000000000E+00  0.00000000000E+00  0.47232960930E+03  0.47232960930E+03  0.00000000000E+00 0. -1.
         21   -1    0    0  502  503 -0.00000000000E+00 -0.00000000000E+00 -0.22109413613E+03  0.22109413613E+03  0.00000000000E+00 0.  1.
         -6    2    1    2    0  503  0.22476133088E+03 -0.69035754554E+02 -0.20221693931E+02  0.29597621693E+03  0.17863205988E+03 0.  0.
        -24    2    3    3    0    0  0.11195874341E+03  0.13544951244E+02 -0.60287311338E+02  0.15047246987E+03  0.79304340046E+02 0.  0.
          6    2    1    2  501    0 -0.22476133088E+03  0.69035754554E+02  0.27145716710E+03  0.39744752850E+03  0.17027023542E+03 0.  0.
         24    2    5    5    0    0 -0.10144441431E+03  0.60467514046E+02  0.22316553841E+03  0.26465201630E+03  0.79312941858E+02 0.  0.
          5    1    5    5  501    0 -0.12331691658E+03  0.85682405074E+01  0.48291628692E+02  0.13279551220E+03  0.47000000000E+01 0. -1.
        -13    1    6    6    0    0 -0.74802735172E+00 -0.66071978978E+01  0.65878020436E+02  0.66212749418E+02  0.00000000000E+00 0.  1.
         14    1    6    6    0    0 -0.10069638695E+03  0.67074711944E+02  0.15728751798E+03  0.19843926688E+03  0.00000000000E+00 0. -1.
         -5    1    3    3    0  503  0.11280258748E+03 -0.82580705798E+02  0.40065617407E+02  0.14550374706E+03  0.47000000000E+01 0.  1.
         13    1    4    4    0    0  0.23103930169E+02  0.14492206895E+02  0.17475455439E+02  0.32391467900E+02  0.00000000000E+00 0. -1.
        -14    1    4    4    0    0  0.88854813238E+02 -0.94725565060E+00 -0.77762766777E+02  0.11808100197E+03  0.00000000000E+00 0.  1.
</event>
<event>
12    1  0.8449700E-002  0.2301199E+03  0.7818608E-02  0.1126809E+00
         21   -1    0    0  503  502  0.00000000000E+00  0.00000000000E+00  0.19259967700E+03  0.19259967700E+03  0.00000000000E+00 0.  1.
         21   -1    0    0  501  503 -0.00000000000E+00 -0.00000000000E+00 -0.59555721137E+03  0.59555721137E+03  0.00000000000E+00 0. -1.
          6    2    1    2  501    0 -0.10172056305E+02 -0.15104645879E+03 -0.49110144110E+03  0.54173343420E+03  0.17139423808E+03 0.  0.
         24    2    3    3    0    0 -0.70885360821E+01 -0.94155358243E+02 -0.13996617619E+03  0.18597485078E+03  0.77978431736E+02 0.  0.
         -6    2    1    2    0  502  0.10172056305E+02  0.15104645879E+03  0.88143906732E+02  0.24642345417E+03  0.17331089703E+03 0.  0.
        -24    2    5    5    0    0 -0.11066847470E+02  0.30676507293E+02 -0.14916950861E+02  0.86474566634E+02  0.78688067957E+02 0.  0.
          5    1    3    3  501    0 -0.30835202229E+01 -0.56891100543E+02 -0.35113526491E+03  0.35575858343E+03  0.47000000000E+01 0. -1.
        -11    1    4    4    0    0 -0.30855941312E+02 -0.47082748079E+02 -0.29468863233E+02  0.63539658333E+02  0.00000000000E+00 0.  1.
         12    1    4    4    0    0  0.23767405229E+02 -0.47072610164E+02 -0.11049731295E+03  0.12243519245E+03  0.00000000000E+00 0. -1.
         -5    1    5    5    0  502  0.21238903775E+02  0.12036995149E+03  0.10306085759E+03  0.15994888754E+03  0.47000000000E+01 0.  1.
         11    1    6    6    0    0  0.10268469124E+01 -0.22251924370E+02  0.12615642541E+02  0.25599941201E+02  0.00000000000E+00 0. -1.
        -12    1    6    6    0    0 -0.12093694383E+02  0.52928431663E+02 -0.27532593403E+02  0.60874625433E+02  0.00000000000E+00 0.  1.
</event>
<event>
12    1  0.8449700E-002  0.2073067E+03  0.7818608E-02  0.1143800E+00
         21   -1    0    0  503  502  0.00000000000E+00  0.00000000000E+00  0.93249264974E+02  0.93249264974E+02  0.00000000000E+00 0. -1.
         21   -1    0    0  501  503 -0.00000000000E+00 -0.00000000000E+00 -0.55346903273E+03  0.55346903273E+03  0.00000000000E+00 0.  1.
          6    2    1    2  501    0 -0.11152192932E+03  0.32377726018E+02 -0.36283429656E+03  0.41767685873E+03  0.17123017753E+03 0.  0.
         24    2    3    3    0    0 -0.78865259833E+02 -0.23585642889E+02 -0.11980738054E+03  0.16611666984E+03  0.80404774794E+02 0.  0.
         -6    2    1    2    0  502  0.11152192932E+03 -0.32377726018E+02 -0.97385471192E+02  0.22904143897E+03  0.17172825307E+03 0.  0.
        -24    2    5    5    0    0  0.92184012370E+02 -0.85858932140E+01  0.39805593108E+01  0.12303592741E+03  0.80934448062E+02 0.  0.
          5    1    3    3  501    0 -0.32656669491E+02  0.55963368907E+02 -0.24302691603E+03  0.25156018889E+03  0.47000000000E+01 0. -1.
        -13    1    4    4    0    0  0.16199030369E+02 -0.86198136976E+01 -0.25133034264E+02  0.31118791499E+02  0.00000000000E+00 0.  1.
         14    1    4    4    0    0 -0.95064290202E+02 -0.14965829191E+02 -0.94674346274E+02  0.13499787834E+03  0.00000000000E+00 0. -1.
         -5    1    5    5    0  502  0.19337916954E+02 -0.23791832804E+02 -0.10136603050E+03  0.10600551156E+03  0.47000000000E+01 0.  1.
         11    1    6    6    0    0  0.31985885483E+02  0.35918652758E+02  0.24061842087E+01  0.48156372461E+02  0.00000000000E+00 0. -1.
        -12    1    6    6    0    0  0.60198126887E+02 -0.44504545972E+02  0.15743751021E+01  0.74879554952E+02  0.00000000000E+00 0.  1.
</event>
<event>
12    1  0.8449700E-002  0.1984344E+03  0.7818608E-02  0.1151160E+00
         21   -1    0    0  503  502  0.00000000000E+00  0.00000000000E+00  0.23993167647E+03  0.23993167647E+03  0.00000000000E+00 0.  1.
         21   -1    0    0  501  503 -0.00000000000E+00 -0.00000000000E+00 -0.73505751055E+03  0.73505751055E+03  0.00000000000E+00 0.  1.
          6    2    1    2  501    0 -0.53795160949E+02  0.82216459965E+02 -0.67727876702E+03  0.70562717759E+03  0.17190031958E+03 0.  0.
         24    2    3    3    0    0 -0.24216575235E+01  0.11061221972E+03 -0.43906683646E+03  0.46024468048E+03  0.82489705173E+02 0.  0.
         -6    2    1    2    0  502  0.53795160949E+02 -0.82216459965E+02  0.18215293294E+03  0.26936200943E+03  0.17240282920E+03 0.  0.
        -24    2    5    5    0    0  0.22741585205E+02 -0.13289925830E+01  0.16844721658E+02  0.82664388495E+02  0.77657649711E+02 0.  0.
          5    1    3    3  501    0 -0.51373503425E+02 -0.28395759751E+02 -0.23821193056E+03  0.24538249711E+03  0.47000000000E+01 0. -1.
        -13    1    4    4    0    0 -0.26324531177E+02  0.68060660376E+02 -0.36004715946E+03  0.36736792384E+03  0.00000000000E+00 0.  1.
         14    1    4    4    0    0  0.23902873654E+02  0.42551559340E+02 -0.79019676993E+02  0.92876756636E+02  0.00000000000E+00 0. -1.
         -5    1    5    5    0  502  0.31053575744E+02 -0.80887467382E+02  0.16530821128E+03  0.18669762094E+03  0.47000000000E+01 0.  1.
         11    1    6    6    0    0  0.40740539191E+02  0.25719477802E+02  0.13300891872E+02  0.49981964713E+02  0.00000000000E+00 0. -1.
        -12    1    6    6    0    0 -0.17998953986E+02 -0.27048470385E+02  0.35438297859E+01  0.32682423783E+02  0.00000000000E+00 0.  1.
</event>
<event>
12    1  0.8449700E-002  0.1944792E+03  0.7818608E-02  0.1154901E+00
         21   -1    0    0  503  502  0.00000000000E+00  0.00000000000E+00  0.10626253827E+04  0.10626253827E+04  0.00000000000E+00 0.  1.
         21   -1    0    0  501  503 -0.00000000000E+00 -0.00000000000E+00 -0.78908831125E+02  0.78908831125E+02  0.00000000000E+00 0. -1.
          6    2    1    2  501    0  0.59950961289E+01  0.87833023287E+02  0.66207877701E+02  0.20364066549E+03  0.17127596566E+03 0.  0.
         24    2    3    3    0    0  0.43516122011E+01 -0.18462654782E+02  0.79515714590E+01  0.82325540989E+02  0.79714873519E+02 0.  0.
         -6    2    1    2    0  502 -0.59950961289E+01 -0.87833023287E+02  0.91750867390E+03  0.93789354837E+03  0.17341153428E+03 0.  0.
        -24    2    5    5    0    0 -0.52676143776E+02 -0.34670236076E+02  0.31630473179E+03  0.33252285848E+03  0.80907148444E+02 0.  0.
          5    1    3    3  501    0  0.16434839277E+01  0.10629567807E+03  0.58256306242E+02  0.12131512450E+03  0.47000000000E+01 0. -1.
        -11    1    4    4    0    0 -0.15427272533E+02 -0.18856273047E+02  0.38719401600E+02  0.45746604588E+02  0.00000000000E+00 0.  1.
         12    1    4    4    0    0  0.19778884734E+02  0.39361826569E+00 -0.30767830141E+02  0.36578936402E+02  0.00000000000E+00 0. -1.
         -5    1    5    5    0  502  0.46681047647E+02 -0.53162787210E+02  0.60120394212E+03  0.60537068988E+03  0.47000000000E+01 0.  1.
         13    1    6    6    0    0 -0.46423128572E+02 -0.39321431957E+02  0.31863318483E+03  0.32438925437E+03  0.00000000000E+00 0. -1.
        -14    1    6    6    0    0 -0.62530152040E+01  0.46511958806E+01 -0.23284530415E+01  0.81336041106E+01  0.00000000000E+00 0.  1.
</event>
<event>
12    1  0.8449700E-002  0.2120192E+03  0.7818608E-02  0.1140306E+00
         21   -1    0    0  503  502  0.00000000000E+00  0.00000000000E+00  0.46328119136E+03  0.46328119136E+03  0.00000000000E+00 0.  1.
         21   -1    0    0  501  503 -0.00000000000E+00 -0.00000000000E+00 -0.11775397075E+03  0.11775397075E+03  0.00000000000E+00 0.  1.
          6    2    1    2  501    0 -0.61168861232E+01 -0.11736966691E+03  0.29630983121E+03  0.36337831305E+03  0.17444548522E+03 0.  0.
         24    2    3    3    0    0 -0.58648619944E+02 -0.25239508121E+02  0.12129591161E+03  0.15868461194E+03  0.79946322631E+02 0.  0.
         -6    2    1    2    0  502  0.61168861232E+01  0.11736966691E+03  0.49217389398E+02  0.21765684906E+03  0.17646273690E+03 0.  0.
        -24    2    5    5    0    0  0.32399738613E+02 -0.49846746681E+01  0.10983183553E+02  0.86716718709E+02  0.79527158499E+02 0.  0.
          5    1    3    3  501    0  0.52531733820E+02 -0.92130158794E+02  0.17501391960E+03  0.20469370110E+03  0.47000000000E+01 0. -1.
        -13    1    4    4    0    0 -0.48463704642E+02 -0.53450950133E+02  0.89753788845E+02  0.11515848796E+03  0.00000000000E+00 0.  1.
         14    1    4    4    0    0 -0.10184915302E+02  0.28211442012E+02  0.31542122765E+02  0.43526123979E+02  0.00000000000E+00 0. -1.
         -5    1    5    5    0  502 -0.26282852489E+02  0.12235434158E+03  0.38234205845E+02  0.13094013035E+03  0.47000000000E+01 0.  1.
         11    1    6    6    0    0  0.31320538729E+02  0.11430151451E+02  0.40783489005E+02  0.52677485551E+02  0.00000000000E+00 0. -1.
        -12    1    6    6    0    0  0.10791998834E+01 -0.16414826119E+02 -0.29800305453E+02  0.34039233158E+02  0.00000000000E+00 0.  1.
</event>
<event>
12    1  0.8449700E-002  0.1784871E+03  0.7818608E-02  0.1170022E+00
         21   -1    0    0  501  502  0.00000000000E+00  0.00000000000E+00  0.85223677526E+02  0.85223677526E+02  0.00000000000E+00 0.  1.
         21   -1    0    0  502  503 -0.00000000000E+00 -0.00000000000E+00 -0.42585288342E+03  0.42585288342E+03  0.00000000000E+00 0.  1.
         -6    2    1    2    0  503 -0.33124885000E+01 -0.35550131193E+02 -0.26615383704E+03  0.32046138952E+03  0.17487953795E+03 0.  0.
        -24    2    3    3    0    0  0.20641385696E+02  0.10583276835E+02 -0.45598799766E+02  0.93814761718E+02  0.78637690862E+02 0.  0.
          6    2    1    2  501    0  0.33124885000E+01  0.35550131193E+02 -0.74475368851E+02  0.19061517143E+03  0.17179283630E+03 0.  0.
         24    2    5    5    0    0 -0.98022658110E+01  0.80444631058E+02 -0.86239334772E+02  0.14215906972E+03  0.78768998722E+02 0.  0.
          5    1    5    5  501    0  0.13114754311E+02 -0.44894499865E+02  0.11763965921E+02  0.48456101710E+02  0.47000000000E+01 0. -1.
        -13    1    6    6    0    0  0.40624207273E+01  0.83284736549E+02 -0.37539219464E+02  0.91444210326E+02  0.00000000000E+00 0.  1.
         14    1    6    6    0    0 -0.13864686538E+02 -0.28401054909E+01 -0.48700115308E+02  0.50714859391E+02  0.00000000000E+00 0. -1.
         -5    1    3    3    0  503 -0.23953874196E+02 -0.46133408028E+02 -0.22055503728E+03  0.22664662780E+03  0.47000000000E+01 0.  1.
         11    1    4    4    0    0  0.15534826587E+02  0.27333869854E+02 -0.62193863070E+02  0.69688936582E+02  0.00000000000E+00 0. -1.
        -12    1    4    4    0    0  0.51065591094E+01 -0.16750593019E+02  0.16595063305E+02  0.24125825136E+02  0.00000000000E+00 0.  1.
</event>
<event>
12    1  0.8449700E-002  0.2078397E+03  0.7818608E-02  0.1143493E+00
         21   -1    0    0  503  502  0.00000000000E+00  0.00000000000E+00  0.32260107665E+03  0.32260107665E+03  0.00000000000E+00 0. -1.
         21   -1    0    0  501  503 -0.00000000000E+00 -0.00000000000E+00 -0.14880761434E+03  0.14880761434E+03  0.00000000000E+00 0. -1.
          6    2    1    2  501    0  0.29486782959E+02 -0.10958290175E+03  0.10486253602E+02  0.20708584443E+03  0.17290663007E+03 0.  0.
         24    2    3    3    0    0  0.61862162371E+02 -0.40614251158E+02 -0.39857120853E+02  0.11564523360E+03  0.79427863133E+02 0.  0.
         -6    2    1    2    0  502 -0.29486782959E+02  0.10958290175E+03  0.16330720871E+03  0.26432284657E+03  0.17412478307E+03 0.  0.
        -24    2    5    5    0    0 -0.53993021640E+01  0.10736581868E+03  0.18728301759E+03  0.22994186928E+03  0.79004829502E+02 0.  0.
          5    1    3    3  501    0 -0.32375379413E+02 -0.68968650592E+02  0.50343374455E+02  0.91440610825E+02  0.47000000000E+01 0. -1.
        -13    1    4    4    0    0  0.49775230418E+02 -0.39778663385E+02  0.98575807204E+01  0.64475480002E+02  0.00000000000E+00 0.  1.
         14    1    4    4    0    0  0.12086931953E+02 -0.83558777316E+00 -0.49714701573E+02  0.51169753600E+02  0.00000000000E+00 0. -1.
         -5    1    5    5    0  502 -0.24087480795E+02  0.22170830676E+01 -0.23975808879E+02  0.34380977295E+02  0.47000000000E+01 0.  1.
         11    1    6    6    0    0 -0.42075141476E+02  0.63071567429E+02  0.11055530875E+03  0.13405527382E+03  0.00000000000E+00 0. -1.
        -12    1    6    6    0    0  0.36675839312E+02  0.44294251253E+02  0.76727708841E+02  0.95886595452E+02  0.00000000000E+00 0.  1.
</event>
<event>
12    1  0.8449700E-002  0.3053777E+03  0.7818608E-02  0.1082628E+00
         21   -1    0    0  503  502  0.00000000000E+00  0.00000000000E+00  0.31546301877E+03  0.31546301877E+03  0.00000000000E+00 0.  1.
         21   -1    0    0  501  503 -0.00000000000E+00 -0.00000000000E+00 -0.32352658696E+03  0.32352658696E+03  0.00000000000E+00 0. -1.
          6    2    1    2  501    0 -0.86087259959E+02 -0.23718722376E+03  0.90418756152E+02  0.31812463713E+03  0.17134450047E+03 0.  0.
         24    2    3    3    0    0 -0.10021673628E+03 -0.16245296096E+03  0.11504121780E+03  0.23804213121E+03  0.83637405997E+02 0.  0.
         -6    2    1    2    0  502  0.86087259959E+02  0.23718722376E+03 -0.98482324338E+02  0.32086496860E+03  0.17200803594E+03 0.  0.
        -24    2    5    5    0    0  0.10243003080E+03  0.10362975076E+03 -0.82549214594E+02  0.18528975428E+03  0.79289871723E+02 0.  0.
          5    1    3    3  501    0  0.14129476322E+02 -0.74734262796E+02 -0.24622461644E+02  0.80082505918E+02  0.47000000000E+01 0. -1.
        -11    1    4    4    0    0 -0.82718487574E+02 -0.13856228454E+03  0.53954057403E+02  0.17015550298E+03  0.00000000000E+00 0.  1.
         12    1    4    4    0    0 -0.17498248708E+02 -0.23890676424E+02  0.61087160393E+02  0.67886628232E+02  0.00000000000E+00 0. -1.
         -5    1    5    5    0  502 -0.16342770844E+02  0.13355747300E+03 -0.15933109744E+02  0.13557521432E+03  0.47000000000E+01 0.  1.
         13    1    6    6    0    0  0.10004563461E+03  0.11605776332E+03 -0.75929801640E+02  0.17100838637E+03  0.00000000000E+00 0. -1.
        -14    1    6    6    0    0  0.23843961898E+01 -0.12428012562E+02 -0.66194129544E+01  0.14281367907E+02  0.00000000000E+00 0.  1.
</event>
<event>
12    1  0.8449700E-002  0.1750732E+03  0.7818608E-02  0.1172898E+00
         21   -1    0    0  503  502  0.00000000000E+00  0.00000000000E+00  0.79953522496E+03  0.79953522496E+03  0.00000000000E+00 0. -1.
         21   -1    0    0  501  503 -0.00000000000E+00 -0.00000000000E+00 -0.70567796717E+02  0.70567796717E+02  0.00000000000E+00 0. -1.
          6    2    1    2  501    0  0.23779675014E+02 -0.40472285818E+01  0.68972430489E+02  0.18728239552E+03  0.17244026937E+03 0.  0.
         24    2    3    3    0    0 -0.20623897499E+02  0.36504260607E+02 -0.62295172210E+01  0.90879473017E+02  0.80388839652E+02 0.  0.
         -6    2    1    2    0  502 -0.23779675014E+02  0.40472285818E+01  0.65999499776E+03  0.68282062616E+03  0.17340345281E+03 0.  0.
        -24    2    5    5    0    0 -0.29673316329E+02  0.95912474767E+01  0.12082835489E+03  0.14357278895E+03  0.71001103177E+02 0.  0.
          5    1    3    3  501    0  0.44403572513E+02 -0.40551489189E+02  0.75201947710E+02  0.96402922501E+02  0.47000000000E+01 0. -1.
        -13    1    4    4    0    0 -0.81318736566E+00  0.32236832877E+02  0.33364234169E+02  0.46400935220E+02  0.00000000000E+00 0.  1.
         14    1    4    4    0    0 -0.19810710133E+02  0.42674277299E+01 -0.39593751390E+02  0.44478537797E+02  0.00000000000E+00 0. -1.
         -5    1    5    5    0  502  0.58936413153E+01 -0.55440188949E+01  0.53916664287E+03  0.53924783721E+03  0.47000000000E+01 0.  1.
         11    1    6    6    0    0 -0.30415224570E+02 -0.26901583146E+02  0.71238381774E+02  0.81998098144E+02  0.00000000000E+00 0. -1.
        -12    1    6    6    0    0  0.74190824024E+00  0.36492830623E+02  0.49589973115E+02  0.61574690810E+02  0.00000000000E+00 0.  1.
</event>
<event>
12    1  0.8449700E-002  0.1791907E+03  0.7818608E-02  0.1169355E+00
         21   -1    0    0  501  502  0.00000000000E+00  0.00000000000E+00  0.40071679392E+03  0.40071679392E+03  0.00000000000E+00 0. -1.
         21   -1    0    0  502  503 -0.00000000000E+00 -0.00000000000E+00 -0.81143579838E+02  0.81143579838E+02  0.00000000000E+00 0. -1.
         -6    2    1    2    0  503 -0.90335462443E+01  0.42794655760E+02  0.11968711513E+03  0.21548621658E+03  0.17377087353E+03 0.  0.
        -24    2    3    3    0    0 -0.53839084655E+02  0.62281022230E+02  0.46936676985E+02  0.12772534260E+03  0.85633747610E+02 0.  0.
          6    2    1    2  501    0  0.90335462443E+01 -0.42794655760E+02  0.19988609895E+03  0.26637415718E+03  0.17055131644E+03 0.  0.
         24    2    5    5    0    0 -0.53113928883E+02  0.11851880900E+01  0.67761162788E+02  0.11381064881E+03  0.74423077662E+02 0.  0.
          5    1    5    5  501    0  0.62147475127E+02 -0.43979843850E+02  0.13212493617E+03  0.15256350837E+03  0.47000000000E+01 0. -1.
        -13    1    6    6    0    0 -0.31681100808E+01  0.29193845020E+02  0.67400190047E+01  0.30128812866E+02  0.00000000000E+00 0.  1.
         14    1    6    6    0    0 -0.49945818802E+02 -0.28008656930E+02  0.61021143784E+02  0.83681835947E+02  0.00000000000E+00 0. -1.
         -5    1    3    3    0  503  0.44805538411E+02 -0.19486366470E+02  0.72750438144E+02  0.87760873974E+02  0.47000000000E+01 0.  1.
         13    1    4    4    0    0 -0.25979600776E+02  0.76063212505E+02  0.52699586448E+02  0.96113466095E+02  0.00000000000E+00 0. -1.
        -14    1    4    4    0    0 -0.27859483879E+02 -0.13782190274E+02 -0.57629094633E+01  0.31611876506E+02  0.00000000000E+00 0.  1.
</event>
<event>
12    1  0.8449700E-002  0.9624630E+03  0.7818608E-02  0.9350756E-01
         21   -1    0    0  503  502  0.00000000000E+00  0.00000000000E+00  0.11204232137E+04  0.11204232137E+04  0.00000000000E+00 0.  1.
         21   -1    0    0  501  503 -0.00000000000E+00 -0.00000000000E+00 -0.83256960917E+03  0.83256960917E+03  0.00000000000E+00 0. -1.
          6    2    1    2  501    0 -0.91046127025E+03 -0.25988447895E+03  0.61300642393E+02  0.96441314408E+03  0.17278679550E+03 0.  0.
         24    2    3    3    0    0 -0.22712262363E+03 -0.41759086367E+02  0.25221043113E+02  0.24618322245E+03  0.81495831421E+02 0.  0.
         -6    2    1    2    0  502  0.91046127025E+03  0.25988447895E+03  0.22655296209E+03  0.98857967875E+03  0.17170867652E+03 0.  0.
        -24    2    5    5    0    0  0.26714310920E+03  0.11420254428E+03  0.83507607962E+02  0.31362372037E+03  0.83538347340E+02 0.  0.
          5    1    3    3  501    0 -0.68333864661E+03 -0.21812539258E+03  0.36079599280E+02  0.71822992163E+03  0.47000000000E+01 0. -1.
        -13    1    4    4    0    0 -0.16675118246E+03 -0.25641120298E+02 -0.18789275822E+02  0.16975411862E+03  0.00000000000E+00 0.  1.
         14    1    4    4    0    0 -0.60371441175E+02 -0.16117966069E+02  0.44010318935E+02  0.76429103831E+02  0.00000000000E+00 0. -1.
         -5    1    5    5    0  502  0.64331816104E+03  0.14568193466E+03  0.14304535413E+03  0.67495595838E+03  0.47000000000E+01 0.  1.
         11    1    6    6    0    0  0.13011520221E+03  0.47891184687E+02 -0.27076787685E+01  0.13867538693E+03  0.00000000000E+00 0. -1.
        -12    1    6    6    0    0  0.13702790699E+03  0.66311359594E+02  0.86215286731E+02  0.17494833344E+03  0.00000000000E+00 0.  1.
</event>
<event>
12    1  0.8449700E-002  0.1881786E+03  0.7818608E-02  0.1160502E+00
         21   -1    0    0  501  502  0.00000000000E+00  0.00000000000E+00  0.15509099431E+02  0.15509099431E+02  0.00000000000E+00 0.  1.
         21   -1    0    0  502  503 -0.00000000000E+00 -0.00000000000E+00 -0.27084608111E+04  0.27084608111E+04  0.00000000000E+00 0.  1.
         -6    2    1    2    0  503 -0.44760653652E+02 -0.60135648432E+02 -0.18938755609E+04  0.19030351524E+04  0.17075812996E+03 0.  0.
        -24    2    3    3    0    0 -0.38828245986E+02 -0.92061290080E+02 -0.91036757311E+03  0.91898002589E+03  0.75975364416E+02 0.  0.
          6    2    1    2  501    0  0.44760653652E+02  0.60135648432E+02 -0.79907615081E+03  0.82093475812E+03  0.17260176701E+03 0.  0.
         24    2    5    5    0    0  0.47693330220E+02  0.10594146693E+03 -0.63594865060E+03  0.65140763662E+03  0.80018589628E+02 0.  0.
          5    1    5    5  501    0 -0.29326765684E+01 -0.45805818498E+02 -0.16312750021E+03  0.16952712150E+03  0.47000000000E+01 0. -1.
        -13    1    6    6    0    0  0.18035210388E+02  0.35358819450E+02 -0.71400253194E+02  0.81691560658E+02  0.00000000000E+00 0.  1.
         14    1    6    6    0    0  0.29658119832E+02  0.70582647481E+02 -0.56454839740E+03  0.56971607596E+03  0.00000000000E+00 0. -1.
         -5    1    3    3    0  503 -0.59324076654E+01  0.31925641648E+02 -0.98350798777E+03  0.98405512653E+03  0.47000000000E+01 0.  1.
         11    1    4    4    0    0 -0.17610382012E+02  0.10199989297E+02 -0.18873775692E+03  0.18983178401E+03  0.00000000000E+00 0. -1.
        -12    1    4    4    0    0 -0.21217863974E+02 -0.10226127938E+03 -0.72162981619E+03  0.72914824188E+03  0.00000000000E+00 0.  1.
</event>
<event>
12    1  0.8449700E-002  0.2380334E+03  0.7818608E-02  0.1121371E+00
         21   -1    0    0  501  502  0.00000000000E+00  0.00000000000E+00  0.35744692492E+03  0.35744692492E+03  0.00000000000E+00 0.  1.
         21   -1    0    0  502  503 -0.00000000000E+00 -0.00000000000E+00 -0.22545325262E+03  0.22545325262E+03  0.00000000000E+00 0. -1.
         -6    2    1    2    0  503  0.53368444241E+02  0.15427252683E+03 -0.94180198032E+02  0.25454895378E+03  0.17110539674E+03 0.  0.
        -24    2    3    3    0    0  0.81403785796E+02  0.16533039384E+03 -0.60628536065E+02  0.20920514693E+03  0.78295968273E+02 0.  0.
          6    2    1    2  501    0 -0.53368444241E+02 -0.15427252683E+03  0.22617387034E+03  0.32835122376E+03  0.17323886153E+03 0.  0.
         24    2    5    5    0    0  0.30447662825E+02 -0.10280182858E+03  0.15337421533E+03  0.20589203729E+03  0.85863874587E+02 0.  0.
          5    1    5    5  501    0 -0.83816107067E+02 -0.51470698245E+02  0.72799655008E+02  0.12245918647E+03  0.47000000000E+01 0. -1.
        -11    1    6    6    0    0 -0.28603165042E+01 -0.10303054304E+03  0.10477421197E+03  0.14697315981E+03  0.00000000000E+00 0.  1.
         12    1    6    6    0    0  0.33307979329E+02  0.22871445484E+00  0.48600003359E+02  0.58918877483E+02  0.00000000000E+00 0. -1.
         -5    1    3    3    0  503 -0.28035341554E+02 -0.11057867011E+02 -0.33551661967E+02  0.45343806850E+02  0.47000000000E+01 0.  1.
         11    1    4    4    0    0  0.70300534700E+02  0.99706791475E+02 -0.44018735442E+01  0.12207778642E+03  0.00000000000E+00 0. -1.
        -12    1    4    4    0    0  0.11103251096E+02  0.65623602364E+02 -0.56226662521E+02  0.87127360515E+02  0.00000000000E+00 0.  1.
</event>
<event>
12    1  0.8449700E-002  0.1796252E+03  0.7818608E-02  0.1168476E+00
         21   -1    0    0  503  502  0.00000000000E+00  0.00000000000E+00  0.16070242966E+04  0.16070242966E+04  0.00000000000E+00 0.  1.
         21   -1    0    0  501  503 -0.00000000000E+00 -0.00000000000E+00 -0.33721669148E+02  0.33721669148E+02  0.00000000000E+00 0.  1.
          6    2    1    2  501    0 -0.24935271230E+02  0.43415338060E+02  0.26045854240E+03  0.31567057610E+03  0.17118002505E+03 0.  0.
         24    2    3    3    0    0 -0.39604769582E+01 -0.34388797221E+02  0.18798084326E+03  0.20718770955E+03  0.79947950599E+02 0.  0.
         -6    2    1    2    0  502  0.24935271230E+02 -0.43415338060E+02  0.13128440850E+04  0.13250753896E+04  0.17250662963E+03 0.  0.
        -24    2    5    5    0    0  0.17201465181E+02  0.21021682271E+02  0.36396755998E+03  0.37397040534E+03  0.81508759178E+02 0.  0.
          5    1    3    3  501    0 -0.20974794272E+02  0.77804135282E+02  0.72477699149E+02  0.10848286655E+03  0.47000000000E+01 0. -1.
        -13    1    4    4    0    0  0.85512102852E+00  0.25331904980E+02  0.77033427176E+02  0.81096149997E+02  0.00000000000E+00 0.  1.
         14    1    4    4    0    0 -0.48155979868E+01 -0.59720702202E+02  0.11094741608E+03  0.12609155955E+03  0.00000000000E+00 0. -1.
         -5    1    5    5    0  502  0.77338060495E+01 -0.64437020331E+02  0.94887652502E+03  0.95110498426E+03  0.47000000000E+01 0.  1.
         13    1    6    6    0    0  0.35357125989E+01  0.34320550064E+02  0.34617461274E+03  0.34788972955E+03  0.00000000000E+00 0. -1.
        -14    1    6    6    0    0  0.13665752582E+02 -0.13298867793E+02  0.17792947239E+02  0.26080675790E+02  0.00000000000E+00 0.  1.
</event>
<event>
12    1  0.8449700E-002  0.1841583E+03  0.7818608E-02  0.1165312E+00
         21   -1    0    0  501  502  0.00000000000E+00  0.00000000000E+00  0.77150206951E+03  0.77150206951E+03  0.00000000000E+00 0.  1.
         21   -1    0    0  502  503 -0.00000000000E+00 -0.00000000000E+00 -0.96326680504E+02  0.96326680504E+02  0.00000000000E+00 0.  1.
         -6    2    1    2    0  503  0.50526788496E+02 -0.50535139479E+01  0.15781053532E+02  0.18483317895E+03  0.17701911770E+03 0.  0.
        -24    2    3    3    0    0 -0.34471701283E+02 -0.21373538108E+02 -0.20897433737E+02  0.90713638569E+02  0.78403668059E+02 0.  0.
          6    2    1    2  501    0 -0.50526788496E+02  0.50535139479E+01  0.65939433547E+03  0.68299557106E+03  0.17059767313E+03 0.  0.
         24    2    5    5    0    0 -0.53173674150E+02  0.51118333336E+02  0.58600518565E+03  0.59617949593E+03  0.81162738607E+02 0.  0.
          5    1    5    5  501    0  0.26468856540E+01 -0.46064819388E+02  0.73389149827E+02  0.86816075131E+02  0.47000000000E+01 0. -1.
        -11    1    6    6    0    0 -0.47638002806E+02  0.69195244330E+01  0.14183380337E+03  0.14978012855E+03  0.00000000000E+00 0.  1.
         12    1    6    6    0    0 -0.55356713445E+01  0.44198808903E+02  0.44417138228E+03  0.44639936738E+03  0.00000000000E+00 0. -1.
         -5    1    3    3    0  503  0.84998489779E+02  0.16320024160E+02  0.36678487269E+02  0.94119540381E+02  0.47000000000E+01 0.  1.
         11    1    4    4    0    0 -0.20235093979E+02 -0.60541883797E+01  0.29423752118E+02  0.36219737906E+02  0.00000000000E+00 0. -1.
        -12    1    4    4    0    0 -0.14236607304E+02 -0.15319349728E+02 -0.50321185855E+02  0.54493900663E+02  0.00000000000E+00 0.  1.
</event>
<event>
12    1  0.8449700E-002  0.4420120E+03  0.7818608E-02  0.1030364E+00
         21   -1    0    0  503  502  0.00000000000E+00  0.00000000000E+00  0.21706233283E+03  0.21706233283E+03  0.00000000000E+00 0. -1.
         21   -1    0    0  501  503 -0.00000000000E+00 -0.00000000000E+00 -0.10422978719E+04  0.10422978719E+04  0.00000000000E+00 0. -1.
          6    2    1    2  501    0 -0.23517613990E+03  0.33139681903E+03 -0.65142806930E+03  0.78723130584E+03  0.17390494814E+03 0.  0.
         24    2    3    3    0    0 -0.11105091726E+03  0.16110021192E+03 -0.44318522220E+03  0.49092879378E+03  0.79450329629E+02 0.  0.
         -6    2    1    2    0  502  0.23517613990E+03 -0.33139681903E+03 -0.17380746979E+03  0.47212889890E+03  0.16602708268E+03 0.  0.
        -24    2    5    5    0    0  0.86364869764E+02 -0.20909531142E+03 -0.13701947441E+03  0.27597105560E+03  0.78777834295E+02 0.  0.
          5    1    3    3  501    0 -0.12412522264E+03  0.17029660711E+03 -0.20824284710E+03  0.29630251207E+03  0.47000000000E+01 0. -1.
        -13    1    4    4    0    0 -0.25360836378E+01 -0.13243054622E+01 -0.66908480974E+02  0.66969622453E+02  0.00000000000E+00 0.  1.
         14    1    4    4    0    0 -0.10851483363E+03  0.16242451738E+03 -0.37627674123E+03  0.42395917132E+03  0.00000000000E+00 0. -1.
         -5    1    5    5    0  502  0.14881127014E+03 -0.12230150761E+03 -0.36787995380E+02  0.19615784330E+03  0.47000000000E+01 0.  1.
         11    1    6    6    0    0  0.83718322838E+02 -0.13809408409E+03 -0.62925303659E+02  0.17331568734E+03  0.00000000000E+00 0. -1.
        -12    1    6    6    0    0  0.26465469254E+01 -0.71001227332E+02 -0.74094170751E+02  0.10265536826E+03  0.00000000000E+00 0.  1.
</event>
<event>
12    1  0.8449700E-002  0.1826057E+03  0.7818608E-02  0.1165554E+00
         21   -1    0    0  501  502  0.00000000000E+00  0.00000000000E+00  0.99741557150E+03  0.99741557150E+03  0.00000000000E+00 0.  1.
         21   -1    0    0  502  503 -0.00000000000E+00 -0.00000000000E+00 -0.44706298054E+02  0.44706298054E+02  0.00000000000E+00 0.  1.
         -6    2    1    2    0  503  0.50073760259E+02  0.29478820404E+02  0.21144796650E+03  0.27869986247E+03  0.17200868723E+03 0.  0.
        -24    2    3    3    0    0  0.17787758792E+02 -0.49121142073E+02  0.10016411108E+03  0.13860515711E+03  0.80307219277E+02 0.  0.
          6    2    1    2  501    0 -0.50073760259E+02 -0.29478820404E+02  0.74126130694E+03  0.76342200708E+03  0.17311398963E+03 0.  0.
         24    2    5    5    0    0 -0.90981935866E+02  0.27086923513E+00  0.62515510153E+03  0.63668896561E+03  0.79222168215E+02 0.  0.
          5    1    5    5  501    0  0.40908175607E+02 -0.29749689639E+02  0.11610620541E+03  0.12673304147E+03  0.47000000000E+01 0. -1.
        -11    1    6    6    0    0 -0.86477466279E+02  0.11011102469E+02  0.33050096924E+03  0.34180475014E+03  0.00000000000E+00 0.  1.
         12    1    6    6    0    0 -0.45044695869E+01 -0.10740233234E+02  0.29465413229E+03  0.29488421547E+03  0.00000000000E+00 0. -1.
         -5    1    3    3    0  503  0.32286001467E+02  0.78599962476E+02  0.11128385542E+03  0.14009470536E+03  0.47000000000E+01 0.  1.
         11    1    4    4    0    0  0.25577080654E+02 -0.12744603424E+02  0.97168697207E+02  0.10128360029E+03  0.00000000000E+00 0. -1.
        -12    1    4    4    0    0 -0.77893218619E+01 -0.36376538648E+02  0.29954138718E+01  0.37321556819E+02  0.00000000000E+00 0.  1.
</event>
<event>
12    1  0.8449700E-002  0.1718966E+03  0.7818608E-02  0.1176134E+00
         21   -1    0    0  501  502  0.00000000000E+00  0.00000000000E+00  0.70813701068E+03  0.70813701068E+03  0.00000000000E+00 0. -1.
         21   -1    0    0  502  503 -0.00000000000E+00 -0.00000000000E+00 -0.46030551277E+02  0.46030551277E+02  0.00000000000E+00 0. -1.
         -6    2    1    2    0  503  0.70058448960E+01  0.45765066472E+00  0.21349031635E+03  0.27409224751E+03  0.17175317657E+03 0.  0.
        -24    2    3    3    0    0  0.26488338188E+02 -0.23746644741E+01  0.22949768156E+02  0.82479669479E+02  0.74625283435E+02 0.  0.
          6    2    1    2  501    0 -0.70058448960E+01 -0.45765066472E+00  0.44861614306E+03  0.48007531445E+03  0.17078223686E+03 0.  0.
         24    2    5    5    0    0  0.49515938311E+02  0.10951830136E+02  0.16061842420E+03  0.18632429012E+03  0.79666129349E+02 0.  0.
          5    1    5    5  501    0 -0.56521783207E+02 -0.11409480801E+02  0.28799771886E+03  0.29375102434E+03  0.47000000000E+01 0. -1.
        -13    1    6    6    0    0 -0.18956263112E+02  0.16779739436E+02  0.51180680437E+02  0.57099576327E+02  0.00000000000E+00 0.  1.
         14    1    6    6    0    0  0.68472201423E+02 -0.58279092995E+01  0.10943774376E+03  0.12922471379E+03  0.00000000000E+00 0. -1.
         -5    1    3    3    0  503 -0.19482493292E+02  0.28323151389E+01  0.19054054819E+03  0.19161257803E+03  0.47000000000E+01 0.  1.
         11    1    4    4    0    0 -0.23557377769E+02  0.30799140896E+01  0.21616034942E+02  0.32119914146E+02  0.00000000000E+00 0. -1.
        -12    1    4    4    0    0  0.50045715957E+02 -0.54545785637E+01  0.13337332140E+01  0.50359755333E+02  0.00000000000E+00 0.  1.
</event>
<event>
12    1  0.8449700E-002  0.1819410E+03  0.7818608E-02  0.1166325E+00
         21   -1    0    0  503  502  0.00000000000E+00  0.00000000000E+00  0.38473234802E+02  0.38473234802E+02  0.00000000000E+00 0.  1.
         21   -1    0    0  501  503 -0.00000000000E+00 -0.00000000000E+00 -0.11592165168E+04  0.11592165168E+04  0.00000000000E+00 0.  1.
          6    2    1    2  501    0  0.53506876468E+02  0.24098795879E+02 -0.86642796528E+03  0.88499372180E+03  0.17050727493E+03 0.  0.
         24    2    3    3    0    0  0.54688756636E+02  0.42207524341E+02 -0.29673315816E+03  0.31499057606E+03  0.79976000415E+02 0.  0.
         -6    2    1    2    0  502 -0.53506876468E+02 -0.24098795879E+02 -0.25431531675E+03  0.31269602984E+03  0.17221727251E+03 0.  0.
        -24    2    5    5    0    0 -0.89170389711E+02 -0.29934700445E+02 -0.24612588073E+03  0.27534498138E+03  0.79934128572E+02 0.  0.
          5    1    3    3  501    0 -0.11818801674E+01 -0.18108728462E+02 -0.56969480712E+03  0.57000314573E+03  0.47000000000E+01 0. -1.
        -11    1    4    4    0    0  0.21489540942E+02  0.51357198479E+02 -0.25439619513E+03  0.26041656303E+03  0.00000000000E+00 0.  1.
         12    1    4    4    0    0  0.33199215693E+02 -0.91496741384E+01 -0.42336963038E+02  0.54574013035E+02  0.00000000000E+00 0. -1.
         -5    1    5    5    0  502  0.35663513243E+02  0.58359045661E+01 -0.81894360161E+01  0.37351048461E+02  0.47000000000E+01 0.  1.
         13    1    6    6    0    0 -0.82616223466E+02  0.95091770152E+01 -0.17486555134E+03  0.19363322512E+03  0.00000000000E+00 0. -1.
        -14    1    6    6    0    0 -0.65541662445E+01 -0.39443877460E+02 -0.71260329397E+02  0.81711756253E+02  0.00000000000E+00 0.  1.
</event>
<event>
12    1  0.8449700E-002  0.2250490E+03  0.7818608E-02  0.1130955E+00
         21   -1    0    0  501  502  0.00000000000E+00  0.00000000000E+00  0.53956288635E+03  0.53956288635E+03  0.00000000000E+00 0. -1.
         21   -1    0    0  502  503 -0.00000000000E+00 -0.00000000000E+00 -0.14129720687E+03  0.14129720687E+03  0.00000000000E+00 0. -1.
         -6    2    1    2    0  503  0.17038325700E+02 -0.14439580566E+03 -0.50850034773E+00  0.22504955001E+03  0.17177481816E+03 0.  0.
        -24    2    3    3    0    0  0.19034099788E+02 -0.16536670620E+03 -0.32169798709E+02  0.18673128286E+03  0.78263858669E+02 0.  0.
          6    2    1    2  501    0 -0.17038325700E+02  0.14439580566E+03  0.39877417983E+03  0.45581054321E+03  0.16613835069E+03 0.  0.
         24    2    5    5    0    0 -0.38880239818E+02  0.10888037503E+03  0.15766650887E+03  0.21107923337E+03  0.79555676239E+02 0.  0.
          5    1    5    5  501    0  0.21841914117E+02  0.35515430622E+02  0.24110767096E+03  0.24473130985E+03  0.47000000000E+01 0. -1.
        -13    1    6    6    0    0 -0.18371058745E+02  0.25606732877E+02 -0.93143897492E-01  0.31515222414E+02  0.00000000000E+00 0.  1.
         14    1    6    6    0    0 -0.20509181073E+02  0.83273642158E+02  0.15775965277E+03  0.17956401095E+03  0.00000000000E+00 0. -1.
         -5    1    3    3    0  503 -0.19957740879E+01  0.20970900543E+02  0.31661298362E+02  0.38318267155E+02  0.47000000000E+01 0.  1.
         11    1    4    4    0    0  0.43863415266E+02 -0.14432778025E+03 -0.20879261146E+02  0.15228411243E+03  0.00000000000E+00 0. -1.
        -12    1    4    4    0    0 -0.24829315478E+02 -0.21038925946E+02 -0.11290537563E+02  0.34447170428E+02  0.00000000000E+00 0.  1.
</event>
<event>
12    1  0.8449700E-002  0.3036916E+03  0.7818608E-02  0.1083512E+00
         21   -1    0    0  501  502  0.00000000000E+00  0.00000000000E+00  0.48002856204E+03  0.48002856204E+03  0.00000000000E+00 0.  1.
         21   -1    0    0  502  503 -0.00000000000E+00 -0.00000000000E+00 -0.30469561683E+03  0.30469561683E+03  0.00000000000E+00 0.  1.
         -6    2    1    2    0  503  0.24294958704E+03  0.60709692098E+02 -0.15129323937E+03  0.33929077034E+03  0.17180923724E+03 0.  0.
        -24    2    3    3    0    0  0.63930439273E+02  0.66704184546E+02 -0.39963667054E+02  0.12834017689E+03  0.79608774750E+02 0.  0.
          6    2    1    2  501    0 -0.24294958704E+03 -0.60709692098E+02  0.32662618459E+03  0.44543340853E+03  0.17034109435E+03 0.  0.
         24    2    5    5    0    0 -0.15905131105E+03 -0.92292769656E+02  0.16139566599E+03  0.25739185521E+03  0.79917027281E+02 0.  0.
          5    1    5    5  501    0 -0.83898275986E+02  0.31583077558E+02  0.16523051859E+03  0.18804155332E+03  0.47000000000E+01 0. -1.
        -11    1    6    6    0    0 -0.15169492837E+03 -0.64847591860E+02  0.10882758406E+03  0.19763604053E+03  0.00000000000E+00 0.  1.
         12    1    6    6    0    0 -0.73563826813E+01 -0.27445177796E+02  0.52568081929E+02  0.59755814681E+02  0.00000000000E+00 0. -1.
         -5    1    3    3    0  503  0.17901914776E+03 -0.59944924478E+01 -0.11132957232E+03  0.21095059345E+03  0.47000000000E+01 0.  1.
         11    1    4    4    0    0 -0.76932384660E+01 -0.83787709481E+01 -0.19500472113E+02  0.22575609257E+02  0.00000000000E+00 0. -1.
        -12    1    4    4    0    0  0.71623677739E+02  0.75082955494E+02 -0.20463194941E+02  0.10576456763E+03  0.00000000000E+00 0.  1.
</event>
<event>
12    1  0.8449700E-002  0.2111486E+03  0.7818608E-02  0.1140840E+00
         21   -1    0    0  501  502  0.00000000000E+00  0.00000000000E+00  0.89818654823E+02  0.89818654823E+02  0.00000000000E+00 0. -1.
         21   -1    0    0  502  503 -0.00000000000E+00 -0.00000000000E+00 -0.60040640673E+03  0.60040640673E+03  0.00000000000E+00 0.  1.
         -6    2    1    2    0  503  0.98067417859E+02 -0.73351373105E+02 -0.39996698084E+03  0.45185417323E+03  0.17088290061E+03 0.  0.
        -24    2    3    3    0    0  0.25928060630E+02 -0.59730589094E+02 -0.10098437888E+03  0.14395435365E+03  0.79278014338E+02 0.  0.
          6    2    1    2  501    0 -0.98067417859E+02  0.73351373105E+02 -0.11062077107E+03  0.23837088833E+03  0.17200605521E+03 0.  0.
         24    2    5    5    0    0 -0.30352805586E+02  0.45973347734E+02 -0.13007824669E+03  0.16263774931E+03  0.80596809682E+02 0.  0.
          5    1    5    5  501    0 -0.67714612274E+02  0.27378025371E+02  0.19457475611E+02  0.75733139019E+02  0.47000000000E+01 0. -1.
        -13    1    6    6    0    0  0.69348853624E+01 -0.15851454417E+02 -0.58366436222E+02  0.60876942428E+02  0.00000000000E+00 0.  1.
         14    1    6    6    0    0 -0.37287690948E+02  0.61824802151E+02 -0.71711810464E+02  0.10176080688E+03  0.00000000000E+00 0. -1.
         -5    1    3    3    0  503  0.72139357229E+02 -0.13620784011E+02 -0.29898260196E+03  0.30789981957E+03  0.47000000000E+01 0.  1.
         13    1    4    4    0    0 -0.23042876525E+02  0.25793669463E+01 -0.19639958555E+02  0.30386761335E+02  0.00000000000E+00 0. -1.
        -14    1    4    4    0    0  0.48970937156E+02 -0.62309956040E+02 -0.81344420321E+02  0.11356759232E+03  0.00000000000E+00 0.  1.
</event>
<event>
12    1  0.8449700E-002  0.1754177E+03  0.7818608E-02  0.1172853E+00
         21   -1    0    0  503  502  0.00000000000E+00  0.00000000000E+00  0.29392567076E+02  0.29392567076E+02  0.00000000000E+00 0. -1.
         21   -1    0    0  501  503 -0.00000000000E+00 -0.00000000000E+00 -0.14008826264E+04  0.14008826264E+04  0.00000000000E+00 0. -1.
          6    2    1    2  501    0  0.18535770207E+02  0.26970132890E+02 -0.10485233874E+04  0.10627444641E+04  0.17015739520E+03 0.  0.
         24    2    3    3    0    0  0.47787277578E+02 -0.29344903129E+02 -0.80829567451E+03  0.81423193319E+03  0.80541891921E+02 0.  0.
         -6    2    1    2    0  502 -0.18535770207E+02 -0.26970132890E+02 -0.32296667192E+03  0.36753072940E+03  0.17233804872E+03 0.  0.
        -24    2    5    5    0    0  0.29721146927E+02 -0.57211145229E+02 -0.12592480503E+03  0.16237021618E+03  0.79690456559E+02 0.  0.
          5    1    3    3  501    0 -0.29251507371E+02  0.56315036019E+02 -0.24022771290E+03  0.24851253089E+03  0.47000000000E+01 0. -1.
        -13    1    4    4    0    0  0.15636111042E+02 -0.76126181533E+01 -0.27928773286E+02  0.32900703654E+02  0.00000000000E+00 0.  1.
         14    1    4    4    0    0  0.32151166536E+02 -0.21732284976E+02 -0.78036690122E+03  0.78133122953E+03  0.00000000000E+00 0. -1.
         -5    1    5    5    0  502 -0.48256917134E+02  0.30241012339E+02 -0.19704186689E+03  0.20516051323E+03  0.47000000000E+01 0.  1.
         11    1    6    6    0    0  0.59083125317E+01 -0.73425115775E+02 -0.92346159320E+02  0.11812691871E+03  0.00000000000E+00 0. -1.
        -12    1    6    6    0    0  0.23812834395E+02  0.16213970546E+02 -0.33578645709E+02  0.44243297463E+02  0.00000000000E+00 0.  1.
</event>
<event>
12    1  0.8449700E-002  0.1976051E+03  0.7818608E-02  0.1151840E+00
         21   -1    0    0  501  502  0.00000000000E+00  0.00000000000E+00  0.58888729212E+03  0.58888729212E+03  0.00000000000E+00 0. -1.
         21   -1    0    0  502  503 -0.00000000000E+00 -0.00000000000E+00 -0.68824599750E+02  0.68824599750E+02  0.00000000000E+00 0.  1.
         -6    2    1    2    0  503 -0.65625449999E+02 -0.68632774246E+02  0.32397292712E+03  0.37932550732E+03  0.17295151231E+03 0.  0.
        -24    2    3    3    0    0 -0.18285509402E+02  0.71899275869E+01  0.24881311970E+03  0.26244420539E+03  0.81135303636E+02 0.  0.
          6    2    1    2  501    0  0.65625449999E+02  0.68632774246E+02  0.19608976525E+03  0.27838638455E+03  0.17329346692E+03 0.  0.
         24    2    5    5    0    0  0.35237395634E+02 -0.31021821969E+02  0.88664229245E+02  0.12866394742E+03  0.80554567393E+02 0.  0.
          5    1    5    5  501    0  0.30388054365E+02  0.99654596216E+02  0.10742553601E+03  0.14972243713E+03  0.47000000000E+01 0. -1.
        -11    1    6    6    0    0  0.33848613042E+01 -0.46254610590E+02  0.79739289572E+02  0.92245870305E+02  0.00000000000E+00 0.  1.
         12    1    6    6    0    0  0.31852534329E+02  0.15232788620E+02  0.89249396731E+01  0.36418077112E+02  0.00000000000E+00 0. -1.
         -5    1    3    3    0  503 -0.47339940597E+02 -0.75822701833E+02  0.75159807416E+02  0.11688130193E+03  0.47000000000E+01 0.  1.
         13    1    4    4    0    0 -0.35225410582E+02 -0.10995610558E+02  0.22506152823E+03  0.22806671062E+03  0.00000000000E+00 0. -1.
        -14    1    4    4    0    0  0.16939901180E+02  0.18185538145E+02  0.23751591468E+02  0.34377494773E+02  0.00000000000E+00 0.  1.
</event>
<event>
12    1  0.8449700E-002  0.2631389E+03  0.7818608E-02  0.1105352E+00
         21   -1    0    0  503  502  0.00000000000E+00  0.00000000000E+00  0.13411506857E+03  0.13411506857E+03  0.00000000000E+00 0.  1.
         21   -1    0    0  501  503 -0.00000000000E+00 -0.00000000000E+00 -0.80812450749E+03  0.80812450749E+03  0.00000000000E+00 0. -1.
          6    2    1    2  501    0 -0.17775491436E+02  0.19764344670E+03 -0.62085536972E+03  0.67431705789E+03  0.17280973448E+03 0.  0.
         24    2    3    3    0    0 -0.19329910937E+02  0.22067498711E+03 -0.59149445837E+03  0.63667371600E+03  0.80103876100E+02 0.  0.
         -6    2    1    2    0  502  0.17775491436E+02 -0.19764344670E+03 -0.53154069200E+02  0.26792251818E+03  0.17198319846E+03 0.  0.
        -24    2    5    5    0    0 -0.99896185875E+01 -0.80351237611E+02 -0.86462222139E+02  0.14278304918E+03  0.79719316428E+02 0.  0.
          5    1    3    3  501    0  0.15544195009E+01 -0.23031540407E+02 -0.29360911351E+02  0.37643341893E+02  0.47000000000E+01 0. -1.
        -11    1    4    4    0    0  0.30040774432E+02  0.67359415354E+02 -0.16312651845E+03  0.17902513786E+03  0.00000000000E+00 0.  1.
         12    1    4    4    0    0 -0.49370685368E+02  0.15331557175E+03 -0.42836793992E+03  0.45764857813E+03  0.00000000000E+00 0. -1.
         -5    1    5    5    0  502  0.27765110023E+02 -0.11729220909E+03  0.33308152939E+02  0.12513946899E+03  0.47000000000E+01 0.  1.
         11    1    6    6    0    0 -0.19571833084E+02 -0.21680966716E+00 -0.51006225882E+02  0.54632762473E+02  0.00000000000E+00 0. -1.
        -12    1    6    6    0    0  0.95822144967E+01 -0.80134427944E+02 -0.35455996257E+02  0.88150286710E+02  0.00000000000E+00 0.  1.
</event>
<event>
12    1  0.8449700E-002  0.2118366E+03  0.7818608E-02  0.1143827E+00
         21   -1    0    0  501  502  0.00000000000E+00  0.00000000000E+00  0.59230544724E+02  0.59230544724E+02  0.00000000000E+00 0.  1.
         21   -1    0    0  502  503 -0.00000000000E+00 -0.00000000000E+00 -0.70113217363E+03  0.70113217363E+03  0.00000000000E+00 0.  1.
         -6    2    1    2    0  503  0.78642338115E+02  0.50552371867E+02 -0.37228520854E+03  0.42833519867E+03  0.19009104734E+03 0.  0.
        -24    2    3    3    0    0 -0.33541223941E+02 -0.45252392369E+01 -0.11978025056E+03  0.14655596125E+03  0.77368274239E+02 0.  0.
          6    2    1    2  501    0 -0.78642338115E+02 -0.50552371867E+02 -0.26961642037E+03  0.33202751969E+03  0.16973243665E+03 0.  0.
         24    2    5    5    0    0 -0.54176092119E+01  0.28104628098E+02 -0.12529141795E+03  0.15202590611E+03  0.81207857418E+02 0.  0.
          5    1    5    5  501    0 -0.73224728903E+02 -0.78656999966E+02 -0.14432500242E+03  0.18000161358E+03  0.47000000000E+01 0. -1.
        -13    1    6    6    0    0  0.12000950811E+02  0.40952633973E+02 -0.25069973479E+02  0.49493884672E+02  0.00000000000E+00 0.  1.
         14    1    6    6    0    0 -0.17418560023E+02 -0.12848005874E+02 -0.10022144447E+03  0.10253202144E+03  0.00000000000E+00 0. -1.
         -5    1    3    3    0  503  0.11218356206E+03  0.55077611104E+02 -0.25250495798E+03  0.28177923742E+03  0.47000000000E+01 0.  1.
         13    1    4    4    0    0 -0.16091310225E+01  0.28866686209E+02 -0.16205780638E+02  0.33143660048E+02  0.00000000000E+00 0. -1.
        -14    1    4    4    0    0 -0.31932092919E+02 -0.33391925446E+02 -0.10357446992E+03  0.11341230120E+03  0.00000000000E+00 0.  1.
</event>
<event>
12    1  0.8449700E-002  0.3075180E+03  0.7818608E-02  0.1082047E+00
         21   -1    0    0  501  502  0.00000000000E+00  0.00000000000E+00  0.12826120165E+03  0.12826120165E+03  0.00000000000E+00 0. -1.
         21   -1    0    0  502  503 -0.00000000000E+00 -0.00000000000E+00 -0.10719907971E+04  0.10719907971E+04  0.00000000000E+00 0.  1.
         -6    2    1    2    0  503 -0.24775573003E+03 -0.59288006009E+02 -0.81427705705E+03  0.87041051902E+03  0.17224800886E+03 0.  0.
        -24    2    3    3    0    0 -0.41514810418E+02 -0.35622876736E+02 -0.27031196302E+03  0.28816017012E+03  0.83518006809E+02 0.  0.
          6    2    1    2  501    0  0.24775573003E+03  0.59288006009E+02 -0.12945253842E+03  0.32984147975E+03  0.16474062231E+03 0.  0.
         24    2    5    5    0    0  0.11987395215E+03  0.89349095833E+02 -0.93878333632E+02  0.19366133332E+03  0.79614980792E+02 0.  0.
          5    1    5    5  501    0  0.12788177788E+03 -0.30061089824E+02 -0.35574204789E+02  0.13618014643E+03  0.47000000000E+01 0. -1.
        -11    1    6    6    0    0  0.25916275654E+02  0.17098632892E+02 -0.64448009768E+02  0.71537141078E+02  0.00000000000E+00 0.  1.
         12    1    6    6    0    0  0.93957676492E+02  0.72250462941E+02 -0.29430323865E+02  0.12212419224E+03  0.00000000000E+00 0. -1.
         -5    1    3    3    0  503 -0.20624091961E+03 -0.23665129273E+02 -0.54396509403E+03  0.58225034889E+03  0.47000000000E+01 0.  1.
         13    1    4    4    0    0 -0.44586441878E+02  0.57934042940E+00 -0.60119695189E+02  0.74850946449E+02  0.00000000000E+00 0. -1.
        -14    1    4    4    0    0  0.30716314606E+01 -0.36202217166E+02 -0.21019226783E+03  0.21330922367E+03  0.00000000000E+00 0.  1.
</event>
<event>
12    1  0.8449700E-002  0.1818656E+03  0.7818608E-02  0.1166196E+00
         21   -1    0    0  503  502  0.00000000000E+00  0.00000000000E+00  0.22902604382E+02  0.22902604382E+02  0.00000000000E+00 0. -1.
         21   -1    0    0  501  503 -0.00000000000E+00 -0.00000000000E+00 -0.23899603995E+04  0.23899603995E+04  0.00000000000E+00 0.  1.
          6    2    1    2  501    0  0.50334515184E+02 -0.27228653847E+02 -0.19434124780E+04  0.19518310710E+04  0.17180659748E+03 0.  0.
         24    2    3    3    0    0 -0.32784898599E+02 -0.39824480537E+02 -0.95451989781E+03  0.95936035757E+03  0.81260208797E+02 0.  0.
         -6    2    1    2    0  502 -0.50334515184E+02  0.27228653847E+02 -0.42364531715E+03  0.46103193294E+03  0.17262712835E+03 0.  0.
        -24    2    5    5    0    0 -0.36702112005E+02  0.60178712791E+02 -0.14201381830E+03  0.17711303617E+03  0.78946694011E+02 0.  0.
          5    1    3    3  501    0  0.83119413783E+02  0.12595826690E+02 -0.98889258019E+03  0.99247071340E+03  0.47000000000E+01 0. -1.
        -11    1    4    4    0    0  0.38962455616E+01  0.21166870583E+02 -0.35082519520E+03  0.35148475746E+03  0.00000000000E+00 0.  1.
         12    1    4    4    0    0 -0.36681144161E+02 -0.60991351120E+02 -0.60369470261E+03  0.60787560011E+03  0.00000000000E+00 0. -1.
         -5    1    5    5    0  502 -0.13632403179E+02 -0.32950058944E+02 -0.28163149885E+03  0.28391889677E+03  0.47000000000E+01 0.  1.
         13    1    6    6    0    0 -0.44076683639E+02  0.33752228741E+02 -0.32746505299E+02  0.64453864080E+02  0.00000000000E+00 0. -1.
        -14    1    6    6    0    0  0.73745716340E+01  0.26426484050E+02 -0.10926731300E+03  0.11265917209E+03  0.00000000000E+00 0.  1.
</event>
<event>
12    1  0.8449700E-002  0.2294027E+03  0.7818608E-02  0.1127075E+00
         21   -1    0    0  501  502  0.00000000000E+00  0.00000000000E+00  0.94583688743E+02  0.94583688743E+02  0.00000000000E+00 0. -1.
         21   -1    0    0  502  503 -0.00000000000E+00 -0.00000000000E+00 -0.68927780820E+03  0.68927780820E+03  0.00000000000E+00 0.  1.
         -6    2    1    2    0  503  0.14198513935E+03  0.52438152294E+02 -0.46960776130E+03  0.52264426814E+03  0.17238341548E+03 0.  0.
        -24    2    3    3    0    0  0.41379280362E+02 -0.55955746161E+01 -0.95654447751E+02  0.13104163404E+03  0.79237498559E+02 0.  0.
          6    2    1    2  501    0 -0.14198513935E+03 -0.52438152294E+02 -0.12508635815E+03  0.26121722880E+03  0.17227392146E+03 0.  0.
         24    2    5    5    0    0 -0.13648292256E+03 -0.87698696879E+01 -0.14303821350E+03  0.21345163024E+03  0.79982305352E+02 0.  0.
          5    1    5    5  501    0 -0.55022167916E+01 -0.43668282606E+02  0.17951855341E+02  0.47765598557E+02  0.47000000000E+01 0. -1.
        -11    1    6    6    0    0 -0.74833415949E+02 -0.23110662149E+02 -0.12521943720E+03  0.14769580326E+03  0.00000000000E+00 0.  1.
         12    1    6    6    0    0 -0.61649506609E+02  0.14340792461E+02 -0.17818776292E+02  0.65755826982E+02  0.00000000000E+00 0. -1.
         -5    1    3    3    0  503  0.10060585899E+03  0.58033726910E+02 -0.37395331355E+03  0.39160263410E+03  0.47000000000E+01 0.  1.
         13    1    4    4    0    0  0.58214545582E+02 -0.61040023014E+01 -0.35239627618E+02  0.68322935506E+02  0.00000000000E+00 0. -1.
        -14    1    4    4    0    0 -0.16835265220E+02  0.50842768527E+00 -0.60414820133E+02  0.62718698531E+02  0.00000000000E+00 0.  1.
</event>
<event>
12    1  0.8449700E-002  0.2132143E+03  0.7818608E-02  0.1139292E+00
         21   -1    0    0  503  502  0.00000000000E+00  0.00000000000E+00  0.95266584423E+03  0.95266584423E+03  0.00000000000E+00 0.  1.
         21   -1    0    0  501  503 -0.00000000000E+00 -0.00000000000E+00 -0.47684825272E+02  0.47684825272E+02  0.00000000000E+00 0.  1.
          6    2    1    2  501    0 -0.17497873696E+02  0.12436139982E+03  0.48726717488E+03  0.53136752340E+03  0.17073433123E+03 0.  0.
         24    2    3    3    0    0  0.31352897252E+02  0.13687777858E+02  0.25840573624E+03  0.27245692780E+03  0.79302544433E+02 0.  0.
         -6    2    1    2    0  502  0.17497873696E+02 -0.12436139982E+03  0.41771384408E+03  0.46898314610E+03  0.17230322819E+03 0.  0.
        -24    2    5    5    0    0 -0.50835031096E+02 -0.78110628664E+02  0.19686183095E+03  0.23317343169E+03  0.83245408657E+02 0.  0.
          5    1    3    3  501    0 -0.48850770949E+02  0.11067362196E+03  0.22886143863E+03  0.25891059560E+03  0.47000000000E+01 0. -1.
        -11    1    4    4    0    0  0.39056643288E+02  0.41018631876E+02  0.14827594144E+03  0.15872524801E+03  0.00000000000E+00 0.  1.
         12    1    4    4    0    0 -0.77037460360E+01 -0.27330854017E+02  0.11012979480E+03  0.11373167979E+03  0.00000000000E+00 0. -1.
         -5    1    5    5    0  502  0.68332904792E+02 -0.46250771152E+02  0.22085201313E+03  0.23580971442E+03  0.47000000000E+01 0.  1.
         11    1    6    6    0    0  0.12790032203E+02 -0.10928892021E+02  0.13568926188E+01  0.16877996390E+02  0.00000000000E+00 0. -1.
        -12    1    6    6    0    0 -0.63625063299E+02 -0.67181736643E+02  0.19550493833E+03  0.21629543530E+03  0.00000000000E+00 0.  1.
</event>
<event>
12    1  0.8449700E-002  0.1790098E+03  0.7818608E-02  0.1169067E+00
         21   -1    0    0  501  502  0.00000000000E+00  0.00000000000E+00  0.13127533076E+04  0.13127533076E+04  0.00000000000E+00 0. -1.
         21   -1    0    0  502  503 -0.00000000000E+00 -0.00000000000E+00 -0.74662966687E+02  0.74662966687E+02  0.00000000000E+00 0. -1.
         -6    2    1    2    0  503 -0.44199917071E+02 -0.20644025231E+02  0.49669891371E+02  0.18577302706E+03  0.17223446527E+03 0.  0.
        -24    2    3    3    0    0 -0.90035000827E+02 -0.41185670342E+02  0.45267373285E+02  0.13513424496E+03  0.80059779305E+02 0.  0.
          6    2    1    2  501    0  0.44199917071E+02  0.20644025231E+02  0.11884204495E+04  0.12016432472E+04  0.17094888204E+03 0.  0.
         24    2    5    5    0    0  0.52139757835E+02 -0.43803905080E+02  0.89904986143E+03  0.90503912714E+03  0.78535545170E+02 0.  0.
          5    1    5    5  501    0 -0.79398407639E+01  0.64447930311E+02  0.28937058806E+03  0.29660412004E+03  0.47000000000E+01 0. -1.
        -13    1    6    6    0    0  0.13641137915E+02  0.71478794360E+01  0.30719832157E+02  0.34363947850E+02  0.00000000000E+00 0.  1.
         14    1    6    6    0    0  0.38498619920E+02 -0.50951784516E+02  0.86833002928E+03  0.87067517929E+03  0.00000000000E+00 0. -1.
         -5    1    3    3    0  503  0.45835083755E+02  0.20541645111E+02  0.44025180856E+01  0.50638782096E+02  0.47000000000E+01 0.  1.
         13    1    4    4    0    0 -0.46108259864E+02  0.20169118150E+02  0.79432869440E+01  0.50949590402E+02  0.00000000000E+00 0. -1.
        -14    1    4    4    0    0 -0.43926740963E+02 -0.61354788492E+02  0.37324086341E+02  0.84184654562E+02  0.00000000000E+00 0.  1.
</event>
<event>
12    1  0.8449700E-002  0.1768435E+03  0.7818608E-02  0.1170998E+00
         21   -1    0    0  501  502  0.00000000000E+00  0.00000000000E+00  0.75301688354E+03  0.75301688354E+03  0.00000000000E+00 0. -1.
         21   -1    0    0  502  503 -0.00000000000E+00 -0.00000000000E+00 -0.41680780298E+02  0.41680780298E+02  0.00000000000E+00 0. -1.
         -6    2    1    2    0  503 -0.38724631112E+02 -0.75544580101E+01  0.38594398503E+03  0.42435505891E+03  0.17195287014E+03 0.  0.
        -24    2    3    3    0    0 -0.24324053575E+02  0.64376087811E+01  0.39251417572E+03  0.40271223164E+03  0.86467687476E+02 0.  0.
          6    2    1    2  501    0  0.38724631112E+02  0.75544580101E+01  0.32539211821E+03  0.37034260493E+03  0.17238604219E+03 0.  0.
         24    2    5    5    0    0  0.63151543053E+02 -0.40027814250E+02  0.27895413863E+03  0.29935441853E+03  0.78786503484E+02 0.  0.
          5    1    5    5  501    0 -0.24426911941E+02  0.47582272260E+02  0.46437979575E+02  0.70988186393E+02  0.47000000000E+01 0. -1.
        -13    1    6    6    0    0  0.34575390458E+02 -0.61710162208E+02  0.15627483377E+03  0.17153840799E+03  0.00000000000E+00 0.  1.
         14    1    6    6    0    0  0.28576152594E+02  0.21682347958E+02  0.12267930486E+03  0.12781601055E+03  0.00000000000E+00 0. -1.
         -5    1    3    3    0  503 -0.14400577537E+02 -0.13992066791E+02 -0.65701906939E+01  0.21642827270E+02  0.47000000000E+01 0.  1.
         11    1    4    4    0    0 -0.54358499453E+02 -0.37652186735E+01  0.30007884181E+03  0.30498579415E+03  0.00000000000E+00 0. -1.
        -12    1    4    4    0    0  0.30034445878E+02  0.10202827455E+02  0.92435333913E+02  0.97726437482E+02  0.00000000000E+00 0.  1.
</event>
<event>
12    1  0.8449700E-002  0.1793450E+03  0.7818608E-02  0.1168523E+00
         21   -1    0    0  501  502  0.00000000000E+00  0.00000000000E+00  0.20357851466E+03  0.20357851466E+03  0.00000000000E+00 0. -1.
         21   -1    0    0  502  503 -0.00000000000E+00 -0.00000000000E+00 -0.15859511191E+03  0.15859511191E+03  0.00000000000E+00 0. -1.
         -6    2    1    2    0  503  0.55650963953E+01 -0.51129277239E+02  0.36149513180E+02  0.18261116595E+03  0.17144934335E+03 0.  0.
        -24    2    3    3    0    0  0.12591832363E+02 -0.55421687922E+01 -0.42662908620E+02  0.91172403352E+02  0.79391520227E+02 0.  0.
          6    2    1    2  501    0 -0.55650963953E+01  0.51129277239E+02  0.88338895675E+01  0.17956246062E+03  0.17181229983E+03 0.  0.
         24    2    5    5    0    0 -0.70735460547E+02  0.33481147644E+02 -0.22461183929E+01  0.11098047014E+03  0.78658293135E+02 0.  0.
          5    1    5    5  501    0  0.65170364152E+02  0.17648129595E+02  0.11080007960E+02  0.68581990480E+02  0.47000000000E+01 0. -1.
        -13    1    6    6    0    0 -0.41044399360E+02 -0.13121702308E+02  0.24523165499E+02  0.49580312992E+02  0.00000000000E+00 0.  1.
         14    1    6    6    0    0 -0.29691061187E+02  0.46602849953E+02 -0.26769283891E+02  0.61400157151E+02  0.00000000000E+00 0. -1.
         -5    1    3    3    0  503 -0.70267359679E+01 -0.45587108447E+02  0.78812421801E+02  0.91438762595E+02  0.47000000000E+01 0.  1.
         11    1    4    4    0    0 -0.27869802712E+02 -0.21473706335E+02 -0.93800770140E+01  0.36411973467E+02  0.00000000000E+00 0. -1.
        -12    1    4    4    0    0  0.40461635075E+02  0.15931537543E+02 -0.33282831606E+02  0.54760429885E+02  0.00000000000E+00 0.  1.
</event>
<event>
12    1  0.8449700E-002  0.2499614E+03  0.7818608E-02  0.1113570E+00
         21   -1    0    0  501  502  0.00000000000E+00  0.00000000000E+00  0.15796930646E+03  0.15796930646E+03  0.00000000000E+00 0. -1.
         21   -1    0    0  502  503 -0.00000000000E+00 -0.00000000000E+00 -0.51751784758E+03  0.51751784758E+03  0.00000000000E+00 0. -1.
         -6    2    1    2    0  503 -0.15144551950E+03 -0.99688918034E+02 -0.34494433335E+03  0.42509950092E+03  0.16985101359E+03 0.  0.
        -24    2    3    3    0    0 -0.11305566872E+03 -0.12472582981E+03 -0.32488263021E+03  0.37484823699E+03  0.81390174518E+02 0.  0.
          6    2    1    2  501    0  0.15144551950E+03  0.99688918034E+02 -0.14604207770E+02  0.25038765313E+03  0.17206704564E+03 0.  0.
         24    2    5    5    0    0  0.12149799511E+03  0.67024445503E+01 -0.37564385557E+02  0.14992572884E+03  0.79119880721E+02 0.  0.
          5    1    5    5  501    0  0.29947524392E+02  0.92986473484E+02  0.22960177787E+02  0.10046192429E+03  0.47000000000E+01 0. -1.
        -11    1    6    6    0    0  0.51379975641E+02 -0.30782294361E+02  0.43358754863E+01  0.60052072065E+02  0.00000000000E+00 0.  1.
         12    1    6    6    0    0  0.70118019471E+02  0.37484738912E+02 -0.41900261043E+02  0.89873656771E+02  0.00000000000E+00 0. -1.
         -5    1    3    3    0  503 -0.38389850784E+02  0.25036911772E+02 -0.20061703135E+02  0.50251263934E+02  0.47000000000E+01 0.  1.
         13    1    4    4    0    0 -0.13119380849E+02 -0.73122788503E+02 -0.13819386067E+03  0.15689679244E+03  0.00000000000E+00 0. -1.
        -14    1    4    4    0    0 -0.99936287871E+02 -0.51603041303E+02 -0.18668876954E+03  0.21795144454E+03  0.00000000000E+00 0.  1.
</event>
<event>
12    1  0.8449700E-002  0.1786468E+03  0.7818608E-02  0.1169683E+00
         21   -1    0    0  503  502  0.00000000000E+00  0.00000000000E+00  0.21294127978E+03  0.21294127978E+03  0.00000000000E+00 0. -1.
         21   -1    0    0  501  503 -0.00000000000E+00 -0.00000000000E+00 -0.44667638030E+03  0.44667638030E+03  0.00000000000E+00 0. -1.
          6    2    1    2  501    0  0.24990623530E+02 -0.28986315934E+02 -0.38682586299E+03  0.42608558499E+03  0.17449911084E+03 0.  0.
         24    2    3    3    0    0  0.64267048682E+02 -0.65747635220E+02 -0.24100290258E+03  0.27058491634E+03  0.81736116956E+02 0.  0.
         -6    2    1    2    0  502 -0.24990623530E+02  0.28986315934E+02  0.15309076247E+03  0.23353207508E+03  0.17215025636E+03 0.  0.
        -24    2    5    5    0    0  0.17168387647E+02  0.20881134295E+02  0.16760894617E+03  0.18796954826E+03  0.80678478733E+02 0.  0.
          5    1    3    3  501    0 -0.39276425152E+02  0.36761319286E+02 -0.14582296041E+03  0.15550066865E+03  0.47000000000E+01 0. -1.
        -11    1    4    4    0    0  0.36086444930E+02 -0.67079355230E+02 -0.94429273669E+02  0.12132089322E+03  0.00000000000E+00 0.  1.
         12    1    4    4    0    0  0.28180603752E+02  0.13317200098E+01 -0.14657362891E+03  0.14926402312E+03  0.00000000000E+00 0. -1.
         -5    1    5    5    0  502 -0.42159011177E+02  0.81051816383E+01 -0.14518183707E+02  0.45562526828E+02  0.47000000000E+01 0.  1.
         11    1    6    6    0    0 -0.10405563854E+02  0.25821600103E+02  0.15459409261E+03  0.15708075714E+03  0.00000000000E+00 0. -1.
        -12    1    6    6    0    0  0.27573951501E+02 -0.49404658077E+01  0.13014853559E+02  0.30888791121E+02  0.00000000000E+00 0.  1.
</event>
<event>
12    1  0.8449700E-002  0.1983362E+03  0.7818608E-02  0.1151630E+00
         21   -1    0    0  501  502  0.00000000000E+00  0.00000000000E+00  0.35961303572E+02  0.35961303572E+02  0.00000000000E+00 0.  1.
         21   -1    0    0  502  503 -0.00000000000E+00 -0.00000000000E+00 -0.16879243147E+04  0.16879243147E+04  0.00000000000E+00 0.  1.
         -6    2    1    2    0  503  0.83567472141E+02 -0.43398163677E+02 -0.13455823471E+04  0.13601209915E+04  0.17455754275E+03 0.  0.
        -24    2    3    3    0    0  0.76037986731E+02 -0.40649975585E+02 -0.48457727582E+03  0.49906578513E+03  0.82567098166E+02 0.  0.
          6    2    1    2  501    0 -0.83567472141E+02  0.43398163677E+02 -0.30638066403E+03  0.36376462676E+03  0.17201357324E+03 0.  0.
         24    2    5    5    0    0 -0.38474041523E+02 -0.13526134289E+02 -0.66348051798E+02  0.11294290099E+03  0.81797473834E+02 0.  0.
          5    1    5    5  501    0 -0.45093430618E+02  0.56924297965E+02 -0.24003261224E+03  0.25082172577E+03  0.47000000000E+01 0. -1.
        -13    1    6    6    0    0 -0.32754617823E+02 -0.10944950651E+02 -0.85807694743E+02  0.92496580535E+02  0.00000000000E+00 0.  1.
         14    1    6    6    0    0 -0.57194236998E+01 -0.25811836374E+01  0.19459642945E+02  0.20446320451E+02  0.00000000000E+00 0. -1.
         -5    1    3    3    0  503  0.75294854103E+01 -0.27481880914E+01 -0.86100507128E+03  0.86105520640E+03  0.47000000000E+01 0.  1.
         13    1    4    4    0    0  0.22790732819E+02  0.25670118575E+02 -0.14050857873E+03  0.14464104945E+03  0.00000000000E+00 0. -1.
        -14    1    4    4    0    0  0.53247253912E+02 -0.66320094161E+02 -0.34406869710E+03  0.35442473568E+03  0.00000000000E+00 0.  1.
</event>
<event>
12    1  0.8449700E-002  0.2280079E+03  0.7818608E-02  0.1128147E+00
         21   -1    0    0  501  502  0.00000000000E+00  0.00000000000E+00  0.56827882063E+03  0.56827882063E+03  0.00000000000E+00 0. -1.
         21   -1    0    0  502  503 -0.00000000000E+00 -0.00000000000E+00 -0.94223557554E+02  0.94223557554E+02  0.00000000000E+00 0. -1.
         -6    2    1    2    0  503 -0.14769347347E+03  0.23775488013E+02  0.17859299457E+03  0.28962572334E+03  0.17207256019E+03 0.  0.
        -24    2    3    3    0    0 -0.98171657041E+02  0.41876215216E+02  0.19384675036E+03  0.23453658018E+03  0.77714562135E+02 0.  0.
          6    2    1    2  501    0  0.14769347347E+03 -0.23775488013E+02  0.29546226850E+03  0.37287665484E+03  0.17134880123E+03 0.  0.
         24    2    5    5    0    0  0.56698828644E+02  0.21551692224E+02  0.23360214945E+03  0.25378281375E+03  0.78463492934E+02 0.  0.
          5    1    5    5  501    0  0.90994644831E+02 -0.45327180237E+02  0.61860119056E+02  0.11909384109E+03  0.47000000000E+01 0. -1.
        -11    1    6    6    0    0  0.90622331698E+01 -0.20256401633E+02  0.13329213594E+03  0.13512675301E+03  0.00000000000E+00 0.  1.
         12    1    6    6    0    0  0.47636595475E+02  0.41808093857E+02  0.10031001351E+03  0.11865606074E+03  0.00000000000E+00 0. -1.
         -5    1    3    3    0  503 -0.49521816434E+02 -0.18100727203E+02 -0.15253755794E+02  0.55089143159E+02  0.47000000000E+01 0.  1.
         11    1    4    4    0    0 -0.65965564558E+02  0.65097412889E+01  0.50242336661E+02  0.83175265748E+02  0.00000000000E+00 0. -1.
        -12    1    4    4    0    0 -0.32206092484E+02  0.35366473927E+02  0.14360441370E+03  0.15136131443E+03  0.00000000000E+00 0.  1.
</event>
<event>
12    1  0.8449700E-002  0.2344448E+03  0.7818608E-02  0.1124037E+00
         21   -1    0    0  501  502  0.00000000000E+00  0.00000000000E+00  0.21020892927E+03  0.21020892927E+03  0.00000000000E+00 0.  1.
         21   -1    0    0  502  503 -0.00000000000E+00 -0.00000000000E+00 -0.26583644073E+03  0.26583644073E+03  0.00000000000E+00 0.  1.
         -6    2    1    2    0  503  0.11838850833E+03 -0.10601178736E+03 -0.67615617301E+02  0.24129430612E+03  0.16851330067E+03 0.  0.
        -24    2    3    3    0    0  0.20570042956E+01 -0.24451859526E+02  0.55788273322E+00  0.83640391598E+02  0.79957983795E+02 0.  0.
          6    2    1    2  501    0 -0.11838850833E+03  0.10601178736E+03  0.11988105840E+02  0.23475106388E+03  0.17236591702E+03 0.  0.
         24    2    5    5    0    0 -0.11258205196E+03  0.15722111749E+02  0.29978657040E+02  0.14238391394E+03  0.80327802466E+02 0.  0.
          5    1    5    5  501    0 -0.58064563694E+01  0.90289675607E+02 -0.17990551200E+02  0.92367149947E+02  0.47000000000E+01 0. -1.
        -13    1    6    6    0    0  0.76471426242E+01 -0.88878297419E+01  0.14564631283E+02  0.18697614614E+02  0.00000000000E+00 0.  1.
         14    1    6    6    0    0 -0.12022919458E+03  0.24609941491E+02  0.15414025757E+02  0.12368629932E+03  0.00000000000E+00 0. -1.
         -5    1    3    3    0  503  0.11633150403E+03 -0.81559927830E+02 -0.68173500034E+02  0.15765391452E+03  0.47000000000E+01 0.  1.
         11    1    4    4    0    0 -0.12862595428E+02  0.27041826439E+02  0.19753589381E+01  0.30010144638E+02  0.00000000000E+00 0. -1.
        -12    1    4    4    0    0  0.14919599724E+02 -0.51493685965E+02 -0.14174762048E+01  0.53630246960E+02  0.00000000000E+00 0.  1.
</event>
<event>
12    1  0.8449700E-002  0.1925389E+03  0.7818608E-02  0.1156301E+00
         21   -1    0    0  501  502  0.00000000000E+00  0.00000000000E+00  0.75096965893E+02  0.75096965893E+02  0.00000000000E+00 0.  1.
         21   -1    0    0  502  503 -0.00000000000E+00 -0.00000000000E+00 -0.16415219655E+04  0.16415219655E+04  0.00000000000E+00 0.  1.
         -6    2    1    2    0  503 -0.39173477163E+02 -0.76116478815E+02 -0.15010483820E+04  0.15132834392E+04  0.17190765738E+03 0.  0.
        -24    2    3    3    0    0  0.52943207772E+01 -0.86080618586E+02 -0.13570415248E+04  0.13621651609E+04  0.80587360672E+02 0.  0.
          6    2    1    2  501    0  0.39173477163E+02  0.76116478815E+02 -0.65376617619E+02  0.20333549218E+03  0.17246141768E+03 0.  0.
         24    2    5    5    0    0 -0.22863493655E+02  0.38104417629E+02  0.19081208140E+02  0.91761674123E+02  0.77983500491E+02 0.  0.
          5    1    5    5  501    0  0.62036970817E+02  0.38012061186E+02 -0.84457825759E+02  0.11157381806E+03  0.47000000000E+01 0. -1.
        -13    1    6    6    0    0  0.16960153819E+02  0.13394737909E+02  0.35954637052E+02  0.41949991023E+02  0.00000000000E+00 0.  1.
         14    1    6    6    0    0 -0.39823647474E+02  0.24709679720E+02 -0.16873428912E+02  0.49811683100E+02  0.00000000000E+00 0. -1.
         -5    1    3    3    0  503 -0.44467797940E+02  0.99641397713E+01 -0.14400685717E+03  0.15111827834E+03  0.47000000000E+01 0.  1.
         11    1    4    4    0    0  0.36616055626E+02 -0.27887979584E+02 -0.77890688169E+03  0.78026559919E+03  0.00000000000E+00 0. -1.
        -12    1    4    4    0    0 -0.31321734849E+02 -0.58192639002E+02 -0.57813464314E+03  0.58189956170E+03  0.00000000000E+00 0.  1.
</event>
<event>
12    1  0.8449700E-002  0.2104849E+03  0.7818608E-02  0.1144721E+00
         21   -1    0    0  503  502  0.00000000000E+00  0.00000000000E+00  0.56257971020E+02  0.56257971020E+02  0.00000000000E+00 0. -1.
         21   -1    0    0  501  503 -0.00000000000E+00 -0.00000000000E+00 -0.76064659696E+03  0.76064659696E+03  0.00000000000E+00 0.  1.
          6    2    1    2  501    0  0.42843305759E+02 -0.77995518775E+02 -0.42665821780E+03  0.46842492767E+03  0.17165613372E+03 0.  0.
         24    2    3    3    0    0  0.82820793313E+02 -0.96548458183E+02 -0.33322057811E+03  0.36500784212E+03  0.77549226632E+02 0.  0.
         -6    2    1    2    0  502 -0.42843305759E+02  0.77995518775E+02 -0.27773040814E+03  0.34847964031E+03  0.19074860500E+03 0.  0.
        -24    2    5    5    0    0 -0.10336678706E+03  0.73404043126E+02 -0.18467196127E+03  0.23727650200E+03  0.78253171869E+02 0.  0.
          5    1    3    3  501    0 -0.39977487553E+02  0.18552939408E+02 -0.93437639697E+02  0.10341708555E+03  0.47000000000E+01 0. -1.
        -11    1    4    4    0    0  0.18631599665E+02 -0.55232982161E+02 -0.70793000184E+02  0.91703149888E+02  0.00000000000E+00 0.  1.
         12    1    4    4    0    0  0.64189193648E+02 -0.41315476022E+02 -0.26242757792E+03  0.27330469223E+03  0.00000000000E+00 0. -1.
         -5    1    5    5    0  502  0.60523481300E+02  0.45914756490E+01 -0.93058446869E+02  0.11120313831E+03  0.47000000000E+01 0.  1.
         13    1    6    6    0    0 -0.53450592295E+02 -0.74446385910E+01 -0.66378293588E+02  0.85548035162E+02  0.00000000000E+00 0. -1.
        -14    1    6    6    0    0 -0.49916194764E+02  0.80848681717E+02 -0.11829366768E+03  0.15172846684E+03  0.00000000000E+00 0.  1.
</event>
<event>
12    1  0.8449700E-002  0.1779227E+03  0.7818608E-02  0.1170342E+00
         21   -1    0    0  503  502  0.00000000000E+00  0.00000000000E+00  0.19921388985E+03  0.19921388985E+03  0.00000000000E+00 0. -1.
         21   -1    0    0  501  503 -0.00000000000E+00 -0.00000000000E+00 -0.19804275300E+03  0.19804275300E+03  0.00000000000E+00 0. -1.
          6    2    1    2  501    0 -0.54528594911E+01  0.38354206421E+02 -0.89774893540E+02  0.19743759304E+03  0.17152636184E+03 0.  0.
         24    2    3    3    0    0  0.41335493693E+02 -0.20208917609E+02 -0.72447122978E+02  0.12035885977E+03  0.84383920899E+02 0.  0.
         -6    2    1    2    0  502  0.54528594911E+01 -0.38354206421E+02  0.90946030398E+02  0.19981904981E+03  0.17365394725E+03 0.  0.
        -24    2    5    5    0    0 -0.60745427936E+02  0.28058479069E+01  0.55027536755E+02  0.11386213319E+03  0.78985288345E+02 0.  0.
          5    1    3    3  501    0 -0.46788353185E+02  0.58563124031E+02 -0.17327770562E+02  0.77078733271E+02  0.47000000000E+01 0. -1.
        -11    1    4    4    0    0  0.95194006176E+01  0.31283427341E+02 -0.12044398284E+02  0.34847372130E+02  0.00000000000E+00 0.  1.
         12    1    4    4    0    0  0.31816093076E+02 -0.51492344951E+02 -0.60402724694E+02  0.85511487635E+02  0.00000000000E+00 0. -1.
         -5    1    5    5    0  502  0.66198287427E+02 -0.41160054328E+02  0.35918493642E+02  0.85956916627E+02  0.47000000000E+01 0.  1.
         11    1    6    6    0    0 -0.32400244652E+01 -0.21095206701E+02  0.46295565560E+02  0.50978278656E+02  0.00000000000E+00 0. -1.
        -12    1    6    6    0    0 -0.57505403471E+02  0.23901054608E+02  0.87319711959E+01  0.62883854531E+02  0.00000000000E+00 0.  1.
</event>
<event>
12    1  0.8449700E-002  0.2882490E+03  0.7818608E-02  0.1091354E+00
         21   -1    0    0  503  502  0.00000000000E+00  0.00000000000E+00  0.28107777324E+03  0.28107777324E+03  0.00000000000E+00 0. -1.
         21   -1    0    0  501  503 -0.00000000000E+00 -0.00000000000E+00 -0.38646082579E+03  0.38646082579E+03  0.00000000000E+00 0. -1.
          6    2    1    2  501    0  0.16928683645E+03 -0.15667599622E+03  0.10970066315E+03  0.30841810398E+03  0.17286437048E+03 0.  0.
         24    2    3    3    0    0  0.18069340538E+02 -0.21389518574E+02  0.16778874937E+02  0.85201368882E+02  0.78700254402E+02 0.  0.
         -6    2    1    2    0  502 -0.16928683645E+03  0.15667599622E+03 -0.21508371570E+03  0.35912049505E+03  0.17175891365E+03 0.  0.
        -24    2    5    5    0    0 -0.94108300449E+02  0.12436672223E+03 -0.65049522266E+02  0.18815836281E+03  0.82756723809E+02 0.  0.
          5    1    3    3  501    0  0.15121749591E+03 -0.13528647765E+03  0.92921788212E+02  0.22321673510E+03  0.47000000000E+01 0. -1.
        -11    1    4    4    0    0 -0.25254025833E+02 -0.28539493195E+02  0.15874124791E+02  0.41282639578E+02  0.00000000000E+00 0.  1.
         12    1    4    4    0    0  0.43323366372E+02  0.71499746214E+01  0.90475014603E+00  0.43918729304E+02  0.00000000000E+00 0. -1.
         -5    1    5    5    0  502 -0.75178536002E+02  0.32309273993E+02 -0.15003419344E+03  0.17096213224E+03  0.47000000000E+01 0.  1.
         13    1    6    6    0    0 -0.10138963798E+03  0.12562611371E+03 -0.46207823953E+02  0.16791945131E+03  0.00000000000E+00 0. -1.
        -14    1    6    6    0    0  0.72813375315E+01 -0.12593914769E+01 -0.18841698313E+02  0.20238911494E+02  0.00000000000E+00 0.  1.
</event>
<event>
12    1  0.8449700E-002  0.1926255E+03  0.7818608E-02  0.1156130E+00
         21   -1    0    0  501  502  0.00000000000E+00  0.00000000000E+00  0.76573601795E+02  0.76573601795E+02  0.00000000000E+00 0.  1.
         21   -1    0    0  502  503 -0.00000000000E+00 -0.00000000000E+00 -0.95670579774E+03  0.95670579774E+03  0.00000000000E+00 0. -1.
         -6    2    1    2    0  503 -0.76409524194E+02 -0.42252097456E+02 -0.80303373530E+03  0.82579746756E+03  0.17162348988E+03 0.  0.
        -24    2    3    3    0    0 -0.92288521430E+02 -0.70983638605E+02 -0.46172300120E+03  0.48287947267E+03  0.80178595347E+02 0.  0.
          6    2    1    2  501    0  0.76409524194E+02  0.42252097456E+02 -0.77098460643E+02  0.20748193197E+03  0.17170009998E+03 0.  0.
         24    2    5    5    0    0  0.42199044813E+02 -0.42693051519E+02 -0.67011351123E+02  0.11523294817E+03  0.72004549391E+02 0.  0.
          5    1    5    5  501    0  0.34210479381E+02  0.84945148975E+02 -0.10087109519E+02  0.92248983801E+02  0.47000000000E+01 0. -1.
        -11    1    6    6    0    0  0.39976693049E+02 -0.15818681979E+02  0.72443204371E-02  0.42992635871E+02  0.00000000000E+00 0.  1.
         12    1    6    6    0    0  0.22223517646E+01 -0.26874369540E+02 -0.67018595444E+02  0.72240312297E+02  0.00000000000E+00 0. -1.
         -5    1    3    3    0  503  0.15878997236E+02  0.28731541149E+02 -0.34131073410E+03  0.34291799490E+03  0.47000000000E+01 0.  1.
         13    1    4    4    0    0 -0.64401648897E+02 -0.34415331540E+02 -0.39593003961E+03  0.40260723253E+03  0.00000000000E+00 0. -1.
        -14    1    4    4    0    0 -0.27886872533E+02 -0.36568307065E+02 -0.65792961592E+02  0.80272240135E+02  0.00000000000E+00 0.  1.
</event>
<event>
12    1  0.8449700E-002  0.1847583E+03  0.7818608E-02  0.1163415E+00
         21   -1    0    0  501  502  0.00000000000E+00  0.00000000000E+00  0.19381230655E+04  0.19381230655E+04  0.00000000000E+00 0.  1.
         21   -1    0    0  502  503 -0.00000000000E+00 -0.00000000000E+00 -0.45893798039E+02  0.45893798039E+02  0.00000000000E+00 0.  1.
         -6    2    1    2    0  503 -0.69557396895E+02  0.13628057636E+02  0.16602308854E+03  0.24795136573E+03  0.16997722913E+03 0.  0.
        -24    2    3    3    0    0 -0.11008007530E+03  0.52120773218E+01  0.15245927187E+03  0.20414516398E+03  0.79288269426E+02 0.  0.
          6    2    1    2  501    0  0.69557396895E+02 -0.13628057636E+02  0.17262061789E+04  0.17360654978E+04  0.17062146729E+03 0.  0.
         24    2    5    5    0    0  0.55380386515E+02 -0.52771993783E+02  0.15745001912E+04  0.15786805174E+04  0.85612226027E+02 0.  0.
          5    1    5    5  501    0  0.14177010380E+02  0.39143936146E+02  0.15170598767E+03  0.15738498040E+03  0.47000000000E+01 0. -1.
        -11    1    6    6    0    0  0.20352441954E+02 -0.98502988884E+01  0.11894858191E+04  0.11897007036E+04  0.00000000000E+00 0.  1.
         12    1    6    6    0    0  0.35027944561E+02 -0.42921694894E+02  0.38501437215E+03  0.38897981381E+03  0.00000000000E+00 0. -1.
         -5    1    3    3    0  503  0.40522678401E+02  0.84159803147E+01  0.13563816663E+02  0.43806201752E+02  0.47000000000E+01 0.  1.
         11    1    4    4    0    0 -0.50930113992E+02 -0.34677678359E+02  0.50296104804E+02  0.79536884815E+02  0.00000000000E+00 0. -1.
        -12    1    4    4    0    0 -0.59149961305E+02  0.39889755681E+02  0.10216316707E+03  0.12460827916E+03  0.00000000000E+00 0.  1.
</event>
<event>
12    1  0.8449700E-002  0.1909365E+03  0.7818608E-02  0.1158537E+00
         21   -1    0    0  503  502  0.00000000000E+00  0.00000000000E+00  0.30343793314E+03  0.30343793314E+03  0.00000000000E+00 0.  1.
         21   -1    0    0  501  503 -0.00000000000E+00 -0.00000000000E+00 -0.32422394745E+03  0.32422394745E+03  0.00000000000E+00 0.  1.
          6    2    1    2  501    0 -0.60759258559E+02  0.52981149902E+02 -0.26095371133E+03  0.32334746867E+03  0.17308395735E+03 0.  0.
         24    2    3    3    0    0 -0.55329720314E+02 -0.30298598294E+02 -0.18216328271E+03  0.20847789921E+03  0.79373735477E+02 0.  0.
         -6    2    1    2    0  502  0.60759258559E+02 -0.52981149902E+02  0.24016769702E+03  0.30431441192E+03  0.16860619462E+03 0.  0.
        -24    2    5    5    0    0  0.25807865193E+01 -0.37183242653E+02  0.23875288375E+02  0.79728560810E+02  0.66312593228E+02 0.  0.
          5    1    3    3  501    0 -0.54295382453E+01  0.83279748196E+02 -0.78790428616E+02  0.11486956945E+03  0.47000000000E+01 0. -1.
        -13    1    4    4    0    0 -0.65711846647E+02  0.25708008816E+01 -0.10394220275E+03  0.12299852568E+03  0.00000000000E+00 0.  1.
         14    1    4    4    0    0  0.10382126333E+02 -0.32869399175E+02 -0.78221079961E+02  0.85479373533E+02  0.00000000000E+00 0. -1.
         -5    1    5    5    0  502  0.58178472040E+02 -0.15797907249E+02  0.21629240864E+03  0.22458585111E+03  0.47000000000E+01 0.  1.
         11    1    6    6    0    0 -0.23217860892E+02 -0.43515397037E+02  0.12860423029E+02  0.50971063596E+02  0.00000000000E+00 0. -1.
        -12    1    6    6    0    0  0.25798647411E+02  0.63321543836E+01  0.11014865346E+02  0.28757497214E+02  0.00000000000E+00 0.  1.
</event>
<event>
12    1  0.8449700E-002  0.3979738E+03  0.7818608E-02  0.1044504E+00
         21   -1    0    0  503  502  0.00000000000E+00  0.00000000000E+00  0.47734018417E+03  0.47734018417E+03  0.00000000000E+00 0. -1.
         21   -1    0    0  501  503 -0.00000000000E+00 -0.00000000000E+00 -0.33702755924E+03  0.33702755924E+03  0.00000000000E+00 0.  1.
          6    2    1    2  501    0 -0.22751770326E+03 -0.27779800091E+03  0.18522040287E+02  0.39817535906E+03  0.17106874635E+03 0.  0.
         24    2    3    3    0    0 -0.15954209098E+03 -0.98264079827E+02 -0.83836244944E+01  0.20427044039E+03  0.80911182663E+02 0.  0.
         -6    2    1    2    0  502  0.22751770326E+03  0.27779800091E+03  0.12179058465E+03  0.41619238435E+03  0.17160163075E+03 0.  0.
        -24    2    5    5    0    0  0.16808926496E+03  0.27357438987E+03  0.13003762252E+03  0.35586260893E+03  0.81433809778E+02 0.  0.
          5    1    3    3  501    0 -0.67975612282E+02 -0.17953392109E+03  0.26905664782E+02  0.19390491867E+03  0.47000000000E+01 0. -1.
        -11    1    4    4    0    0 -0.48685105678E+02 -0.59601329094E+02 -0.33949038846E+02  0.84113585010E+02  0.00000000000E+00 0.  1.
         12    1    4    4    0    0 -0.11085698530E+03 -0.38662750733E+02  0.25565414351E+02  0.12015685538E+03  0.00000000000E+00 0. -1.
         -5    1    5    5    0  502  0.59428438304E+02  0.42236110427E+01 -0.82470378656E+01  0.60329775427E+02  0.47000000000E+01 0.  1.
         13    1    6    6    0    0  0.47599945675E+02  0.78888923613E+02  0.78816281241E+02  0.12124860117E+03  0.00000000000E+00 0. -1.
        -14    1    6    6    0    0  0.12048931928E+03  0.19468546626E+03  0.51221341274E+02  0.23461400776E+03  0.00000000000E+00 0.  1.
</event>
<event>
12    1  0.8449700E-002  0.1746161E+03  0.7818608E-02  0.1173767E+00
         21   -1    0    0  503  502  0.00000000000E+00  0.00000000000E+00  0.39498327891E+03  0.39498327891E+03  0.00000000000E+00 0.  1.
         21   -1    0    0  501  503 -0.00000000000E+00 -0.00000000000E+00 -0.15449010216E+03  0.15449010216E+03  0.00000000000E+00 0.  1.
          6    2    1    2  501    0  0.13013540612E+02 -0.37628500096E+02 -0.75931770027E+02  0.18806566405E+03  0.16738519659E+03 0.  0.
         24    2    3    3    0    0 -0.29216908809E+02 -0.21664825267E+02  0.12996987785E+02  0.88222468296E+02  0.79317651292E+02 0.  0.
         -6    2    1    2    0  502 -0.13013540612E+02  0.37628500096E+02  0.31642494678E+03  0.36140771702E+03  0.17001627782E+03 0.  0.
        -24    2    5    5    0    0 -0.27225195670E+02 -0.23117461170E+02  0.88636314589E+02  0.12518368373E+03  0.80863651410E+02 0.  0.
          5    1    3    3  501    0  0.42230449421E+02 -0.15963674829E+02 -0.88928757812E+02  0.99843195754E+02  0.47000000000E+01 0. -1.
        -13    1    4    4    0    0 -0.19732700876E+02  0.22897658638E+02 -0.16016301185E+02  0.34208246939E+02  0.00000000000E+00 0.  1.
         14    1    4    4    0    0 -0.94842079326E+01 -0.44562483905E+02  0.29013288971E+02  0.54014221357E+02  0.00000000000E+00 0. -1.
         -5    1    5    5    0  502  0.14211655058E+02  0.60745961266E+02  0.22778863219E+03  0.23622403329E+03  0.47000000000E+01 0.  1.
         13    1    6    6    0    0  0.11886023836E+02 -0.28049194199E+01 -0.10873239183E+02  0.16351527938E+02  0.00000000000E+00 0. -1.
        -14    1    6    6    0    0 -0.39111219505E+02 -0.20312541750E+02  0.99509553772E+02  0.10883215580E+03  0.00000000000E+00 0.  1.
</event>
<event>
12    1  0.8449700E-002  0.1871507E+03  0.7818608E-02  0.1161065E+00
         21   -1    0    0  503  502  0.00000000000E+00  0.00000000000E+00  0.25451433729E+03  0.25451433729E+03  0.00000000000E+00 0.  1.
         21   -1    0    0  501  503 -0.00000000000E+00 -0.00000000000E+00 -0.36190858257E+03  0.36190858257E+03  0.00000000000E+00 0.  1.
          6    2    1    2  501    0  0.49898343752E+02 -0.56222396518E+02 -0.29634552216E+03  0.35047562920E+03  0.17135254762E+03 0.  0.
         24    2    3    3    0    0  0.32077482477E+02 -0.10406303557E+03 -0.21616432919E+03  0.25530513194E+03  0.81213378983E+02 0.  0.
         -6    2    1    2    0  502 -0.49898343752E+02  0.56222396518E+02  0.18895127688E+03  0.26594729066E+03  0.17139012163E+03 0.  0.
        -24    2    5    5    0    0  0.13074241269E+02  0.84739129565E+02  0.13389574970E+03  0.17744897654E+03  0.78793474498E+02 0.  0.
          5    1    3    3  501    0  0.17820861275E+02  0.47840639053E+02 -0.80181192974E+02  0.95170497258E+02  0.47000000000E+01 0. -1.
        -11    1    4    4    0    0  0.32938684960E+02 -0.75315669650E+02 -0.21051467843E+03  0.22599521432E+03  0.00000000000E+00 0.  1.
         12    1    4    4    0    0 -0.86120248357E+00 -0.28747365921E+02 -0.56496507617E+01  0.29309917619E+02  0.00000000000E+00 0. -1.
         -5    1    5    5    0  502 -0.62972585021E+02 -0.28516733047E+02  0.55055527184E+02  0.88498314116E+02  0.47000000000E+01 0.  1.
         13    1    6    6    0    0  0.21133654211E+01 -0.12443964704E+02  0.13019431854E+01  0.12689114508E+02  0.00000000000E+00 0. -1.
        -14    1    6    6    0    0  0.10960875848E+02  0.97183094268E+02  0.13259380651E+03  0.16475986203E+03  0.00000000000E+00 0.  1.
</event>
<event>
12    1  0.8449700E-002  0.2295546E+03  0.7818608E-02  0.1127105E+00
         21   -1    0    0  501  502  0.00000000000E+00  0.00000000000E+00  0.55339119451E+02  0.55339119451E+02  0.00000000000E+00 0. -1.
         21   -1    0    0  502  503 -0.00000000000E+00 -0.00000000000E+00 -0.10371293887E+04  0.10371293887E+04  0.00000000000E+00 0. -1.
         -6    2    1    2    0  503 -0.10170720925E+03  0.10997373155E+03 -0.64957679519E+03  0.68866024268E+03  0.17281301733E+03 0.  0.
        -24    2    3    3    0    0 -0.59841828061E+02  0.10808287299E+03 -0.27794517943E+03  0.31464362097E+03  0.80524118295E+02 0.  0.
          6    2    1    2  501    0  0.10170720925E+03 -0.10997373155E+03 -0.33221347408E+03  0.40380826549E+03  0.17394466038E+03 0.  0.
         24    2    5    5    0    0  0.16913983814E+02 -0.13863355102E+02 -0.21340614702E+03  0.22898158988E+03  0.80075648341E+02 0.  0.
          5    1    5    5  501    0  0.84793225433E+02 -0.96110376444E+02 -0.11880732706E+03  0.17482667560E+03  0.47000000000E+01 0. -1.
        -11    1    6    6    0    0 -0.11834714711E+02 -0.38536131541E+02 -0.14803946781E+03  0.15343004248E+03  0.00000000000E+00 0.  1.
         12    1    6    6    0    0  0.28748698525E+02  0.24672776440E+02 -0.65366679211E+02  0.75551547404E+02  0.00000000000E+00 0. -1.
         -5    1    3    3    0  503 -0.41865381186E+02  0.18908585586E+01 -0.37163161576E+03  0.37401662171E+03  0.47000000000E+01 0.  1.
         13    1    4    4    0    0 -0.22432797848E+02  0.63094160814E+02 -0.22827395952E+03  0.23789305190E+03  0.00000000000E+00 0. -1.
        -14    1    4    4    0    0 -0.37409030213E+02  0.44988712173E+02 -0.49671219914E+02  0.76750569068E+02  0.00000000000E+00 0.  1.
</event>
<event>
12    1  0.8449700E-002  0.1836006E+03  0.7818608E-02  0.1165298E+00
         21   -1    0    0  501  502  0.00000000000E+00  0.00000000000E+00  0.73265068810E+02  0.73265068810E+02  0.00000000000E+00 0.  1.
         21   -1    0    0  502  503 -0.00000000000E+00 -0.00000000000E+00 -0.48317132659E+03  0.48317132659E+03  0.00000000000E+00 0.  1.
         -6    2    1    2    0  503  0.45102699347E+02 -0.35028523414E+02 -0.27954518560E+03  0.33444681917E+03  0.17449330395E+03 0.  0.
        -24    2    3    3    0    0  0.97510516714E+02 -0.14784674822E+02 -0.20262796609E+03  0.23908046566E+03  0.79840396640E+02 0.  0.
          6    2    1    2  501    0 -0.45102699347E+02  0.35028523414E+02 -0.13036107219E+03  0.22198957623E+03  0.17036464384E+03 0.  0.
         24    2    5    5    0    0  0.21052106598E+02  0.66661319258E+02 -0.70322234979E+02  0.12710098842E+03  0.79514287070E+02 0.  0.
          5    1    5    5  501    0 -0.66154805945E+02 -0.31632795844E+02 -0.60038837206E+02  0.94888587805E+02  0.47000000000E+01 0. -1.
        -13    1    6    6    0    0 -0.25179949492E+02  0.12275562205E+02 -0.41612536075E+02  0.50162958869E+02  0.00000000000E+00 0.  1.
         14    1    6    6    0    0  0.46232056090E+02  0.54385757053E+02 -0.28709698903E+02  0.76938029554E+02  0.00000000000E+00 0. -1.
         -5    1    3    3    0  503 -0.52407817367E+02 -0.20243848592E+02 -0.76917219500E+02  0.95366353514E+02  0.47000000000E+01 0.  1.
         11    1    4    4    0    0  0.58143803726E+02 -0.17376361907E+01 -0.18515489371E+03  0.19407744835E+03  0.00000000000E+00 0. -1.
        -12    1    4    4    0    0  0.39366712988E+02 -0.13047038631E+02 -0.17473072382E+02  0.45003017310E+02  0.00000000000E+00 0.  1.
</event>
<event>
12    1  0.8449700E-002  0.1894798E+03  0.7818608E-02  0.1159005E+00
         21   -1    0    0  503  502  0.00000000000E+00  0.00000000000E+00  0.51110807461E+03  0.51110807461E+03  0.00000000000E+00 0.  1.
         21   -1    0    0  501  503 -0.00000000000E+00 -0.00000000000E+00 -0.11407688625E+03  0.11407688625E+03  0.00000000000E+00 0.  1.
          6    2    1    2  501    0  0.20131927678E+02 -0.75667960414E+02  0.43781266112E+01  0.18920441079E+03  0.17218654513E+03 0.  0.
         24    2    3    3    0    0  0.27858090864E+01 -0.85330978677E+02 -0.51653018533E+02  0.12957353809E+03  0.82656704483E+02 0.  0.
         -6    2    1    2    0  502 -0.20131927678E+02  0.75667960414E+02  0.39265306175E+03  0.43598055008E+03  0.17254471421E+03 0.  0.
        -24    2    5    5    0    0  0.64126579964E+01  0.54030875394E+02  0.92227786547E+02  0.13357318500E+03  0.79845935781E+02 0.  0.
          5    1    3    3  501    0  0.17346118591E+02  0.96630182628E+01  0.56031145144E+02  0.59630872695E+02  0.47000000000E+01 0. -1.
        -11    1    4    4    0    0  0.42270826274E+02 -0.38052304703E+02 -0.19772070642E+02  0.60214079953E+02  0.00000000000E+00 0.  1.
         12    1    4    4    0    0 -0.39485017187E+02 -0.47278673974E+02 -0.31880947891E+02  0.69359458140E+02  0.00000000000E+00 0. -1.
         -5    1    5    5    0  502 -0.26544585674E+02  0.21637085020E+02  0.30042527520E+03  0.30240736508E+03  0.47000000000E+01 0.  1.
         11    1    6    6    0    0 -0.12465338028E+02 -0.17636988744E+02  0.13601952251E+02  0.25523736583E+02  0.00000000000E+00 0. -1.
        -12    1    6    6    0    0  0.18877996024E+02  0.71667864138E+02  0.78625834296E+02  0.10804944841E+03  0.00000000000E+00 0.  1.
</event>
<event>
12    1  0.8449700E-002  0.2152979E+03  0.7818608E-02  0.1137720E+00
         21   -1    0    0  501  502  0.00000000000E+00  0.00000000000E+00  0.45169377981E+03  0.45169377981E+03  0.00000000000E+00 0. -1.
         21   -1    0    0  502  503 -0.00000000000E+00 -0.00000000000E+00 -0.12699131300E+03  0.12699131300E+03  0.00000000000E+00 0. -1.
         -6    2    1    2    0  503 -0.11579508276E+03 -0.57144909278E+02  0.34244885885E+02  0.21800432569E+03  0.17227632444E+03 0.  0.
        -24    2    3    3    0    0 -0.85816036663E+02 -0.24062908472E+02 -0.46915236922E+02  0.12525618546E+03  0.74462452473E+02 0.  0.
          6    2    1    2  501    0  0.11579508276E+03  0.57144909278E+02  0.29045758092E+03  0.36068076712E+03  0.17044344402E+03 0.  0.
         24    2    5    5    0    0  0.12567541380E+03  0.95008436835E+01  0.14728145378E+03  0.20938942134E+03  0.79167717378E+02 0.  0.
          5    1    5    5  501    0 -0.98803310382E+01  0.47644065594E+02  0.14317612714E+03  0.15129134579E+03  0.47000000000E+01 0. -1.
        -13    1    6    6    0    0  0.16613489365E+01  0.93812712980E+01  0.52354828438E+02  0.53214625736E+02  0.00000000000E+00 0.  1.
         14    1    6    6    0    0  0.12401406486E+03  0.11957238553E+00  0.94926625344E+02  0.15617479560E+03  0.00000000000E+00 0. -1.
         -5    1    3    3    0  503 -0.29979046098E+02 -0.33082000805E+02  0.81160122807E+02  0.92748140231E+02  0.47000000000E+01 0.  1.
         11    1    4    4    0    0 -0.58216081772E+02  0.16173269220E+01  0.78546036040E+01  0.58765829536E+02  0.00000000000E+00 0. -1.
        -12    1    4    4    0    0 -0.27599954891E+02 -0.25680235394E+02 -0.54769840526E+02  0.66490355925E+02  0.00000000000E+00 0.  1.
</event>
<event>
12    1  0.8449700E-002  0.3003064E+03  0.7818608E-02  0.1085231E+00
         21   -1    0    0  501  502  0.00000000000E+00  0.00000000000E+00  0.83579515745E+03  0.83579515745E+03  0.00000000000E+00 0. -1.
         21   -1    0    0  502  503 -0.00000000000E+00 -0.00000000000E+00 -0.11721492547E+03  0.11721492547E+03  0.00000000000E+00 0.  1.
         -6    2    1    2    0  503 -0.10934528698E+03 -0.21886119969E+03  0.22139824797E+03  0.37217115520E+03  0.17215565063E+03 0.  0.
        -24    2    3    3    0    0 -0.12581737472E+03 -0.20334536348E+03  0.23494381012E+03  0.34538229368E+03  0.83132341722E+02 0.  0.
          6    2    1    2  501    0  0.10934528698E+03  0.21886119969E+03  0.49718198401E+03  0.58083892773E+03  0.17414740374E+03 0.  0.
         24    2    5    5    0    0  0.23957825754E+02  0.92365277016E+02  0.33809114606E+03  0.36032992178E+03  0.80166749154E+02 0.  0.
          5    1    5    5  501    0  0.85387461222E+02  0.12649592267E+03  0.15909083794E+03  0.22050900595E+03  0.47000000000E+01 0. -1.
        -11    1    6    6    0    0  0.47185134782E+02  0.41694763269E+02  0.23315656727E+03  0.24150957556E+03  0.00000000000E+00 0.  1.
         12    1    6    6    0    0 -0.23227309028E+02  0.50670513747E+02  0.10493457880E+03  0.11882034622E+03  0.00000000000E+00 0. -1.
         -5    1    3    3    0  503  0.16472087744E+02 -0.15515836205E+02 -0.13545562146E+02  0.26788861522E+02  0.47000000000E+01 0.  1.
         13    1    4    4    0    0 -0.30144265692E+02 -0.64165418418E+01  0.50235537081E+02  0.58936049656E+02  0.00000000000E+00 0. -1.
        -14    1    4    4    0    0 -0.95673109028E+02 -0.19692882164E+03  0.18470827304E+03  0.28644624402E+03  0.00000000000E+00 0.  1.
</event>
<event>
12    1  0.8449700E-002  0.1808378E+03  0.7818608E-02  0.1168552E+00
         21   -1    0    0  503  502  0.00000000000E+00  0.00000000000E+00  0.79788562031E+03  0.79788562031E+03  0.00000000000E+00 0. -1.
         21   -1    0    0  501  503 -0.00000000000E+00 -0.00000000000E+00 -0.44620416009E+02  0.44620416009E+02  0.00000000000E+00 0. -1.
          6    2    1    2  501    0 -0.23462773404E+02 -0.83562414426E+01  0.24074288927E+03  0.30109707509E+03  0.17911443656E+03 0.  0.
         24    2    3    3    0    0  0.38831522829E+02  0.10984429615E+02  0.21073786922E+03  0.22914547936E+03  0.80427957371E+02 0.  0.
         -6    2    1    2    0  502  0.23462773404E+02  0.83562414426E+01  0.51252231503E+03  0.54140896123E+03  0.17269687720E+03 0.  0.
        -24    2    5    5    0    0  0.87141055062E+00 -0.61089265593E+02  0.25540377018E+03  0.27407941886E+03  0.78458806328E+02 0.  0.
          5    1    3    3  501    0 -0.62294296232E+02 -0.19340671057E+02  0.30005020054E+02  0.71951595733E+02  0.47000000000E+01 0. -1.
        -11    1    4    4    0    0 -0.24776132917E+02  0.85237328995E+01  0.67125585738E+02  0.72057997790E+02  0.00000000000E+00 0.  1.
         12    1    4    4    0    0  0.63607655746E+02  0.24606967152E+01  0.14361228348E+03  0.15708748157E+03  0.00000000000E+00 0. -1.
         -5    1    5    5    0  502  0.22591362853E+02  0.69445507035E+02  0.25711854485E+03  0.26732954238E+03  0.47000000000E+01 0.  1.
         11    1    6    6    0    0 -0.26253665115E+02 -0.15296103539E+02  0.30836278907E+02  0.43290897569E+02  0.00000000000E+00 0. -1.
        -12    1    6    6    0    0  0.27125075666E+02 -0.45793162054E+02  0.22456749127E+03  0.23078852129E+03  0.00000000000E+00 0.  1.
</event>
<event>
12    1  0.8449700E-002  0.2348083E+03  0.7818608E-02  0.1123493E+00
         21   -1    0    0  501  502  0.00000000000E+00  0.00000000000E+00  0.15643393581E+04  0.15643393581E+04  0.00000000000E+00 0.  1.
         21   -1    0    0  502  503 -0.00000000000E+00 -0.00000000000E+00 -0.38344854183E+02  0.38344854183E+02  0.00000000000E+00 0. -1.
         -6    2    1    2    0  503 -0.43945020332E+01 -0.15964774360E+03  0.53072743851E+03  0.58035038637E+03  0.17212856614E+03 0.  0.
        -24    2    3    3    0    0  0.99472469081E+01 -0.80482620872E+02  0.13777742733E+03  0.17922122549E+03  0.81001408634E+02 0.  0.
          6    2    1    2  501    0  0.43945020332E+01  0.15964774360E+03  0.99526706545E+03  0.10223338260E+04  0.17059661910E+03 0.  0.
         24    2    5    5    0    0  0.21646195390E+02  0.97610587940E+02  0.88830975542E+03  0.89740110097E+03  0.78981832008E+02 0.  0.
          5    1    5    5  501    0 -0.17251693356E+02  0.62037155658E+02  0.10695731003E+03  0.12493272499E+03  0.47000000000E+01 0. -1.
        -11    1    6    6    0    0 -0.28854237419E+02  0.32827222354E+02  0.24491847561E+03  0.24878756648E+03  0.00000000000E+00 0.  1.
         12    1    6    6    0    0  0.50500432808E+02  0.64783365586E+02  0.64339127982E+03  0.64861353448E+03  0.00000000000E+00 0. -1.
         -5    1    3    3    0  503 -0.14341748941E+02 -0.79165122726E+02  0.39295001118E+03  0.40112916088E+03  0.47000000000E+01 0.  1.
         11    1    4    4    0    0 -0.13905254692E+02 -0.87678542350E+02  0.97493813152E+02  0.13185570333E+03  0.00000000000E+00 0. -1.
        -12    1    4    4    0    0  0.23852501600E+02  0.71959214788E+01  0.40283614179E+02  0.47365522163E+02  0.00000000000E+00 0.  1.
</event>
<event>
12    1  0.8449700E-002  0.3033533E+03  0.7818608E-02  0.1083698E+00
         21   -1    0    0  503  502  0.00000000000E+00  0.00000000000E+00  0.50184358337E+03  0.50184358337E+03  0.00000000000E+00 0.  1.
         21   -1    0    0  501  503 -0.00000000000E+00 -0.00000000000E+00 -0.19189510024E+03  0.19189510024E+03  0.00000000000E+00 0. -1.
          6    2    1    2  501    0  0.17804247713E+03  0.17497698991E+03  0.23035549068E+03  0.38011745144E+03  0.17061522247E+03 0.  0.
         24    2    3    3    0    0  0.17897777359E+03  0.17708717989E+03  0.15892801981E+03  0.30849831101E+03  0.80747629643E+02 0.  0.
         -6    2    1    2    0  502 -0.17804247713E+03 -0.17497698991E+03  0.79592992446E+02  0.31362123218E+03  0.17235765769E+03 0.  0.
        -24    2    5    5    0    0 -0.43434528390E+02 -0.13502345613E+03  0.51219809403E+02  0.17029394154E+03  0.79111729142E+02 0.  0.
          5    1    3    3  501    0 -0.93529645835E+00 -0.21101899773E+01  0.71427470869E+02  0.71619140430E+02  0.47000000000E+01 0. -1.
        -13    1    4    4    0    0  0.15761394816E+03  0.10761488900E+03  0.12610359012E+03  0.22874710147E+03  0.00000000000E+00 0.  1.
         14    1    4    4    0    0  0.21363825426E+02  0.69472290884E+02  0.32824429688E+02  0.79751209532E+02  0.00000000000E+00 0. -1.
         -5    1    5    5    0  502 -0.13460794874E+03 -0.39953533780E+02  0.28373183044E+02  0.14332729064E+03  0.47000000000E+01 0.  1.
         11    1    6    6    0    0 -0.30716172613E+02 -0.12721352960E+03  0.15751992450E+02  0.13181384843E+03  0.00000000000E+00 0. -1.
        -12    1    6    6    0    0 -0.12718355777E+02 -0.78099265344E+01  0.35467816953E+02  0.38480093107E+02  0.00000000000E+00 0.  1.
</event>
<event>
12    1  0.8449700E-002  0.1775331E+03  0.7818608E-02  0.1170832E+00
         21   -1    0    0  503  502  0.00000000000E+00  0.00000000000E+00  0.26658171694E+02  0.26658171694E+02  0.00000000000E+00 0. -1.
         21   -1    0    0  501  503 -0.00000000000E+00 -0.00000000000E+00 -0.11799206585E+04  0.11799206585E+04  0.00000000000E+00 0. -1.
          6    2    1    2  501    0 -0.30232019470E+02 -0.30246412077E+02 -0.51451195134E+03  0.54427984931E+03  0.17230550152E+03 0.  0.
         24    2    3    3    0    0  0.12577860487E+02 -0.77730767780E+02 -0.33703653737E+03  0.35558151223E+03  0.81512633850E+02 0.  0.
         -6    2    1    2    0  502  0.30232019470E+02  0.30246412077E+02 -0.63875053546E+03  0.66229898088E+03  0.16973176801E+03 0.  0.
        -24    2    5    5    0    0  0.30377346451E+02 -0.46802098778E+01 -0.15671147146E+03  0.17897337710E+03  0.80797876714E+02 0.  0.
          5    1    3    3  501    0 -0.42809879957E+02  0.47484355703E+02 -0.17747541396E+03  0.18869833709E+03  0.47000000000E+01 0. -1.
        -11    1    4    4    0    0 -0.20928361775E+02 -0.60433541466E+02 -0.27997334258E+03  0.28718510027E+03  0.00000000000E+00 0.  1.
         12    1    4    4    0    0  0.33506222261E+02 -0.17297226314E+02 -0.57063194790E+02  0.68396411953E+02  0.00000000000E+00 0. -1.
         -5    1    5    5    0  502 -0.14532698077E+00  0.34926621955E+02 -0.48203906400E+03  0.48332560377E+03  0.47000000000E+01 0.  1.
         11    1    6    6    0    0  0.47424817904E+02  0.23703316238E+02 -0.10380207035E+03  0.11655827025E+03  0.00000000000E+00 0. -1.
        -12    1    6    6    0    0 -0.17047471454E+02 -0.28383526116E+02 -0.52909401116E+02  0.62415106858E+02  0.00000000000E+00 0.  1.
</event>
<event>
12    1  0.8449700E-002  0.2748298E+03  0.7818608E-02  0.1098562E+00
         21   -1    0    0  503  502  0.00000000000E+00  0.00000000000E+00  0.70137445789E+03  0.70137445789E+03  0.00000000000E+00 0.  1.
         21   -1    0    0  501  503 -0.00000000000E+00 -0.00000000000E+00 -0.11313393642E+03  0.11313393642E+03  0.00000000000E+00 0. -1.
          6    2    1    2  501    0  0.91126639142E+02 -0.19322031050E+03  0.20448885444E+03  0.34255964952E+03  0.17289670077E+03 0.  0.
         24    2    3    3    0    0 -0.85558254110E+01 -0.10036009674E+03  0.13914411492E+03  0.19139206694E+03  0.84406678681E+02 0.  0.
         -6    2    1    2    0  502 -0.91126639142E+02  0.19322031050E+03  0.38375166703E+03  0.47194874479E+03  0.17271978175E+03 0.  0.
        -24    2    5    5    0    0  0.16006465511E+02  0.56967980745E+02  0.99590402335E+02  0.13906450991E+03  0.76935894818E+02 0.  0.
          5    1    3    3  501    0  0.99682464553E+02 -0.92860213760E+02  0.65344739520E+02  0.15116758258E+03  0.47000000000E+01 0. -1.
        -11    1    4    4    0    0  0.27183228040E+02 -0.79242358821E+02  0.11824997516E+03  0.14491837683E+03  0.00000000000E+00 0.  1.
         12    1    4    4    0    0 -0.35739053451E+02 -0.21117737922E+02  0.20894139761E+02  0.46473690115E+02  0.00000000000E+00 0. -1.
         -5    1    5    5    0  502 -0.10713310465E+03  0.13625232976E+03  0.28416126470E+03  0.33288423488E+03  0.47000000000E+01 0.  1.
         11    1    6    6    0    0  0.10140478826E+02  0.74527435038E+02  0.63224408288E+02  0.98257283127E+02  0.00000000000E+00 0. -1.
        -12    1    6    6    0    0  0.58659866854E+01 -0.17559454293E+02  0.36365994047E+02  0.40807226785E+02  0.00000000000E+00 0.  1.
</event>
<event>
12    1  0.8449700E-002  0.2425805E+03  0.7818608E-02  0.1118138E+00
         21   -1    0    0  501  502  0.00000000000E+00  0.00000000000E+00  0.15565068176E+03  0.15565068176E+03  0.00000000000E+00 0.  1.
         21   -1    0    0  502  503 -0.00000000000E+00 -0.00000000000E+00 -0.38609352643E+03  0.38609352643E+03  0.00000000000E+00 0.  1.
         -6    2    1    2    0  503 -0.11959006132E+03  0.12346369893E+03 -0.15539930569E+03  0.28782130800E+03  0.17072519853E+03 0.  0.
        -24    2    3    3    0    0 -0.35726608920E+01  0.28459603621E+02 -0.22265637243E+02  0.87240952530E+02  0.79325356932E+02 0.  0.
          6    2    1    2  501    0  0.11959006132E+03 -0.12346369893E+03 -0.75043538982E+02  0.25392290019E+03  0.17117312516E+03 0.  0.
         24    2    5    5    0    0  0.11841853891E+03 -0.11824815360E+03 -0.63628951892E+01  0.18487440122E+03  0.78310162831E+02 0.  0.
          5    1    5    5  501    0  0.11715224089E+01 -0.52155453258E+01 -0.68680643793E+02  0.69048498967E+02  0.47000000000E+01 0. -1.
        -13    1    6    6    0    0  0.11290690559E+03 -0.10878759791E+03 -0.29258621199E+02  0.15949538458E+03  0.00000000000E+00 0.  1.
         14    1    6    6    0    0  0.55116333200E+01 -0.94605556941E+01  0.22895726010E+02  0.25379016636E+02  0.00000000000E+00 0. -1.
         -5    1    3    3    0  503 -0.11601740043E+03  0.95004095307E+02 -0.13313366845E+03  0.20058035547E+03  0.47000000000E+01 0.  1.
         13    1    4    4    0    0  0.24770372621E+02  0.45907391647E+00 -0.37197870552E+02  0.44692993660E+02  0.00000000000E+00 0. -1.
        -14    1    4    4    0    0 -0.28343033513E+02  0.28000529704E+02  0.14932233309E+02  0.42547958870E+02  0.00000000000E+00 0.  1.
</event>
<event>
12    1  0.8449700E-002  0.1846896E+03  0.7818608E-02  0.1163446E+00
         21   -1    0    0  503  502  0.00000000000E+00  0.00000000000E+00  0.69061605636E+03  0.69061605636E+03  0.00000000000E+00 0.  1.
         21   -1    0    0  501  503 -0.00000000000E+00 -0.00000000000E+00 -0.12699539189E+03  0.12699539189E+03  0.00000000000E+00 0. -1.
          6    2    1    2  501    0 -0.12985799388E+02 -0.64969083154E+02 -0.37874128563E+02  0.18853299810E+03  0.17239671982E+03 0.  0.
         24    2    3    3    0    0 -0.46600676559E+02 -0.71072509478E+02  0.21306237860E+02  0.12003761468E+03  0.82049670968E+02 0.  0.
         -6    2    1    2    0  502  0.12985799388E+02  0.64969083154E+02  0.60149479303E+03  0.62907845016E+03  0.17191305261E+03 0.  0.
        -24    2    5    5    0    0  0.30572203485E+02  0.35414514899E+02  0.15092931763E+03  0.17717791715E+03  0.80146789780E+02 0.  0.
          5    1    3    3  501    0  0.33614877171E+02  0.61034263240E+01 -0.59180366423E+02  0.68495383422E+02  0.47000000000E+01 0. -1.
        -11    1    4    4    0    0 -0.66460735233E+02 -0.32196039166E+02  0.73886043377E+01  0.74217287338E+02  0.00000000000E+00 0.  1.
         12    1    4    4    0    0  0.19860058674E+02 -0.38876470312E+02  0.13917633522E+02  0.45820327338E+02  0.00000000000E+00 0. -1.
         -5    1    5    5    0  502 -0.17586404097E+02  0.29554568255E+02  0.45056547540E+03  0.45190053301E+03  0.47000000000E+01 0.  1.
         13    1    6    6    0    0  0.12596256202E+02 -0.66873016108E+01 -0.46523479714E+01  0.15001000460E+02  0.00000000000E+00 0. -1.
        -14    1    6    6    0    0  0.17975947282E+02  0.42101816510E+02  0.15558166560E+03  0.16217691669E+03  0.00000000000E+00 0.  1.
</event>
<event>
12    1  0.8449700E-002  0.1798781E+03  0.7818608E-02  0.1168028E+00
         21   -1    0    0  503  502  0.00000000000E+00  0.00000000000E+00  0.15904437559E+02  0.15904437559E+02  0.00000000000E+00 0.  1.
         21   -1    0    0  501  503 -0.00000000000E+00 -0.00000000000E+00 -0.20347622290E+04  0.20347622290E+04  0.00000000000E+00 0.  1.
          6    2    1    2  501    0  0.20474088698E+02  0.49155179068E+02 -0.95567132560E+03  0.97237097651E+03  0.17135405871E+03 0.  0.
         24    2    3    3    0    0 -0.27800386600E+02  0.33476098229E+02 -0.84947094331E+03  0.85457085028E+03  0.82443580474E+02 0.  0.
         -6    2    1    2    0  502 -0.20474088698E+02 -0.49155179068E+02 -0.10631864658E+04  0.10782956901E+04  0.17181593089E+03 0.  0.
        -24    2    5    5    0    0 -0.74772929462E+02 -0.16223563607E+02 -0.53911840107E+03  0.55037308027E+03  0.80047998859E+02 0.  0.
          5    1    3    3  501    0  0.48274475298E+02  0.15679080840E+02 -0.10620038229E+03  0.11780012623E+03  0.47000000000E+01 0. -1.
        -13    1    4    4    0    0 -0.77716942120E+01  0.48955693491E+02 -0.26776739098E+03  0.27231679131E+03  0.00000000000E+00 0.  1.
         14    1    4    4    0    0 -0.20028692388E+02 -0.15479595262E+02 -0.58170355233E+03  0.58225405896E+03  0.00000000000E+00 0. -1.
         -5    1    5    5    0  502  0.54298840764E+02 -0.32931615461E+02 -0.52406806477E+03  0.52792260978E+03  0.47000000000E+01 0.  1.
         11    1    6    6    0    0 -0.17144524525E+02  0.23069348168E+02 -0.29759891797E+03  0.29898368772E+03  0.00000000000E+00 0. -1.
        -12    1    6    6    0    0 -0.57628404937E+02 -0.39292911775E+02 -0.24151948310E+03  0.25138939255E+03  0.00000000000E+00 0.  1.
</event>
<event>
12    1  0.8449700E-002  0.2341077E+03  0.7818608E-02  0.1123833E+00
         21   -1    0    0  501  502  0.00000000000E+00  0.00000000000E+00  0.24392506453E+04  0.24392506453E+04  0.00000000000E+00 0. -1.
         21   -1    0    0  502  503 -0.00000000000E+00 -0.00000000000E+00 -0.29039590990E+02  0.29039590990E+02  0.00000000000E+00 0. -1.
         -6    2    1    2    0  503 -0.13884797597E+03 -0.78335302147E+02  0.17928588712E+04  0.18080401818E+04  0.17102978372E+03 0.  0.
        -24    2    3    3    0    0 -0.89879743920E+02 -0.50745904506E+02  0.16415505942E+04  0.16465615537E+04  0.76309120682E+02 0.  0.
          6    2    1    2  501    0  0.13884797597E+03  0.78335302147E+02  0.61735218314E+03  0.66025005453E+03  0.17143872518E+03 0.  0.
         24    2    5    5    0    0  0.42532246548E+02  0.49843526377E+02  0.47165551121E+03  0.48322431846E+03  0.82179386580E+02 0.  0.
          5    1    5    5  501    0  0.96315729423E+02  0.28491775770E+02  0.14569667193E+03  0.17702573607E+03  0.47000000000E+01 0. -1.
        -13    1    6    6    0    0  0.30051440047E+02  0.16145602997E+02  0.41320639802E+03  0.41461222475E+03  0.00000000000E+00 0.  1.
         14    1    6    6    0    0  0.12480806501E+02  0.33697923380E+02  0.58449113190E+02  0.68612093713E+02  0.00000000000E+00 0. -1.
         -5    1    3    3    0  503 -0.48968232052E+02 -0.27589397641E+02  0.15130827704E+03  0.16147862803E+03  0.47000000000E+01 0.  1.
         13    1    4    4    0    0 -0.55577104712E+02 -0.13826576682E+01  0.11509732511E+04  0.11523151266E+04  0.00000000000E+00 0. -1.
        -14    1    4    4    0    0 -0.34302639207E+02 -0.49363246838E+02  0.49057734305E+03  0.49424642711E+03  0.00000000000E+00 0.  1.
</event>
<event>
12    1  0.8449700E-002  0.2357214E+03  0.7818608E-02  0.1122939E+00
         21   -1    0    0  503  502  0.00000000000E+00  0.00000000000E+00  0.44788217343E+03  0.44788217343E+03  0.00000000000E+00 0.  1.
         21   -1    0    0  501  503 -0.00000000000E+00 -0.00000000000E+00 -0.12569492377E+03  0.12569492377E+03  0.00000000000E+00 0.  1.
          6    2    1    2  501    0 -0.10722717582E+02  0.15858570151E+03  0.20053791818E+03  0.30831656014E+03  0.17198617163E+03 0.  0.
         24    2    3    3    0    0  0.24786381520E+02  0.33445530921E+02  0.47134321127E+02  0.10713079523E+03  0.86731740505E+02 0.  0.
         -6    2    1    2    0  502  0.10722717582E+02 -0.15858570151E+03  0.12164933149E+03  0.26526053706E+03  0.17406950127E+03 0.  0.
        -24    2    5    5    0    0  0.53861765110E+02 -0.88453441579E+02  0.12698651009E+03  0.18261619799E+03  0.80610178986E+02 0.  0.
          5    1    3    3  501    0 -0.35509099101E+02  0.12514017059E+03  0.15340359705E+03  0.20118576491E+03  0.47000000000E+01 0. -1.
        -11    1    4    4    0    0  0.17186413518E+02  0.16357323934E+02  0.72119138536E+02  0.75921703083E+02  0.00000000000E+00 0.  1.
         12    1    4    4    0    0  0.75999680021E+01  0.17088206987E+02 -0.24984817409E+02  0.31209092147E+02  0.00000000000E+00 0. -1.
         -5    1    5    5    0  502 -0.43139047529E+02 -0.70132259932E+02 -0.53371785999E+01  0.82644339069E+02  0.47000000000E+01 0.  1.
         13    1    6    6    0    0 -0.20877625863E+02 -0.11209697910E+02  0.25050092074E+02  0.34482454986E+02  0.00000000000E+00 0. -1.
        -14    1    6    6    0    0  0.74739390973E+02 -0.77243743669E+02  0.10193641801E+03  0.14813374300E+03  0.00000000000E+00 0.  1.
</event>
<event>
12    1  0.8449700E-002  0.2234256E+03  0.7818608E-02  0.1131640E+00
         21   -1    0    0  501  502  0.00000000000E+00  0.00000000000E+00  0.30037725772E+02  0.30037725772E+02  0.00000000000E+00 0.  1.
         21   -1    0    0  502  503 -0.00000000000E+00 -0.00000000000E+00 -0.16539734500E+04  0.16539734500E+04  0.00000000000E+00 0.  1.
         -6    2    1    2    0  503 -0.14138469284E+03  0.20426663364E+02 -0.84875866950E+03  0.87727798064E+03  0.16976011402E+03 0.  0.
        -24    2    3    3    0    0 -0.85507981333E+02  0.69057473942E+02 -0.39385048919E+03  0.41635422866E+03  0.78435236380E+02 0.  0.
          6    2    1    2  501    0  0.14138469284E+03 -0.20426663364E+02 -0.77517705472E+03  0.80673319513E+03  0.17179086707E+03 0.  0.
         24    2    5    5    0    0  0.64329683240E+02 -0.22998577657E+02 -0.19938277291E+03  0.22578118832E+03  0.80971674960E+02 0.  0.
          5    1    5    5  501    0  0.77055009604E+02  0.25719142930E+01 -0.57579428181E+03  0.58095200680E+03  0.47000000000E+01 0. -1.
        -11    1    6    6    0    0  0.41874550868E+02 -0.15130386653E+02 -0.19688507070E+03  0.20185672562E+03  0.00000000000E+00 0.  1.
         12    1    6    6    0    0  0.22455132372E+02 -0.78681910033E+01 -0.24977022115E+01  0.23924462708E+02  0.00000000000E+00 0. -1.
         -5    1    3    3    0  503 -0.55876711512E+02 -0.48630810579E+02 -0.45490818031E+03  0.46092375198E+03  0.47000000000E+01 0.  1.
         11    1    4    4    0    0 -0.65545924703E+01  0.10799173791E+01  0.20677302534E+01  0.69573279640E+01  0.00000000000E+00 0. -1.
        -12    1    4    4    0    0 -0.78953388862E+02  0.67977556563E+02 -0.39591821945E+03  0.40939690070E+03  0.00000000000E+00 0.  1.
</event>
<event>
12    1  0.8449700E-002  0.1843160E+03  0.7818608E-02  0.1163715E+00
         21   -1    0    0  503  502  0.00000000000E+00  0.00000000000E+00  0.48945548148E+03  0.48945548148E+03  0.00000000000E+00 0.  1.
         21   -1    0    0  501  503 -0.00000000000E+00 -0.00000000000E+00 -0.12198463772E+03  0.12198463772E+03  0.00000000000E+00 0. -1.
          6    2    1    2  501    0  0.66241636291E+02  0.99376448497E+01 -0.17019056454E+02  0.18510008658E+03  0.17171395577E+03 0.  0.
         24    2    3    3    0    0 -0.21659997882E+02  0.12579755667E+02 -0.14849146642E+02  0.97006519575E+02  0.92533031525E+02 0.  0.
         -6    2    1    2    0  502 -0.66241636291E+02 -0.99376448497E+01  0.38448990021E+03  0.42634003261E+03  0.17160020068E+03 0.  0.
        -24    2    5    5    0    0 -0.86184661924E+02  0.44599033301E+02  0.25909183213E+03  0.28806950424E+03  0.80240837957E+02 0.  0.
          5    1    3    3  501    0  0.87901634173E+02 -0.26421108175E+01 -0.21699098119E+01  0.88093567009E+02  0.47000000000E+01 0. -1.
        -13    1    4    4    0    0  0.32342975261E+01 -0.38683673345E+02 -0.76507090551E+01  0.39565396661E+02  0.00000000000E+00 0.  1.
         14    1    4    4    0    0 -0.24894295408E+02  0.51263429012E+02 -0.71984375869E+01  0.57441122914E+02  0.00000000000E+00 0. -1.
         -5    1    5    5    0  502  0.19943025633E+02 -0.54536678151E+02  0.12539806808E+03  0.13827052836E+03  0.47000000000E+01 0.  1.
         13    1    6    6    0    0 -0.43374149112E+02  0.24339549039E+01  0.34201471677E+02  0.55289977505E+02  0.00000000000E+00 0. -1.
        -14    1    6    6    0    0 -0.42810512812E+02  0.42165078397E+02  0.22489036045E+03  0.23277952674E+03  0.00000000000E+00 0.  1.
</event>
<event>
12    1  0.8449700E-002  0.3144296E+03  0.7818608E-02  0.1078253E+00
         21   -1    0    0  501  502  0.00000000000E+00  0.00000000000E+00  0.68681191801E+03  0.68681191801E+03  0.00000000000E+00 0.  1.
         21   -1    0    0  502  503 -0.00000000000E+00 -0.00000000000E+00 -0.14406664048E+03  0.14406664048E+03  0.00000000000E+00 0.  1.
         -6    2    1    2    0  503  0.43678027132E+02  0.25868137375E+03  0.28529373587E+03  0.42456859118E+03  0.17332671379E+03 0.  0.
        -24    2    3    3    0    0  0.38620770591E+02  0.27773250771E+03  0.27095946326E+03  0.39974757347E+03  0.88046476412E+02 0.  0.
          6    2    1    2  501    0 -0.43678027132E+02 -0.25868137375E+03  0.25745154166E+03  0.40630996731E+03  0.17315504628E+03 0.  0.
         24    2    5    5    0    0 -0.39667563901E+02 -0.27773035571E+03  0.25213071231E+03  0.38558923484E+03  0.80009348349E+02 0.  0.
          5    1    5    5  501    0 -0.40104632311E+01  0.19048981964E+02  0.53208293552E+01  0.20720732473E+02  0.47000000000E+01 0. -1.
        -13    1    6    6    0    0  0.14378124517E+02 -0.20597963366E+02  0.42882129896E+02  0.49697923738E+02  0.00000000000E+00 0.  1.
         14    1    6    6    0    0 -0.54045688418E+02 -0.25713239235E+03  0.20924858241E+03  0.33589131110E+03  0.00000000000E+00 0. -1.
         -5    1    3    3    0  503  0.50572565411E+01 -0.19051133960E+02  0.14334272611E+02  0.24821017710E+02  0.47000000000E+01 0.  1.
         11    1    4    4    0    0 -0.12451057160E+02  0.15134893604E+01  0.16525471925E+02  0.20746341768E+02  0.00000000000E+00 0. -1.
        -12    1    4    4    0    0  0.51071827751E+02  0.27621901835E+03  0.25443399133E+03  0.37900123170E+03  0.00000000000E+00 0.  1.
</event>
<event>
12    1  0.8449700E-002  0.1770359E+03  0.7818608E-02  0.1170775E+00
         21   -1    0    0  503  502  0.00000000000E+00  0.00000000000E+00  0.89488442682E+02  0.89488442682E+02  0.00000000000E+00 0.  1.
         21   -1    0    0  501  503 -0.00000000000E+00 -0.00000000000E+00 -0.39846351914E+03  0.39846351914E+03  0.00000000000E+00 0.  1.
          6    2    1    2  501    0 -0.36129659705E+02  0.18498495645E+02 -0.23976529806E+03  0.29786857751E+03  0.17201960546E+03 0.  0.
         24    2    3    3    0    0 -0.64972605340E+02 -0.35579211951E+02 -0.11362542769E+03  0.15754868986E+03  0.80146940629E+02 0.  0.
         -6    2    1    2    0  502  0.36129659705E+02 -0.18498495645E+02 -0.69209778399E+02  0.19008338431E+03  0.17231991445E+03 0.  0.
        -24    2    5    5    0    0 -0.22033322441E+02 -0.36701961849E+02 -0.87751957353E+02  0.12620693267E+03  0.79970510403E+02 0.  0.
          5    1    3    3  501    0  0.28842945635E+02  0.54077707596E+02 -0.12613987037E+03  0.14031988765E+03  0.47000000000E+01 0. -1.
        -13    1    4    4    0    0 -0.12112713386E+02  0.15988823124E+02 -0.67645366632E+02  0.70556756709E+02  0.00000000000E+00 0.  1.
         14    1    4    4    0    0 -0.52859891954E+02 -0.51568035075E+02 -0.45980061053E+02  0.86991933151E+02  0.00000000000E+00 0. -1.
         -5    1    5    5    0  502  0.58162982146E+02  0.18203466203E+02  0.18542178953E+02  0.63876451641E+02  0.47000000000E+01 0.  1.
         13    1    6    6    0    0  0.21332935128E+02 -0.41905353746E+02 -0.46273286518E+02  0.65972493048E+02  0.00000000000E+00 0. -1.
        -14    1    6    6    0    0 -0.43366257568E+02  0.52033918974E+01 -0.41478670835E+02  0.60234439625E+02  0.00000000000E+00 0.  1.
</event>
<event>
12    1  0.8449700E-002  0.1884667E+03  0.7818608E-02  0.1160263E+00
         21   -1    0    0  501  502  0.00000000000E+00  0.00000000000E+00  0.22646154353E+02  0.22646154353E+02  0.00000000000E+00 0. -1.
         21   -1    0    0  502  503 -0.00000000000E+00 -0.00000000000E+00 -0.16512028244E+04  0.16512028244E+04  0.00000000000E+00 0. -1.
         -6    2    1    2    0  503  0.75522319332E+02  0.14058713426E+02 -0.60708476207E+03  0.63513604772E+03  0.17013119245E+03 0.  0.
        -24    2    3    3    0    0  0.81213149542E+02 -0.19252093263E+02 -0.23693298347E+03  0.26341515164E+03  0.79272218977E+02 0.  0.
          6    2    1    2  501    0 -0.75522319332E+02 -0.14058713426E+02 -0.10214719080E+04  0.10387129310E+04  0.17210004693E+03 0.  0.
         24    2    5    5    0    0 -0.36070437282E+01 -0.59036109412E+02 -0.67624061565E+03  0.68318303324E+03  0.77067591625E+02 0.  0.
          5    1    5    5  501    0 -0.71915275604E+02  0.44977395986E+02 -0.34523129233E+03  0.35552989778E+03  0.47000000000E+01 0. -1.
        -11    1    6    6    0    0 -0.21909573923E+02 -0.32149954985E+02 -0.12342960632E+03  0.12941606064E+03  0.00000000000E+00 0.  1.
         12    1    6    6    0    0  0.18302530195E+02 -0.26886154427E+02 -0.55281100933E+03  0.55376697260E+03  0.00000000000E+00 0. -1.
         -5    1    3    3    0  503 -0.56908302092E+01  0.33310806689E+02 -0.37015177859E+03  0.37172089609E+03  0.47000000000E+01 0.  1.
         13    1    4    4    0    0  0.54382770630E+02 -0.48843162411E+02 -0.17578142928E+03  0.19037397705E+03  0.00000000000E+00 0. -1.
        -14    1    4    4    0    0  0.26830378912E+02  0.29591069148E+02 -0.61151554191E+02  0.73041174592E+02  0.00000000000E+00 0.  1.
</event>
<event>
12    1  0.8449700E-002  0.2393377E+03  0.7818608E-02  0.1120349E+00
         21   -1    0    0  503  502  0.00000000000E+00  0.00000000000E+00  0.68256579184E+03  0.68256579184E+03  0.00000000000E+00 0.  1.
         21   -1    0    0  501  503 -0.00000000000E+00 -0.00000000000E+00 -0.11971418763E+03  0.11971418763E+03  0.00000000000E+00 0.  1.
          6    2    1    2  501    0  0.15307333464E+03 -0.62387253504E+02  0.61636533177E+02  0.24714689093E+03  0.17308641857E+03 0.  0.
         24    2    3    3    0    0  0.15295143098E+03  0.25001815874E+01  0.54989018702E+02  0.18175061013E+03  0.81296377286E+02 0.  0.
         -6    2    1    2    0  502 -0.15307333464E+03  0.62387253504E+02  0.50121507103E+03  0.55513308855E+03  0.17214117287E+03 0.  0.
        -24    2    5    5    0    0 -0.55080779648E+02  0.17741514897E+02  0.37902419215E+03  0.39219603417E+03  0.82521132697E+02 0.  0.
          5    1    3    3  501    0  0.12190366626E+00 -0.64887435091E+02  0.66475144752E+01  0.65396280796E+02  0.47000000000E+01 0. -1.
        -11    1    4    4    0    0 -0.67051354707E+00 -0.93759164007E+01 -0.10708333859E+02  0.14248712602E+02  0.00000000000E+00 0.  1.
         12    1    4    4    0    0  0.15362194452E+03  0.11876097988E+02  0.65697352561E+02  0.16750189753E+03  0.00000000000E+00 0. -1.
         -5    1    5    5    0  502 -0.97992554994E+02  0.44645738607E+02  0.12219087888E+03  0.16293705438E+03  0.47000000000E+01 0.  1.
         13    1    6    6    0    0 -0.69466407511E+02  0.32960830873E+01  0.19469340156E+03  0.20674130344E+03  0.00000000000E+00 0. -1.
        -14    1    6    6    0    0  0.14385627863E+02  0.14445431810E+02  0.18433079059E+03  0.18545473073E+03  0.00000000000E+00 0.  1.
</event>
<event>
12    1  0.8449700E-002  0.2724849E+03  0.7818608E-02  0.1100072E+00
         21   -1    0    0  501  502  0.00000000000E+00  0.00000000000E+00  0.53169590965E+03  0.53169590965E+03  0.00000000000E+00 0.  1.
         21   -1    0    0  502  503 -0.00000000000E+00 -0.00000000000E+00 -0.17583242878E+03  0.17583242878E+03  0.00000000000E+00 0.  1.
         -6    2    1    2    0  503 -0.12849326600E+03 -0.16762085011E+03  0.16175311948E+02  0.27296457208E+03  0.17216488636E+03 0.  0.
        -24    2    3    3    0    0 -0.11465500136E+03 -0.44282605325E+02  0.26449063757E+02  0.14833929306E+03  0.78729120533E+02 0.  0.
          6    2    1    2  501    0  0.12849326600E+03  0.16762085011E+03  0.33968816892E+03  0.43456376636E+03  0.16985389642E+03 0.  0.
         24    2    5    5    0    0  0.10529567221E+03  0.83638320701E+02  0.29761206800E+03  0.33769436009E+03  0.85918511044E+02 0.  0.
          5    1    5    5  501    0  0.23197593789E+02  0.83982529404E+02  0.42076100923E+02  0.96869406273E+02  0.47000000000E+01 0. -1.
        -13    1    6    6    0    0  0.11188855700E+03  0.93670715817E+02  0.28556152390E+03  0.32068463655E+03  0.00000000000E+00 0.  1.
         14    1    6    6    0    0 -0.65928847889E+01 -0.10032395116E+02  0.12050544097E+02  0.17009723532E+02  0.00000000000E+00 0. -1.
         -5    1    3    3    0  503 -0.13838264632E+02 -0.12333824478E+03 -0.10273751809E+02  0.12462527902E+03  0.47000000000E+01 0.  1.
         11    1    4    4    0    0 -0.18615003707E+02  0.22143126753E+02  0.17415203011E+01  0.28980498933E+02  0.00000000000E+00 0. -1.
        -12    1    4    4    0    0 -0.96039997657E+02 -0.66425732078E+02  0.24707543456E+02  0.11935879413E+03  0.00000000000E+00 0.  1.
</event>
<event>
12    1  0.8449700E-002  0.1937485E+03  0.7818608E-02  0.1155267E+00
         21   -1    0    0  503  502  0.00000000000E+00  0.00000000000E+00  0.62739232188E+03  0.62739232188E+03  0.00000000000E+00 0. -1.
         21   -1    0    0  501  503 -0.00000000000E+00 -0.00000000000E+00 -0.63090128431E+02  0.63090128431E+02  0.00000000000E+00 0. -1.
          6    2    1    2  501    0 -0.63903463711E+02  0.59519280863E+02  0.36254455721E+03  0.41076006066E+03  0.17221810008E+03 0.  0.
         24    2    3    3    0    0  0.45326517012E+01  0.47508482337E+02  0.99812765793E+02  0.13895526784E+03  0.84073642835E+02 0.  0.
         -6    2    1    2    0  502  0.63903463711E+02 -0.59519280863E+02  0.20175763623E+03  0.27972238965E+03  0.17295165228E+03 0.  0.
        -24    2    5    5    0    0  0.85724528041E+02 -0.14226830962E+02  0.19622759610E+03  0.22892636412E+03  0.79692617532E+02 0.  0.
          5    1    3    3  501    0 -0.68436115412E+02  0.12010798526E+02  0.26273179142E+03  0.27180479282E+03  0.47000000000E+01 0. -1.
        -11    1    4    4    0    0  0.44266419039E+02  0.22915015184E+02  0.54664681077E+02  0.73978653223E+02  0.00000000000E+00 0.  1.
         12    1    4    4    0    0 -0.39733767338E+02  0.24593467153E+02  0.45148084716E+02  0.64976614616E+02  0.00000000000E+00 0. -1.
         -5    1    5    5    0  502 -0.21821064330E+02 -0.45292449901E+02  0.55300401319E+01  0.50796025537E+02  0.47000000000E+01 0.  1.
         11    1    6    6    0    0  0.72556258601E+02 -0.33901900901E+02  0.18715927225E+03  0.20357392450E+03  0.00000000000E+00 0. -1.
        -12    1    6    6    0    0  0.13168269440E+02  0.19675069939E+02  0.90683238528E+01  0.25352439619E+02  0.00000000000E+00 0.  1.
</event>
<event>
12    1  0.8449700E-002  0.1810012E+03  0.7818608E-02  0.1167653E+00
         21   -1    0    0  503  502  0.00000000000E+00  0.00000000000E+00  0.12537318140E+03  0.12537318140E+03  0.00000000000E+00 0.  1.
         21   -1    0    0  501  503 -0.00000000000E+00 -0.00000000000E+00 -0.25865699781E+03  0.25865699781E+03  0.00000000000E+00 0.  1.
          6    2    1    2  501    0 -0.18888868662E+02 -0.46168899126E+02 -0.83627993585E+02  0.19634122481E+03  0.17049304573E+03 0.  0.
         24    2    3    3    0    0 -0.36272487795E+02  0.32536662413E+02 -0.29247541258E+02  0.98996069682E+02  0.81058468843E+02 0.  0.
         -6    2    1    2    0  502  0.18888868662E+02  0.46168899126E+02 -0.49655822824E+02  0.18768895440E+03  0.17399162697E+03 0.  0.
        -24    2    5    5    0    0 -0.52132045937E+02 -0.14232199092E+01 -0.18479823920E+02  0.96568084051E+02  0.79146163500E+02 0.  0.
          5    1    3    3  501    0  0.17383619134E+02 -0.78705561539E+02 -0.54380452327E+02  0.97345155127E+02  0.47000000000E+01 0. -1.
        -13    1    4    4    0    0 -0.18376540565E+02 -0.50515092742E+01  0.24481979128E+02  0.31025510328E+02  0.00000000000E+00 0.  1.
         14    1    4    4    0    0 -0.17895947231E+02  0.37588171687E+02 -0.53729520386E+02  0.67970559355E+02  0.00000000000E+00 0. -1.
         -5    1    5    5    0  502  0.71020914599E+02  0.47592119035E+02 -0.31175998904E+02  0.91120870345E+02  0.47000000000E+01 0.  1.
         11    1    6    6    0    0 -0.48779672154E+02  0.30484700034E+02  0.35786291526E+01  0.57633149647E+02  0.00000000000E+00 0. -1.
        -12    1    6    6    0    0 -0.33523737832E+01 -0.31907919944E+02 -0.22058453072E+02  0.38934934404E+02  0.00000000000E+00 0.  1.
</event>
<event>
12    1  0.8449700E-002  0.2006297E+03  0.7818608E-02  0.1149480E+00
         21   -1    0    0  503  502  0.00000000000E+00  0.00000000000E+00  0.62667905803E+02  0.62667905803E+02  0.00000000000E+00 0. -1.
         21   -1    0    0  501  503 -0.00000000000E+00 -0.00000000000E+00 -0.65717947415E+03  0.65717947415E+03  0.00000000000E+00 0.  1.
          6    2    1    2  501    0 -0.35770098664E+01  0.10308314856E+03 -0.35935846333E+03  0.41157109583E+03  0.17208524409E+03 0.  0.
         24    2    3    3    0    0  0.50751887674E+02  0.11138361799E+03 -0.25862820113E+03  0.29672684205E+03  0.78588853642E+02 0.  0.
         -6    2    1    2    0  502  0.35770098664E+01 -0.10308314856E+03 -0.23515310502E+03  0.30827628413E+03  0.17058239663E+03 0.  0.
        -24    2    5    5    0    0  0.30728772477E+02 -0.17713096809E+02 -0.44292465780E+02  0.97384990902E+02  0.79145452628E+02 0.  0.
          5    1    3    3  501    0 -0.54328897541E+02 -0.83004694345E+01 -0.10073026220E+03  0.11484425377E+03  0.47000000000E+01 0. -1.
        -11    1    4    4    0    0  0.25374844015E+02 -0.16649040458E+01 -0.23604949151E+02  0.34696516232E+02  0.00000000000E+00 0.  1.
         12    1    4    4    0    0  0.25377043659E+02  0.11304852204E+03 -0.23502325198E+03  0.26203032582E+03  0.00000000000E+00 0. -1.
         -5    1    5    5    0  502 -0.27151762610E+02 -0.85370051752E+02 -0.19086063924E+03  0.21089129323E+03  0.47000000000E+01 0.  1.
         11    1    6    6    0    0 -0.11468176858E+02  0.24451504193E+02 -0.15623902669E+02  0.31200985118E+02  0.00000000000E+00 0. -1.
        -12    1    6    6    0    0  0.42196949334E+02 -0.42164601002E+02 -0.28668563112E+02  0.66184005784E+02  0.00000000000E+00 0.  1.
</event>
<event>
12    1  0.8449700E-002  0.1802351E+03  0.7818608E-02  0.1167932E+00
         21   -1    0    0  501  502  0.00000000000E+00  0.00000000000E+00  0.41847128645E+03  0.41847128645E+03  0.00000000000E+00 0. -1.
         21   -1    0    0  502  503 -0.00000000000E+00 -0.00000000000E+00 -0.12519185116E+03  0.12519185116E+03  0.00000000000E+00 0. -1.
         -6    2    1    2    0  503 -0.52863403802E+02  0.70798250088E+00 -0.21652671133E+02  0.18153105324E+03  0.17230683220E+03 0.  0.
        -24    2    3    3    0    0  0.11176170965E+02 -0.89020290632E+01 -0.64035948905E+02  0.10399492170E+03  0.80685736466E+02 0.  0.
          6    2    1    2  501    0  0.52863403802E+02 -0.70798250088E+00  0.31493210642E+03  0.36213208438E+03  0.17076994519E+03 0.  0.
         24    2    5    5    0    0 -0.77930661847E+01 -0.64067492950E+01  0.28043278308E+03  0.29196103190E+03  0.80603473923E+02 0.  0.
          5    1    5    5  501    0  0.60656469987E+02  0.56987667941E+01  0.34499323342E+02  0.70171052474E+02  0.47000000000E+01 0. -1.
        -11    1    6    6    0    0 -0.61444266011E+01 -0.38638728560E+02  0.81234080903E+02  0.90164744901E+02  0.00000000000E+00 0.  1.
         12    1    6    6    0    0 -0.16486395836E+01  0.32231979265E+02  0.19919870218E+03  0.20179628700E+03  0.00000000000E+00 0. -1.
         -5    1    3    3    0  503 -0.64039574767E+02  0.96100115641E+01  0.42383277772E+02  0.77536131535E+02  0.47000000000E+01 0.  1.
         13    1    4    4    0    0 -0.51195489977E+01  0.28919167003E+02 -0.54213394333E+02  0.61657279596E+02  0.00000000000E+00 0. -1.
        -14    1    4    4    0    0  0.16295719963E+02 -0.37821196066E+02 -0.98225545724E+01  0.42337642108E+02  0.00000000000E+00 0.  1.
</event>
<event>
12    1  0.8449700E-002  0.2052883E+03  0.7818608E-02  0.1145468E+00
         21   -1    0    0  503  502  0.00000000000E+00  0.00000000000E+00  0.41856742902E+03  0.41856742902E+03  0.00000000000E+00 0.  1.
         21   -1    0    0  501  503 -0.00000000000E+00 -0.00000000000E+00 -0.10837987754E+03  0.10837987754E+03  0.00000000000E+00 0.  1.
          6    2    1    2  501    0 -0.10278182491E+03 -0.42918953434E+02  0.83833657540E+02  0.22174621372E+03  0.17244466089E+03 0.  0.
         24    2    3    3    0    0 -0.93835778058E+02 -0.63806492635E+02  0.11620249386E+03  0.18191968221E+03  0.81947113731E+02 0.  0.
         -6    2    1    2    0  502  0.10278182491E+03  0.42918953434E+02  0.22635389394E+03  0.30520109284E+03  0.17177159740E+03 0.  0.
        -24    2    5    5    0    0 -0.40888326554E+01 -0.99067631498E+01  0.54693052425E+02  0.96152227042E+02  0.78352142747E+02 0.  0.
          5    1    3    3  501    0 -0.89460468539E+01  0.20887539201E+02 -0.32368836318E+02  0.39826531518E+02  0.47000000000E+01 0. -1.
        -13    1    4    4    0    0 -0.61758578030E+02 -0.55426756501E+02  0.12270836739E+03  0.14813369206E+03  0.00000000000E+00 0.  1.
         14    1    4    4    0    0 -0.32077200028E+02 -0.83797361331E+01 -0.65058735351E+01  0.33785990140E+02  0.00000000000E+00 0. -1.
         -5    1    5    5    0  502  0.10687065757E+03  0.52825716583E+02  0.17166084151E+03  0.20904886580E+03  0.47000000000E+01 0.  1.
         11    1    6    6    0    0 -0.30146201150E+02 -0.84062825566E+01  0.61651371471E+02  0.69140079797E+02  0.00000000000E+00 0. -1.
        -12    1    6    6    0    0  0.26057368494E+02 -0.15004805932E+01 -0.69583190451E+01  0.27012147245E+02  0.00000000000E+00 0.  1.
</event>
<event>
12    1  0.8449700E-002  0.2002678E+03  0.7818608E-02  0.1150045E+00
         21   -1    0    0  501  502  0.00000000000E+00  0.00000000000E+00  0.77802775233E+02  0.77802775233E+02  0.00000000000E+00 0. -1.
         21   -1    0    0  502  503 -0.00000000000E+00 -0.00000000000E+00 -0.11322871624E+04  0.11322871624E+04  0.00000000000E+00 0.  1.
         -6    2    1    2    0  503  0.18817931506E+02 -0.96415775783E+02 -0.97462678730E+03  0.99448744963E+03  0.17163273751E+03 0.  0.
        -24    2    3    3    0    0  0.43263543900E+02 -0.31281714746E+02 -0.26293769737E+03  0.27939061382E+03  0.77926904728E+02 0.  0.
          6    2    1    2  501    0 -0.18817931506E+02  0.96415775783E+02 -0.79857599855E+02  0.21560248799E+03  0.17451956970E+03 0.  0.
         24    2    5    5    0    0  0.40001734658E+02  0.31623307932E+02 -0.80114864786E+02  0.12796703168E+03  0.85772940117E+02 0.  0.
          5    1    5    5  501    0 -0.58819666164E+02  0.64792467851E+02  0.25726493138E+00  0.87635456312E+02  0.47000000000E+01 0. -1.
        -13    1    6    6    0    0  0.40257900518E+02 -0.53225762667E+01 -0.96634806714E+00  0.40619726744E+02  0.00000000000E+00 0.  1.
         14    1    6    6    0    0 -0.25616586011E+00  0.36945884199E+02 -0.79148516719E+02  0.87347304933E+02  0.00000000000E+00 0. -1.
         -5    1    3    3    0  503 -0.24445612394E+02 -0.65134061038E+02 -0.71168908992E+03  0.71509683581E+03  0.47000000000E+01 0.  1.
         13    1    4    4    0    0  0.40330984932E+02  0.16075248320E+02 -0.16421859482E+03  0.16986096915E+03  0.00000000000E+00 0. -1.
        -14    1    4    4    0    0  0.29325589682E+01 -0.47356963066E+02 -0.98719102552E+02  0.10952964467E+03  0.00000000000E+00 0.  1.
</event>
<event>
12    1  0.8449700E-002  0.1810739E+03  0.7818608E-02  0.1166768E+00
         21   -1    0    0  503  502  0.00000000000E+00  0.00000000000E+00  0.21537009421E+03  0.21537009421E+03  0.00000000000E+00 0.  1.
         21   -1    0    0  501  503 -0.00000000000E+00 -0.00000000000E+00 -0.28265230917E+03  0.28265230917E+03  0.00000000000E+00 0.  1.
          6    2    1    2  501    0 -0.27745488795E+02 -0.51211367039E+02 -0.20278468885E+03  0.27186165395E+03  0.17144886292E+03 0.  0.
         24    2    3    3    0    0  0.29912218372E+02 -0.53351929934E+02 -0.57335896513E+02  0.11531634295E+03  0.79178814636E+02 0.  0.
         -6    2    1    2    0  502  0.27745488795E+02  0.51211367039E+02  0.13550247389E+03  0.22616074943E+03  0.17145071564E+03 0.  0.
        -24    2    5    5    0    0 -0.43692027692E+02  0.40536098286E+00  0.87278609899E+02  0.12599987847E+03  0.79682219022E+02 0.  0.
          5    1    3    3  501    0 -0.57657707167E+02  0.21405628948E+01 -0.14544879233E+03  0.15654531100E+03  0.47000000000E+01 0. -1.
        -13    1    4    4    0    0  0.57274081191E+02 -0.35759741991E+02 -0.38354022248E+02  0.77653786425E+02  0.00000000000E+00 0.  1.
         14    1    4    4    0    0 -0.27361862818E+02 -0.17592187943E+02 -0.18981874265E+02  0.37662556526E+02  0.00000000000E+00 0. -1.
         -5    1    5    5    0  502  0.71437516487E+02  0.50806006057E+02  0.48223863989E+02  0.10016087096E+03  0.47000000000E+01 0.  1.
         11    1    6    6    0    0 -0.33083344496E+01 -0.31976388767E+02  0.11322407992E+02  0.34082714653E+02  0.00000000000E+00 0. -1.
        -12    1    6    6    0    0 -0.40383693243E+02  0.32381749750E+02  0.75956201907E+02  0.91917163821E+02  0.00000000000E+00 0.  1.
</event>
<event>
12    1  0.8449700E-002  0.1839096E+03  0.7818608E-02  0.1164306E+00
         21   -1    0    0  503  502  0.00000000000E+00  0.00000000000E+00  0.18078886489E+03  0.18078886489E+03  0.00000000000E+00 0.  1.
         21   -1    0    0  501  503 -0.00000000000E+00 -0.00000000000E+00 -0.26972415877E+03  0.26972415877E+03  0.00000000000E+00 0.  1.
          6    2    1    2  501    0 -0.62452019460E+02  0.11835809877E+02 -0.16999126613E+03  0.25043912649E+03  0.17257573521E+03 0.  0.
         24    2    3    3    0    0 -0.94010000092E+02  0.21717348432E+02 -0.67330365522E+02  0.14248125757E+03  0.80361727820E+02 0.  0.
         -6    2    1    2    0  502  0.62452019460E+02 -0.11835809877E+02  0.81055972256E+02  0.20007389717E+03  0.17152012290E+03 0.  0.
        -24    2    5    5    0    0  0.16130584824E+02 -0.28752472349E+02 -0.23227892316E+02  0.84622335091E+02  0.74394248311E+02 0.  0.
          5    1    3    3  501    0  0.31557980632E+02 -0.98815385558E+01 -0.10266090061E+03  0.10795786891E+03  0.47000000000E+01 0. -1.
        -13    1    4    4    0    0 -0.23064314210E+02  0.20608661939E+02 -0.64427735076E+02  0.71467563159E+02  0.00000000000E+00 0.  1.
         14    1    4    4    0    0 -0.70945685881E+02  0.11086864936E+01 -0.29026304465E+01  0.71013694415E+02  0.00000000000E+00 0. -1.
         -5    1    5    5    0  502  0.46321434636E+02  0.16916662473E+02  0.10428386457E+03  0.11545156208E+03  0.47000000000E+01 0.  1.
         11    1    6    6    0    0 -0.58309252144E+01 -0.56622938583E+01 -0.45193753074E+02  0.45918804182E+02  0.00000000000E+00 0. -1.
        -12    1    6    6    0    0  0.21961510038E+02 -0.23090178491E+02  0.21965860758E+02  0.38703530908E+02  0.00000000000E+00 0.  1.
</event>
<event>
12    1  0.8449700E-002  0.2170295E+03  0.7818608E-02  0.1137559E+00
         21   -1    0    0  501  502  0.00000000000E+00  0.00000000000E+00  0.50979390230E+03  0.50979390230E+03  0.00000000000E+00 0.  1.
         21   -1    0    0  502  503 -0.00000000000E+00 -0.00000000000E+00 -0.96748296096E+02  0.96748296096E+02  0.00000000000E+00 0. -1.
         -6    2    1    2    0  503  0.12694261349E+03  0.34996481225E+02  0.28763188378E+03  0.35588224270E+03  0.16303646612E+03 0.  0.
        -24    2    3    3    0    0  0.53374459348E+02  0.70733652776E+02  0.22273699685E+03  0.25136977893E+03  0.75649940163E+02 0.  0.
          6    2    1    2  501    0 -0.12694261349E+03 -0.34996481225E+02  0.12541372242E+03  0.25065995569E+03  0.17251849407E+03 0.  0.
         24    2    5    5    0    0 -0.86617615561E+02 -0.64339426230E+02  0.14462847366E+03  0.19700913515E+03  0.79076107940E+02 0.  0.
          5    1    5    5  501    0 -0.40324997928E+02  0.29342945004E+02 -0.19214751239E+02  0.53650820540E+02  0.47000000000E+01 0. -1.
        -11    1    6    6    0    0 -0.95058413443E+02 -0.46884363683E+02  0.90019328831E+02  0.13906014917E+03  0.00000000000E+00 0.  1.
         12    1    6    6    0    0  0.84407978814E+01 -0.17455062547E+02  0.54609144824E+02  0.57948985978E+02  0.00000000000E+00 0. -1.
         -5    1    3    3    0  503  0.73568154142E+02 -0.35737171551E+02  0.64894886933E+02  0.10451246378E+03  0.47000000000E+01 0.  1.
         11    1    4    4    0    0  0.33960115909E+02  0.71977896917E+02  0.10352843278E+03  0.13058423914E+03  0.00000000000E+00 0. -1.
        -12    1    4    4    0    0  0.19414343439E+02 -0.12442441409E+01  0.11920856407E+03  0.12078553979E+03  0.00000000000E+00 0.  1.
</event>
<event>
12    1  0.8449700E-002  0.2032060E+03  0.7818608E-02  0.1147361E+00
         21   -1    0    0  503  502  0.00000000000E+00  0.00000000000E+00  0.39639347578E+03  0.39639347578E+03  0.00000000000E+00 0. -1.
         21   -1    0    0  501  503 -0.00000000000E+00 -0.00000000000E+00 -0.10849498315E+03  0.10849498315E+03  0.00000000000E+00 0. -1.
          6    2    1    2  501    0 -0.10644730084E+03  0.16469289913E+01  0.19897146519E+03  0.28439816066E+03  0.17308648011E+03 0.  0.
         24    2    3    3    0    0 -0.45751827207E+02 -0.32312762175E+02  0.31743284124E+02  0.10322267754E+03  0.80684204022E+02 0.  0.
         -6    2    1    2    0  502  0.10644730084E+03 -0.16469289913E+01  0.88927027441E+02  0.22049029827E+03  0.17138907547E+03 0.  0.
        -24    2    5    5    0    0  0.14129711593E+03 -0.16612728570E+02  0.76247516657E+02  0.18022437269E+03  0.80164100419E+02 0.  0.
          5    1    3    3  501    0 -0.60695473633E+02  0.33959691166E+02  0.16722818107E+03  0.18117548313E+03  0.47000000000E+01 0. -1.
        -11    1    4    4    0    0  0.21087258189E+02 -0.45374601915E+01  0.20900027944E+02  0.30034516326E+02  0.00000000000E+00 0.  1.
         12    1    4    4    0    0 -0.66839085396E+02 -0.27775301983E+02  0.10843256180E+02  0.73188161210E+02  0.00000000000E+00 0. -1.
         -5    1    5    5    0  502 -0.34849815090E+02  0.14965799578E+02  0.12679510784E+02  0.40265925577E+02  0.47000000000E+01 0.  1.
         13    1    6    6    0    0  0.27854803221E+02  0.36945843211E+01  0.56771569002E+02  0.63344700352E+02  0.00000000000E+00 0. -1.
        -14    1    6    6    0    0  0.11344231271E+03 -0.20307312891E+02  0.19475947655E+02  0.11687967234E+03  0.00000000000E+00 0.  1.
</event>
<event>
12    1  0.8449700E-002  0.2041253E+03  0.7818608E-02  0.1146464E+00
         21   -1    0    0  501  502  0.00000000000E+00  0.00000000000E+00  0.15469810887E+03  0.15469810887E+03  0.00000000000E+00 0. -1.
         21   -1    0    0  502  503 -0.00000000000E+00 -0.00000000000E+00 -0.36619854856E+03  0.36619854856E+03  0.00000000000E+00 0. -1.
         -6    2    1    2    0  503 -0.90435584293E+02 -0.61332738989E+02 -0.24025260417E+03  0.31475635604E+03  0.17149329457E+03 0.  0.
        -24    2    3    3    0    0 -0.11717865748E+03 -0.65090793214E+02 -0.13641797460E+03  0.20736438599E+03  0.80140349711E+02 0.  0.
          6    2    1    2  501    0  0.90435584293E+02  0.61332738989E+02  0.28752164478E+02  0.20614030139E+03  0.17241472418E+03 0.  0.
         24    2    5    5    0    0  0.22074629240E+02  0.41726944593E+02 -0.44647073348E+02  0.10383123305E+03  0.80988496945E+02 0.  0.
          5    1    5    5  501    0  0.68360955053E+02  0.19605794396E+02  0.73399237827E+02  0.10230906833E+03  0.47000000000E+01 0. -1.
        -11    1    6    6    0    0 -0.13871276876E+02 -0.18466286180E+02 -0.63923039152E+01  0.23964089734E+02  0.00000000000E+00 0.  1.
         12    1    6    6    0    0  0.35945906116E+02  0.60193230773E+02 -0.38254769433E+02  0.79867143318E+02  0.00000000000E+00 0. -1.
         -5    1    3    3    0  503  0.26743073186E+02  0.37580542244E+01 -0.10383462957E+03  0.10739197006E+03  0.47000000000E+01 0.  1.
         13    1    4    4    0    0 -0.59801188639E+01  0.10526978310E+02 -0.40278495242E+02  0.42058724100E+02  0.00000000000E+00 0. -1.
        -14    1    4    4    0    0 -0.11119853862E+03 -0.75617771524E+02 -0.96139479357E+02  0.16530566189E+03  0.00000000000E+00 0.  1.
</event>
<event>
12    1  0.8449700E-002  0.2166505E+03  0.7818608E-02  0.1138131E+00
         21   -1    0    0  503  502  0.00000000000E+00  0.00000000000E+00  0.17658504599E+03  0.17658504599E+03  0.00000000000E+00 0.  1.
         21   -1    0    0  501  503 -0.00000000000E+00 -0.00000000000E+00 -0.34874572768E+03  0.34874572768E+03  0.00000000000E+00 0.  1.
          6    2    1    2  501    0 -0.12292623979E+03  0.45873628635E+02  0.51377563607E+02  0.21403224772E+03  0.16110524134E+03 0.  0.
         24    2    3    3    0    0 -0.38721605121E+02  0.22589479088E+02 -0.28397215432E+02  0.95631751561E+02  0.79557418219E+02 0.  0.
         -6    2    1    2    0  502  0.12292623979E+03 -0.45873628635E+02 -0.22353824530E+03  0.31129852596E+03  0.17240120336E+03 0.  0.
        -24    2    5    5    0    0  0.32679253731E+02 -0.84412744904E+02 -0.10982523281E+03  0.16102370709E+03  0.75323352006E+02 0.  0.
          5    1    3    3  501    0 -0.84204634670E+02  0.23284149547E+02  0.79774779039E+02  0.11840049616E+03  0.47000000000E+01 0. -1.
        -13    1    4    4    0    0 -0.63885022137E+01  0.26958910702E+01  0.27333654093E+02  0.28199458067E+02  0.00000000000E+00 0.  1.
         14    1    4    4    0    0 -0.32333102908E+02  0.19893588018E+02 -0.55730869525E+02  0.67432293494E+02  0.00000000000E+00 0. -1.
         -5    1    5    5    0  502  0.90246986060E+02  0.38539116269E+02 -0.11371301249E+03  0.15027481887E+03  0.47000000000E+01 0.  1.
         13    1    6    6    0    0  0.43413919936E+02 -0.64861856013E+02 -0.11417139121E+03  0.13830016406E+03  0.00000000000E+00 0. -1.
        -14    1    6    6    0    0 -0.10734666205E+02 -0.19550888891E+02  0.43461583984E+01  0.22723543029E+02  0.00000000000E+00 0.  1.
</event>
<event>
12    1  0.8449700E-002  0.1970716E+03  0.7818608E-02  0.1152341E+00
         21   -1    0    0  501  502  0.00000000000E+00  0.00000000000E+00  0.13092646105E+03  0.13092646105E+03  0.00000000000E+00 0.  1.
         21   -1    0    0  502  503 -0.00000000000E+00 -0.00000000000E+00 -0.78065742511E+03  0.78065742511E+03  0.00000000000E+00 0. -1.
         -6    2    1    2    0  503 -0.93870246372E+02  0.11303602906E+02 -0.68419499619E+03  0.71201124690E+03  0.17290988494E+03 0.  0.
        -24    2    3    3    0    0 -0.60450395057E+02 -0.60028406676E+02 -0.36719314520E+03  0.38533494598E+03  0.79965960517E+02 0.  0.
          6    2    1    2  501    0  0.93870246372E+02 -0.11303602906E+02  0.34464032139E+02  0.19957263926E+03  0.17234289726E+03 0.  0.
         24    2    5    5    0    0  0.12352768349E+03 -0.29230611882E+01 -0.70433894607E+01  0.14766162787E+03  0.80540139894E+02 0.  0.
          5    1    5    5  501    0 -0.29657437116E+02 -0.83805417174E+01  0.41507421600E+02  0.51911011391E+02  0.47000000000E+01 0. -1.
        -13    1    6    6    0    0  0.74099643205E+02 -0.21911567342E+02  0.30159723584E+02  0.82948675898E+02  0.00000000000E+00 0.  1.
         14    1    6    6    0    0  0.49428040283E+02  0.18988506154E+02 -0.37203113045E+02  0.64712951968E+02  0.00000000000E+00 0. -1.
         -5    1    3    3    0  503 -0.33419851315E+02  0.71332009581E+02 -0.31700185099E+03  0.32667630092E+03  0.47000000000E+01 0.  1.
         13    1    4    4    0    0  0.10310656320E+02 -0.18382999375E+02 -0.21824469577E+02  0.30340596106E+02  0.00000000000E+00 0. -1.
        -14    1    4    4    0    0 -0.70761051377E+02 -0.41645407301E+02 -0.34536867563E+03  0.35499434988E+03  0.00000000000E+00 0.  1.
</event>
<event>
12    1  0.8449700E-002  0.2173196E+03  0.7818608E-02  0.1136090E+00
         21   -1    0    0  501  502  0.00000000000E+00  0.00000000000E+00  0.24806906278E+03  0.24806906278E+03  0.00000000000E+00 0. -1.
         21   -1    0    0  502  503 -0.00000000000E+00 -0.00000000000E+00 -0.20749467914E+03  0.20749467914E+03  0.00000000000E+00 0. -1.
         -6    2    1    2    0  503 -0.13111077677E+03  0.20589267367E+02 -0.46850270075E+02  0.22131840554E+03  0.17080086390E+03 0.  0.
        -24    2    3    3    0    0 -0.14402069602E+03  0.23453215023E+00 -0.77815027749E+02  0.18179768340E+03  0.79077198100E+02 0.  0.
          6    2    1    2  501    0  0.13111077677E+03 -0.20589267367E+02  0.87424653722E+02  0.23424533638E+03  0.17208676248E+03 0.  0.
         24    2    5    5    0    0  0.10474707231E+03 -0.80324110067E+02  0.63253039939E+02  0.16446243548E+03  0.74986890895E+02 0.  0.
          5    1    5    5  501    0  0.26363704465E+02  0.59734842700E+02  0.24171613784E+02  0.69782900903E+02  0.47000000000E+01 0. -1.
        -11    1    6    6    0    0  0.10020020762E+02 -0.14766214853E+02 -0.16536418551E+02  0.24328893433E+02  0.00000000000E+00 0.  1.
         12    1    6    6    0    0  0.94727051548E+02 -0.65557895214E+02  0.79789458490E+02  0.14013354204E+03  0.00000000000E+00 0. -1.
         -5    1    3    3    0  503  0.12909919246E+02  0.20354735216E+02  0.30964757673E+02  0.39520722140E+02  0.47000000000E+01 0.  1.
         13    1    4    4    0    0 -0.94242383311E+02  0.21642211230E+02 -0.13395299126E+02  0.97618882178E+02  0.00000000000E+00 0. -1.
        -14    1    4    4    0    0 -0.49778312710E+02 -0.21407679080E+02 -0.64419728622E+02  0.84178801225E+02  0.00000000000E+00 0.  1.
</event>
<event>
12    1  0.8449700E-002  0.1954260E+03  0.7818608E-02  0.1155154E+00
         21   -1    0    0  503  502  0.00000000000E+00  0.00000000000E+00  0.48466343412E+03  0.48466343412E+03  0.00000000000E+00 0. -1.
         21   -1    0    0  501  503 -0.00000000000E+00 -0.00000000000E+00 -0.79557933199E+02  0.79557933199E+02  0.00000000000E+00 0. -1.
          6    2    1    2  501    0 -0.32130793874E+02  0.66646986094E+02  0.14031742866E+03  0.23512557883E+03  0.17355358932E+03 0.  0.
         24    2    3    3    0    0 -0.34457440609E+02  0.30616450879E+02  0.39431878008E+01  0.93974467175E+02  0.81798346396E+02 0.  0.
         -6    2    1    2    0  502  0.32130793874E+02 -0.66646986094E+02  0.26478807227E+03  0.32909578849E+03  0.18087870554E+03 0.  0.
        -24    2    5    5    0    0  0.46343205776E+02 -0.11259375363E+03  0.17934218579E+03  0.23093170334E+03  0.79629052009E+02 0.  0.
          5    1    3    3  501    0  0.23266467353E+01  0.36030535215E+02  0.13637424086E+03  0.14115111166E+03  0.47000000000E+01 0. -1.
        -11    1    4    4    0    0  0.18949851705E+02  0.34798357580E+02 -0.39720697330E+01  0.39822103258E+02  0.00000000000E+00 0.  1.
         12    1    4    4    0    0 -0.53407292314E+02 -0.41819067014E+01  0.79152575338E+01  0.54152363917E+02  0.00000000000E+00 0. -1.
         -5    1    5    5    0  502 -0.14212411902E+02  0.45946767532E+02  0.85445886475E+02  0.98164085154E+02  0.47000000000E+01 0.  1.
         11    1    6    6    0    0 -0.17902605404E+02 -0.56440927820E+02  0.60748218866E+02  0.84831761203E+02  0.00000000000E+00 0. -1.
        -12    1    6    6    0    0  0.64245811179E+02 -0.56152825806E+02  0.11859396693E+03  0.14609994213E+03  0.00000000000E+00 0.  1.
</event>
<event>
12    1  0.8449700E-002  0.1824399E+03  0.7818608E-02  0.1165539E+00
         21   -1    0    0  501  502  0.00000000000E+00  0.00000000000E+00  0.15772360115E+03  0.15772360115E+03  0.00000000000E+00 0.  1.
         21   -1    0    0  502  503 -0.00000000000E+00 -0.00000000000E+00 -0.21970908922E+03  0.21970908922E+03  0.00000000000E+00 0.  1.
         -6    2    1    2    0  503  0.58541392007E+02  0.11795541032E+02 -0.69319498265E+02  0.19516534602E+03  0.17238935606E+03 0.  0.
        -24    2    3    3    0    0  0.33979563139E+02  0.34102108869E+02 -0.10694818272E+03  0.14477810260E+03  0.84883571242E+02 0.  0.
          6    2    1    2  501    0 -0.58541392007E+02 -0.11795541032E+02  0.73340101922E+01  0.18226734435E+03  0.17205048022E+03 0.  0.
         24    2    5    5    0    0 -0.57953119761E+02 -0.14289656951E+02  0.68877327191E+02  0.12049164892E+03  0.78812390346E+02 0.  0.
          5    1    5    5  501    0 -0.58827224597E+00  0.24941159186E+01 -0.61543316999E+02  0.61775695428E+02  0.47000000000E+01 0. -1.
        -11    1    6    6    0    0  0.35623852584E+01 -0.13138669195E+02  0.56001783828E+02  0.57632586345E+02  0.00000000000E+00 0.  1.
         12    1    6    6    0    0 -0.61515505019E+02 -0.11509877558E+01  0.12875543363E+02  0.62859062572E+02  0.00000000000E+00 0. -1.
         -5    1    3    3    0  503  0.24561828867E+02 -0.22306567837E+02  0.37628684451E+02  0.50387243420E+02  0.47000000000E+01 0.  1.
         13    1    4    4    0    0 -0.17762810941E+01 -0.26056284588E+02 -0.18562030149E+02  0.32041131446E+02  0.00000000000E+00 0. -1.
        -14    1    4    4    0    0  0.35755844234E+02  0.60158393457E+02 -0.88386152567E+02  0.11273697116E+03  0.00000000000E+00 0.  1.
</event>
<event>
12    1  0.8449700E-002  0.1833198E+03  0.7818608E-02  0.1165241E+00
         21   -1    0    0  501  502  0.00000000000E+00  0.00000000000E+00  0.14170877213E+03  0.14170877213E+03  0.00000000000E+00 0. -1.
         21   -1    0    0  502  503 -0.00000000000E+00 -0.00000000000E+00 -0.53269502293E+03  0.53269502293E+03  0.00000000000E+00 0. -1.
         -6    2    1    2    0  503 -0.36787301961E+02 -0.48390842967E+02 -0.44866901418E+03  0.48467517596E+03  0.17294843923E+03 0.  0.
        -24    2    3    3    0    0 -0.65611729397E+02  0.16729794851E+02 -0.32703776124E+03  0.34365107596E+03  0.80978884058E+02 0.  0.
          6    2    1    2  501    0  0.36787301961E+02  0.48390842967E+02  0.57682763383E+02  0.18972861910E+03  0.17021947140E+03 0.  0.
         24    2    5    5    0    0 -0.42491997376E+02  0.30961000786E+02  0.48587349055E+02  0.10791283050E+03  0.80748344181E+02 0.  0.
          5    1    5    5  501    0  0.79279299337E+02  0.17429842181E+02  0.90954143281E+01  0.81815788596E+02  0.47000000000E+01 0. -1.
        -11    1    6    6    0    0 -0.20655729263E+02 -0.12783450451E+02 -0.14352334570E+02  0.28214628553E+02  0.00000000000E+00 0.  1.
         12    1    6    6    0    0 -0.21836268114E+02  0.43744451236E+02  0.62939683624E+02  0.79698201948E+02  0.00000000000E+00 0. -1.
         -5    1    3    3    0  503  0.28824427436E+02 -0.65120637818E+02 -0.12163125295E+03  0.14102410000E+03  0.47000000000E+01 0.  1.
         11    1    4    4    0    0 -0.71814845113E+02 -0.12210533636E+02 -0.19074518131E+03  0.20418176535E+03  0.00000000000E+00 0. -1.
        -12    1    4    4    0    0  0.62031157164E+01  0.28940328487E+02 -0.13629257993E+03  0.13946931061E+03  0.00000000000E+00 0.  1.
</event>
<event>
12    1  0.8449700E-002  0.1722020E+03  0.7818608E-02  0.1176066E+00
         21   -1    0    0  503  502  0.00000000000E+00  0.00000000000E+00  0.77486549083E+02  0.77486549083E+02  0.00000000000E+00 0.  1.
         21   -1    0    0  501  503 -0.00000000000E+00 -0.00000000000E+00 -0.44321063576E+03  0.44321063576E+03  0.00000000000E+00 0.  1.
          6    2    1    2  501    0  0.91237688391E+00  0.50612199849E+01 -0.28326234579E+03  0.33149824505E+03  0.17212519151E+03 0.  0.
         24    2    3    3    0    0  0.28910547141E+02  0.47498702321E+02 -0.93529879370E+02  0.13501583806E+03  0.79934296351E+02 0.  0.
         -6    2    1    2    0  502 -0.91237688391E+00 -0.50612199849E+01 -0.82461740888E+02  0.18919893979E+03  0.17020532227E+03 0.  0.
        -24    2    5    5    0    0  0.59318631128E+02 -0.28856095076E+02 -0.65845181362E+02  0.12217528384E+03  0.78992644284E+02 0.  0.
          5    1    3    3  501    0 -0.27998170257E+02 -0.42437482337E+02 -0.18973246642E+03  0.19648240699E+03  0.47000000000E+01 0. -1.
        -13    1    4    4    0    0  0.25435599291E+02 -0.16798986622E+02 -0.45141580556E+02  0.54469605817E+02  0.00000000000E+00 0.  1.
         14    1    4    4    0    0  0.34749478501E+01  0.64297688943E+02 -0.48388298815E+02  0.80546232241E+02  0.00000000000E+00 0. -1.
         -5    1    5    5    0  502 -0.60231008011E+02  0.23794875091E+02 -0.16616559526E+02  0.67023655952E+02  0.47000000000E+01 0.  1.
         13    1    6    6    0    0  0.12692052932E+02 -0.28284859999E+02 -0.68789087850E+02  0.75452369877E+02  0.00000000000E+00 0. -1.
        -14    1    6    6    0    0  0.46626578196E+02 -0.57123507677E+00  0.29439064884E+01  0.46722913963E+02  0.00000000000E+00 0.  1.
</event>
<event>
12    1  0.8449700E-002  0.1830826E+03  0.7818608E-02  0.1165084E+00
         21   -1    0    0  501  502  0.00000000000E+00  0.00000000000E+00  0.60516930120E+02  0.60516930120E+02  0.00000000000E+00 0.  1.
         21   -1    0    0  502  503 -0.00000000000E+00 -0.00000000000E+00 -0.78093073945E+03  0.78093073945E+03  0.00000000000E+00 0.  1.
         -6    2    1    2    0  503 -0.31049831273E+02 -0.52905895182E+02 -0.58920921798E+03  0.61699815909E+03  0.17249956522E+03 0.  0.
        -24    2    3    3    0    0  0.45701413428E+02 -0.45530523780E+01 -0.28442070929E+03  0.29896219257E+03  0.79836728630E+02 0.  0.
          6    2    1    2  501    0  0.31049831273E+02  0.52905895182E+02 -0.13120459135E+03  0.22444951047E+03  0.17146373434E+03 0.  0.
         24    2    5    5    0    0 -0.13021647847E+02 -0.18736039756E+02 -0.16461485701E+02  0.82101583176E+02  0.77130324452E+02 0.  0.
          5    1    5    5  501    0  0.44071479120E+02  0.71641934939E+02 -0.11474310564E+03  0.14234792730E+03  0.47000000000E+01 0. -1.
        -13    1    6    6    0    0 -0.12710429643E+02 -0.47068963737E+02 -0.21564545966E+02  0.53311087137E+02  0.00000000000E+00 0.  1.
         14    1    6    6    0    0 -0.31121820375E+00  0.28332923981E+02  0.51030602644E+01  0.28790496039E+02  0.00000000000E+00 0. -1.
         -5    1    3    3    0  503 -0.76751244701E+02 -0.48352842804E+02 -0.30478850869E+03  0.31803596652E+03  0.47000000000E+01 0.  1.
         11    1    4    4    0    0  0.16401661014E+02 -0.14578211862E+02 -0.12441259666E+02  0.25225457126E+02  0.00000000000E+00 0. -1.
        -12    1    4    4    0    0  0.29299752414E+02  0.10025159484E+02 -0.27197944962E+03  0.27373673544E+03  0.00000000000E+00 0.  1.
</event>
<event>
12    1  0.8449700E-002  0.1989394E+03  0.7818608E-02  0.1150754E+00
         21   -1    0    0  503  502  0.00000000000E+00  0.00000000000E+00  0.12250635289E+03  0.12250635289E+03  0.00000000000E+00 0. -1.
         21   -1    0    0  501  503 -0.00000000000E+00 -0.00000000000E+00 -0.63099172854E+03  0.63099172854E+03  0.00000000000E+00 0. -1.
          6    2    1    2  501    0 -0.22505290902E+02  0.98393790037E+02 -0.51799184345E+03  0.55488055299E+03  0.17143235451E+03 0.  0.
         24    2    3    3    0    0 -0.79391608040E+02  0.79998670724E+02 -0.33893040602E+03  0.36604326359E+03  0.80068945016E+02 0.  0.
         -6    2    1    2    0  502  0.22505290902E+02 -0.98393790037E+02  0.95064678025E+01  0.19861752843E+03  0.17079438994E+03 0.  0.
        -24    2    5    5    0    0 -0.22230047507E+02 -0.42345688356E+02  0.58175537537E+02  0.11182231800E+03  0.82658969879E+02 0.  0.
          5    1    3    3  501    0  0.56886317137E+02  0.18395119314E+02 -0.17906143743E+03  0.18883728940E+03  0.47000000000E+01 0. -1.
        -11    1    4    4    0    0 -0.67812475383E+02  0.11571626884E+02 -0.17412745476E+03  0.18722394309E+03  0.00000000000E+00 0.  1.
         12    1    4    4    0    0 -0.11579132657E+02  0.68427043840E+02 -0.16480295126E+03  0.17881932050E+03  0.00000000000E+00 0. -1.
         -5    1    5    5    0  502  0.44735338409E+02 -0.56048101681E+02 -0.48669069735E+02  0.86795210430E+02  0.47000000000E+01 0.  1.
         13    1    6    6    0    0  0.15035043165E+02 -0.16073705466E+01  0.54421937751E+02  0.56483479634E+02  0.00000000000E+00 0. -1.
        -14    1    6    6    0    0 -0.37265090672E+02 -0.40738317809E+02  0.37535997866E+01  0.55338838369E+02  0.00000000000E+00 0.  1.
</event>
<event>
12    1  0.8449700E-002  0.1729014E+03  0.7818608E-02  0.1174869E+00
         21   -1    0    0  501  502  0.00000000000E+00  0.00000000000E+00  0.68495625869E+03  0.68495625869E+03  0.00000000000E+00 0. -1.
         21   -1    0    0  502  503 -0.00000000000E+00 -0.00000000000E+00 -0.46790159649E+02  0.46790159649E+02  0.00000000000E+00 0. -1.
         -6    2    1    2    0  503 -0.62159498457E+01 -0.15820538849E+02  0.41418656782E+03  0.44882671879E+03  0.17206389237E+03 0.  0.
        -24    2    3    3    0    0  0.83145796989E+00 -0.76537161711E+02  0.25523157058E+03  0.27845959932E+03  0.80857686028E+02 0.  0.
          6    2    1    2  501    0  0.62159498457E+01  0.15820538849E+02  0.22397953122E+03  0.28291969954E+03  0.17201104181E+03 0.  0.
         24    2    5    5    0    0  0.58741909082E+02 -0.91877553478E+00  0.20119901447E+03  0.22308473499E+03  0.76382586563E+02 0.  0.
          5    1    5    5  501    0 -0.52525959236E+02  0.16739314384E+02  0.22780516745E+02  0.59834964552E+02  0.47000000000E+01 0. -1.
        -11    1    6    6    0    0  0.64987962242E+02 -0.17321126395E+02  0.10089679810E+03  0.12125848640E+03  0.00000000000E+00 0.  1.
         12    1    6    6    0    0 -0.62460531602E+01  0.16402350860E+02  0.10030221637E+03  0.10182624860E+03  0.00000000000E+00 0. -1.
         -5    1    3    3    0  503 -0.70474078156E+01  0.60716622861E+02  0.15895499724E+03  0.17036711947E+03  0.47000000000E+01 0.  1.
         13    1    4    4    0    0 -0.55385376352E+00 -0.20592983657E+02  0.19560025533E+03  0.19668207243E+03  0.00000000000E+00 0. -1.
        -14    1    4    4    0    0  0.13853117334E+01 -0.55944178053E+02  0.59631315253E+02  0.81777526898E+02  0.00000000000E+00 0.  1.
</event>
<event>
12    1  0.8449700E-002  0.2135667E+03  0.7818608E-02  0.1139042E+00
         21   -1    0    0  501  502  0.00000000000E+00  0.00000000000E+00  0.62005855390E+03  0.62005855390E+03  0.00000000000E+00 0.  1.
         21   -1    0    0  502  503 -0.00000000000E+00 -0.00000000000E+00 -0.74930732169E+02  0.74930732169E+02  0.00000000000E+00 0.  1.
         -6    2    1    2    0  503  0.66997525539E+02  0.10648450114E+03  0.21711002802E+03  0.30357338856E+03  0.17085789581E+03 0.  0.
        -24    2    3    3    0    0  0.93514447998E+00 -0.10273899581E+02  0.10192834029E+03  0.12669582209E+03  0.74538696482E+02 0.  0.
          6    2    1    2  501    0 -0.66997525539E+02 -0.10648450114E+03  0.32801779371E+03  0.39141589751E+03  0.17257785032E+03 0.  0.
         24    2    5    5    0    0  0.19391175187E+02 -0.97417631236E+02  0.19141532920E+03  0.22946671087E+03  0.78415117131E+02 0.  0.
          5    1    5    5  501    0 -0.86388700726E+02 -0.90668699063E+01  0.13660246450E+03  0.16194918663E+03  0.47000000000E+01 0. -1.
        -11    1    6    6    0    0  0.36501456072E+01 -0.73170980204E+02  0.18619671743E+03  0.20009131288E+03  0.00000000000E+00 0.  1.
         12    1    6    6    0    0  0.15741029580E+02 -0.24246651032E+02  0.52186117696E+01  0.29375397994E+02  0.00000000000E+00 0. -1.
         -5    1    3    3    0  503  0.66062381059E+02  0.11675840072E+03  0.11518168773E+03  0.17687756647E+03  0.47000000000E+01 0.  1.
         13    1    4    4    0    0  0.24550182120E+02 -0.25366604994E+02  0.21053561026E+02  0.41102658344E+02  0.00000000000E+00 0. -1.
        -14    1    4    4    0    0 -0.23615037640E+02  0.15092705412E+02  0.80874779261E+02  0.85593163745E+02  0.00000000000E+00 0.  1.
</event>
<event>
12    1  0.8449700E-002  0.1784786E+03  0.7818608E-02  0.1169495E+00
         21   -1    0    0  503  502  0.00000000000E+00  0.00000000000E+00  0.18918497246E+03  0.18918497246E+03  0.00000000000E+00 0. -1.
         21   -1    0    0  501  503 -0.00000000000E+00 -0.00000000000E+00 -0.18242331550E+03  0.18242331550E+03  0.00000000000E+00 0. -1.
          6    2    1    2  501    0  0.16736871669E+02  0.38278765947E+02 -0.49635822978E+02  0.18525201231E+03  0.17352004595E+03 0.  0.
         24    2    3    3    0    0  0.43850599522E+02 -0.16874329607E+01 -0.83817685734E+02  0.12589764403E+03  0.83060759816E+02 0.  0.
         -6    2    1    2    0  502 -0.16736871669E+02 -0.38278765947E+02  0.56397479934E+02  0.18635627565E+03  0.17263429246E+03 0.  0.
        -24    2    5    5    0    0  0.28329066378E+01  0.44277076773E+02  0.41405681779E+02  0.10007019680E+03  0.79568391445E+02 0.  0.
          5    1    3    3  501    0 -0.27113727853E+02  0.39966198908E+02  0.34181862756E+02  0.59354368287E+02  0.47000000000E+01 0. -1.
        -11    1    4    4    0    0  0.37995387024E+02  0.92515862378E+01  0.20298105236E+01  0.39158158969E+02  0.00000000000E+00 0.  1.
         12    1    4    4    0    0  0.58552124974E+01 -0.10939019199E+02 -0.85847496258E+02  0.86739485058E+02  0.00000000000E+00 0. -1.
         -5    1    5    5    0  502 -0.19569778306E+02 -0.82555842720E+02  0.14991798156E+02  0.86286078843E+02  0.47000000000E+01 0.  1.
         11    1    6    6    0    0 -0.20150674352E+02  0.43494027757E+02 -0.50835382137E+01  0.48203967556E+02  0.00000000000E+00 0. -1.
        -12    1    6    6    0    0  0.22983580989E+02  0.78304901526E+00  0.46489219992E+02  0.51866229247E+02  0.00000000000E+00 0.  1.
</event>
<event>
12    1  0.8449700E-002  0.2220475E+03  0.7818608E-02  0.1132556E+00
         21   -1    0    0  501  502  0.00000000000E+00  0.00000000000E+00  0.12018995919E+03  0.12018995919E+03  0.00000000000E+00 0. -1.
         21   -1    0    0  502  503 -0.00000000000E+00 -0.00000000000E+00 -0.47547476106E+03  0.47547476106E+03  0.00000000000E+00 0. -1.
         -6    2    1    2    0  503  0.79824629649E+02  0.11375361271E+03 -0.28921485649E+03  0.36399614614E+03  0.17186071478E+03 0.  0.
        -24    2    3    3    0    0  0.10635660491E+03  0.12406707781E+03 -0.19993322649E+03  0.27016857700E+03  0.79456892349E+02 0.  0.
          6    2    1    2  501    0 -0.79824629649E+02 -0.11375361271E+03 -0.66069945378E+02  0.23166857411E+03  0.17318554976E+03 0.  0.
         24    2    5    5    0    0 -0.91970157503E+02 -0.13845349744E+03 -0.79963926588E+02  0.20047994050E+03  0.78549959647E+02 0.  0.
          5    1    5    5  501    0  0.12145527854E+02  0.24699884738E+02  0.13893981210E+02  0.31188633615E+02  0.47000000000E+01 0. -1.
        -13    1    6    6    0    0 -0.15640669243E+02 -0.15715250170E+01 -0.33511730093E+02  0.37015351938E+02  0.00000000000E+00 0.  1.
         14    1    6    6    0    0 -0.76329488260E+02 -0.13688197243E+03 -0.46452196495E+02  0.16346458856E+03  0.00000000000E+00 0. -1.
         -5    1    3    3    0  503 -0.26531975266E+02 -0.10313465101E+02 -0.89281629998E+02  0.93827569131E+02  0.47000000000E+01 0.  1.
         11    1    4    4    0    0  0.24737055997E+02  0.87984652621E+02 -0.11579961508E+03  0.14752210644E+03  0.00000000000E+00 0. -1.
        -12    1    4    4    0    0  0.81619548918E+02  0.36082425185E+02 -0.84133611412E+02  0.12264647057E+03  0.00000000000E+00 0.  1.
</event>
<event>
12    1  0.8449700E-002  0.2070322E+03  0.7818608E-02  0.1145900E+00
         21   -1    0    0  501  502  0.00000000000E+00  0.00000000000E+00  0.36460208695E+03  0.36460208695E+03  0.00000000000E+00 0. -1.
         21   -1    0    0  502  503 -0.00000000000E+00 -0.00000000000E+00 -0.13016392929E+03  0.13016392929E+03  0.00000000000E+00 0. -1.
         -6    2    1    2    0  503  0.21550974011E+02  0.94414654078E+02  0.23052617237E+02  0.19888395999E+03  0.17217675509E+03 0.  0.
        -24    2    3    3    0    0 -0.19524350923E+02 -0.10495447825E+02  0.19972917006E+02  0.86079321992E+02  0.80742662557E+02 0.  0.
          6    2    1    2  501    0 -0.21550974011E+02 -0.94414654078E+02  0.21138554042E+03  0.29588205624E+03  0.18298571836E+03 0.  0.
         24    2    5    5    0    0  0.20860525448E+02 -0.30645018165E+02  0.20156565287E+02  0.89833730160E+02  0.79306577849E+02 0.  0.
          5    1    5    5  501    0 -0.42411499459E+02 -0.63769635913E+02  0.19122897514E+03  0.20604832608E+03  0.47000000000E+01 0. -1.
        -13    1    6    6    0    0 -0.23925701052E+02 -0.22593277998E+02  0.28545025755E+02  0.43562757912E+02  0.00000000000E+00 0.  1.
         14    1    6    6    0    0  0.44786226500E+02 -0.80517401661E+01 -0.83884604675E+01  0.46270972248E+02  0.00000000000E+00 0. -1.
         -5    1    3    3    0  503  0.41075324935E+02  0.10491010190E+03  0.30797002310E+01  0.11280463800E+03  0.47000000000E+01 0.  1.
         11    1    4    4    0    0 -0.18050544271E+02  0.29226891835E+02 -0.10580389822E+02  0.35944095531E+02  0.00000000000E+00 0. -1.
        -12    1    4    4    0    0 -0.14738066525E+01 -0.39722339660E+02  0.30553306828E+02  0.50135226460E+02  0.00000000000E+00 0.  1.
</event>
<event>
12    1  0.8449700E-002  0.1739299E+03  0.7818608E-02  0.1174085E+00
         21   -1    0    0  501  502  0.00000000000E+00  0.00000000000E+00  0.16375711539E+03  0.16375711539E+03  0.00000000000E+00 0. -1.
         21   -1    0    0  502  503 -0.00000000000E+00 -0.00000000000E+00 -0.18886603311E+03  0.18886603311E+03  0.00000000000E+00 0. -1.
         -6    2    1    2    0  503  0.74078413622E+01  0.23904193569E+02 -0.42070945070E+02  0.17894574568E+03  0.17212010021E+03 0.  0.
        -24    2    3    3    0    0  0.14283266895E+02  0.81991412109E+02 -0.27077406034E+02  0.11837931400E+03  0.79711182982E+02 0.  0.
          6    2    1    2  501    0 -0.74078413622E+01 -0.23904193569E+02  0.16962027346E+02  0.17367740282E+03  0.17102585563E+03 0.  0.
         24    2    5    5    0    0  0.26683236997E+00  0.48646263721E+02 -0.17285062190E+02  0.92946847194E+02  0.77290444783E+02 0.  0.
          5    1    5    5  501    0 -0.76746737322E+01 -0.72550457290E+02  0.34247089536E+02  0.80730555626E+02  0.47000000000E+01 0. -1.
        -11    1    6    6    0    0  0.19921360438E+02  0.54203285283E+02  0.10262769594E+02  0.58653057695E+02  0.00000000000E+00 0.  1.
         12    1    6    6    0    0 -0.19654528068E+02 -0.55570215619E+01 -0.27547831784E+02  0.34293789499E+02  0.00000000000E+00 0. -1.
         -5    1    3    3    0  503 -0.68754255323E+01 -0.58087218540E+02 -0.14993539036E+02  0.60566431683E+02  0.47000000000E+01 0.  1.
         11    1    4    4    0    0  0.36362033532E+02  0.85217108457E+01 -0.16895193327E+02  0.40991030676E+02  0.00000000000E+00 0. -1.
        -12    1    4    4    0    0 -0.22078766638E+02  0.73469701263E+02 -0.10182212707E+02  0.77388283322E+02  0.00000000000E+00 0.  1.
</event>
<event>
12    1  0.8449700E-002  0.1749597E+03  0.7818608E-02  0.1172938E+00
         21   -1    0    0  503  502  0.00000000000E+00  0.00000000000E+00  0.12952216558E+03  0.12952216558E+03  0.00000000000E+00 0.  1.
         21   -1    0    0  501  503 -0.00000000000E+00 -0.00000000000E+00 -0.55914864953E+03  0.55914864953E+03  0.00000000000E+00 0.  1.
          6    2    1    2  501    0 -0.73109525115E+01 -0.31637770477E+02 -0.47697778305E+03  0.50805382428E+03  0.17191999388E+03 0.  0.
         24    2    3    3    0    0 -0.24740803517E+01  0.48803684018E+02 -0.23382833515E+03  0.25185474749E+03  0.79794754635E+02 0.  0.
         -6    2    1    2    0  502  0.73109525115E+01  0.31637770477E+02  0.47351299095E+02  0.18061699084E+03  0.17124822133E+03 0.  0.
        -24    2    5    5    0    0  0.69989848841E+02  0.29504424350E+02  0.19265522800E+02  0.11173959222E+03  0.79658559512E+02 0.  0.
          5    1    3    3  501    0 -0.48368721598E+01 -0.80441454495E+02 -0.24314944790E+03  0.25619907679E+03  0.47000000000E+01 0. -1.
        -13    1    4    4    0    0  0.18867960577E+02  0.32519298258E+02 -0.35468969510E+02  0.51687063117E+02  0.00000000000E+00 0.  1.
         14    1    4    4    0    0 -0.21342040929E+02  0.16284385760E+02 -0.19835936564E+03  0.20016768437E+03  0.00000000000E+00 0. -1.
         -5    1    5    5    0  502 -0.62678896330E+02  0.21333461272E+01  0.28085776295E+02  0.68877398622E+02  0.47000000000E+01 0.  1.
         11    1    6    6    0    0  0.20879726293E+02  0.49884166587E+02 -0.28503003916E+01  0.54152721617E+02  0.00000000000E+00 0. -1.
        -12    1    6    6    0    0  0.49110122548E+02 -0.20379742237E+02  0.22115823191E+02  0.57586870602E+02  0.00000000000E+00 0.  1.
</event>
<event>
12    1  0.8449700E-002  0.1874906E+03  0.7818608E-02  0.1161179E+00
         21   -1    0    0  503  502  0.00000000000E+00  0.00000000000E+00  0.14899810771E+03  0.14899810771E+03  0.00000000000E+00 0. -1.
         21   -1    0    0  501  503 -0.00000000000E+00 -0.00000000000E+00 -0.69439789773E+03  0.69439789773E+03  0.00000000000E+00 0. -1.
          6    2    1    2  501    0  0.59455840275E+02 -0.43057695055E+02 -0.61669572571E+03  0.64456678580E+03  0.17252177020E+03 0.  0.
         24    2    3    3    0    0  0.14215546713E+02 -0.85703789706E+02 -0.30970944356E+03  0.33131282975E+03  0.79379029888E+02 0.  0.
         -6    2    1    2    0  502 -0.59455840275E+02  0.43057695055E+02  0.71295935690E+02  0.19882921964E+03  0.17047283095E+03 0.  0.
        -24    2    5    5    0    0  0.29991131948E+01  0.67065344348E+02  0.42879870613E+02  0.12598314087E+03  0.97602834939E+02 0.  0.
          5    1    3    3  501    0  0.45240293562E+02  0.42646094651E+02 -0.30698628215E+03  0.31325395605E+03  0.47000000000E+01 0. -1.
        -13    1    4    4    0    0 -0.27094915302E+02 -0.16066120523E+02 -0.48412316695E+02  0.57758177530E+02  0.00000000000E+00 0.  1.
         14    1    4    4    0    0  0.41310462015E+02 -0.69637669183E+02 -0.26129712687E+03  0.27355465222E+03  0.00000000000E+00 0. -1.
         -5    1    5    5    0  502 -0.62454953469E+02 -0.24007649293E+02  0.28416065076E+02  0.72846078768E+02  0.47000000000E+01 0.  1.
         13    1    6    6    0    0 -0.38878298493E+02  0.31264049334E+02  0.49756858900E+02  0.70460683236E+02  0.00000000000E+00 0. -1.
        -14    1    6    6    0    0  0.41877411687E+02  0.35801295014E+02 -0.68769882867E+01  0.55522457638E+02  0.00000000000E+00 0.  1.
</event>
<event>
12    1  0.8449700E-002  0.2020884E+03  0.7818608E-02  0.1148064E+00
         21   -1    0    0  503  502  0.00000000000E+00  0.00000000000E+00  0.37864193950E+03  0.37864193950E+03  0.00000000000E+00 0. -1.
         21   -1    0    0  501  503 -0.00000000000E+00 -0.00000000000E+00 -0.13027651317E+03  0.13027651317E+03  0.00000000000E+00 0. -1.
          6    2    1    2  501    0  0.88783427941E+02  0.57012062769E+02  0.18083829278E+02  0.20253745406E+03  0.17193464758E+03 0.  0.
         24    2    3    3    0    0  0.90013603564E+01  0.64405559979E+02 -0.15165661821E+02  0.11566133095E+03  0.94437521855E+02 0.  0.
         -6    2    1    2    0  502 -0.88783427941E+02 -0.57012062769E+02  0.23028159705E+03  0.30638099860E+03  0.17235669406E+03 0.  0.
        -24    2    5    5    0    0 -0.82270021169E+02 -0.70091503012E+02  0.24862216256E+03  0.28246525968E+03  0.79325078216E+02 0.  0.
          5    1    3    3  501    0  0.79782067585E+02 -0.73934972097E+01  0.33249491100E+02  0.86876123115E+02  0.47000000000E+01 0. -1.
        -11    1    4    4    0    0 -0.23876364512E+02 -0.14974030070E+02 -0.87173500283E+01  0.29500755082E+02  0.00000000000E+00 0.  1.
         12    1    4    4    0    0  0.32877724869E+02  0.79379590049E+02 -0.64483117931E+01  0.86160575868E+02  0.00000000000E+00 0. -1.
         -5    1    5    5    0  502 -0.65134067729E+01  0.13079440243E+02 -0.18340565510E+02  0.23915738920E+02  0.47000000000E+01 0.  1.
         13    1    6    6    0    0 -0.35422875847E+02 -0.52904199338E+02  0.60468791012E+02  0.87807227079E+02  0.00000000000E+00 0. -1.
        -14    1    6    6    0    0 -0.46847145322E+02 -0.17187303675E+02  0.18815337155E+03  0.19465803260E+03  0.00000000000E+00 0.  1.
</event>
<event>
12    1  0.8449700E-002  0.2403707E+03  0.7818608E-02  0.1121456E+00
         21   -1    0    0  503  502  0.00000000000E+00  0.00000000000E+00  0.68144169563E+02  0.68144169563E+02  0.00000000000E+00 0. -1.
         21   -1    0    0  501  503 -0.00000000000E+00 -0.00000000000E+00 -0.83824749810E+03  0.83824749810E+03  0.00000000000E+00 0.  1.
          6    2    1    2  501    0 -0.12368828798E+03  0.86500197984E+02 -0.47879958847E+03  0.53574911912E+03  0.18707484033E+03 0.  0.
         24    2    3    3    0    0 -0.38707061318E+02 -0.25658312450E+02 -0.13112974394E+03  0.16065213014E+03  0.80358643456E+02 0.  0.
         -6    2    1    2    0  502  0.12368828798E+03 -0.86500197984E+02 -0.29130374006E+03  0.37064254854E+03  0.17244405754E+03 0.  0.
        -24    2    5    5    0    0  0.13710225077E+03 -0.19852679978E+02 -0.18272857833E+03  0.24245330641E+03  0.78757325878E+02 0.  0.
          5    1    3    3  501    0 -0.84981226659E+02  0.11215851043E+03 -0.34766984453E+03  0.37509698898E+03  0.47000000000E+01 0. -1.
        -11    1    4    4    0    0  0.20665955925E+02 -0.12036729795E+02 -0.71560890584E+02  0.75451478843E+02  0.00000000000E+00 0.  1.
         12    1    4    4    0    0 -0.59373017244E+02 -0.13621582655E+02 -0.59568853354E+02  0.85200651292E+02  0.00000000000E+00 0. -1.
         -5    1    5    5    0  502 -0.13413962795E+02 -0.66647518006E+02 -0.10857516173E+03  0.12818924213E+03  0.47000000000E+01 0.  1.
         13    1    6    6    0    0  0.60673494387E+02  0.65354635545E+01 -0.26476985975E+02  0.66520793677E+02  0.00000000000E+00 0. -1.
        -14    1    6    6    0    0  0.76428756386E+02 -0.26388143532E+02 -0.15625159236E+03  0.17593251273E+03  0.00000000000E+00 0.  1.
</event>
<event>
12    1  0.8449700E-002  0.1835812E+03  0.7818608E-02  0.1164628E+00
         21   -1    0    0  503  502  0.00000000000E+00  0.00000000000E+00  0.14510536782E+03  0.14510536782E+03  0.00000000000E+00 0. -1.
         21   -1    0    0  501  503 -0.00000000000E+00 -0.00000000000E+00 -0.23686153434E+03  0.23686153434E+03  0.00000000000E+00 0.  1.
          6    2    1    2  501    0 -0.27276705463E+02 -0.53358400864E+02 -0.15559286992E+02  0.18320066469E+03  0.17242173450E+03 0.  0.
         24    2    3    3    0    0  0.56978044340E+01 -0.81346977493E+01 -0.68933087629E+02  0.10571934939E+03  0.79537236449E+02 0.  0.
         -6    2    1    2    0  502  0.27276705463E+02  0.53358400864E+02 -0.76196879526E+02  0.19876623747E+03  0.17352496969E+03 0.  0.
        -24    2    5    5    0    0 -0.39748024147E+02 -0.10767979576E+02 -0.24644970812E+02  0.92539139520E+02  0.79121823469E+02 0.  0.
          5    1    3    3  501    0 -0.32974509897E+02 -0.45223703115E+02  0.53373800637E+02  0.77481315301E+02  0.47000000000E+01 0. -1.
        -13    1    4    4    0    0  0.40581617157E+02 -0.16967861680E+02 -0.34337143055E+02  0.55801571432E+02  0.00000000000E+00 0.  1.
         14    1    4    4    0    0 -0.34883812723E+02  0.88331639310E+01 -0.34595944574E+02  0.49917777956E+02  0.00000000000E+00 0. -1.
         -5    1    5    5    0  502  0.67024729610E+02  0.64126380440E+02 -0.51551908714E+02  0.10622709795E+03  0.47000000000E+01 0.  1.
         13    1    6    6    0    0 -0.96071633032E+01  0.16960328435E+02  0.22711642502E+02  0.29929400804E+02  0.00000000000E+00 0. -1.
        -14    1    6    6    0    0 -0.30140860843E+02 -0.27728308010E+02 -0.47356613314E+02  0.62609738716E+02  0.00000000000E+00 0.  1.
</event>
<event>
12    1  0.8449700E-002  0.2163290E+03  0.7818608E-02  0.1136813E+00
         21   -1    0    0  501  502  0.00000000000E+00  0.00000000000E+00  0.45493398233E+03  0.45493398233E+03  0.00000000000E+00 0. -1.
         21   -1    0    0  502  503 -0.00000000000E+00 -0.00000000000E+00 -0.12970306364E+03  0.12970306364E+03  0.00000000000E+00 0. -1.
         -6    2    1    2    0  503  0.79195749343E+02  0.10282635738E+03  0.28397136507E+02  0.21733808216E+03  0.17200063404E+03 0.  0.
        -24    2    3    3    0    0 -0.22056919173E+02  0.70261006317E+02  0.55548074529E+01  0.10845067716E+03  0.79420254338E+02 0.  0.
          6    2    1    2  501    0 -0.79195749343E+02 -0.10282635738E+03  0.29683378218E+03  0.36729896380E+03  0.17306937362E+03 0.  0.
         24    2    5    5    0    0  0.86164098281E+01 -0.46230140693E+02  0.21718885241E+03  0.23584740665E+03  0.79003374508E+02 0.  0.
          5    1    5    5  501    0 -0.87812159171E+02 -0.56596216683E+02  0.79644929764E+02  0.13145155715E+03  0.47000000000E+01 0. -1.
        -11    1    6    6    0    0  0.11777231312E+02 -0.68453712155E+02  0.16683940515E+03  0.18072078186E+03  0.00000000000E+00 0.  1.
         12    1    6    6    0    0 -0.31608214834E+01  0.22223571462E+02  0.50349447262E+02  0.55126624788E+02  0.00000000000E+00 0. -1.
         -5    1    3    3    0  503  0.10125266852E+03  0.32565351060E+02  0.22842329054E+02  0.10888740500E+03  0.47000000000E+01 0.  1.
         13    1    4    4    0    0  0.28350456376E+02  0.37166100219E+02  0.10625524227E+02  0.47937137455E+02  0.00000000000E+00 0. -1.
        -14    1    4    4    0    0 -0.50407375549E+02  0.33094906098E+02 -0.50707167740E+01  0.60513539708E+02  0.00000000000E+00 0.  1.
</event>
<event>
12    1  0.8449700E-002  0.1875652E+03  0.7818608E-02  0.1160747E+00
         21   -1    0    0  503  502  0.00000000000E+00  0.00000000000E+00  0.33150067885E+04  0.33150067885E+04  0.00000000000E+00 0. -1.
         21   -1    0    0  501  503 -0.00000000000E+00 -0.00000000000E+00 -0.14617520165E+02  0.14617520165E+02  0.00000000000E+00 0. -1.
          6    2    1    2  501    0 -0.10624395476E+02  0.71412911705E+02  0.25225266031E+04  0.25294674377E+04  0.17277839383E+03 0.  0.
         24    2    3    3    0    0  0.12381238067E+02 -0.15036453622E+02  0.17169135237E+04  0.17188890790E+04  0.80051408468E+02 0.  0.
         -6    2    1    2    0  502  0.10624395476E+02 -0.71412911705E+02  0.77786266525E+03  0.80015687096E+03  0.17311271018E+03 0.  0.
        -24    2    5    5    0    0 -0.52949937024E+02 -0.70063527169E+02  0.58004123197E+03  0.59231335758E+03  0.81698770557E+02 0.  0.
          5    1    3    3  501    0 -0.23005633543E+02  0.86449365327E+02  0.80561307939E+03  0.81057835872E+03  0.47000000000E+01 0. -1.
        -11    1    4    4    0    0  0.29362760518E+02  0.24975973839E+02  0.72601801009E+03  0.72704066045E+03  0.00000000000E+00 0.  1.
         12    1    4    4    0    0 -0.16981522452E+02 -0.40012427461E+02  0.99089551358E+03  0.99184841850E+03  0.00000000000E+00 0. -1.
         -5    1    5    5    0  502  0.63574332501E+02 -0.13493845358E+01  0.19782143328E+03  0.20784351338E+03  0.47000000000E+01 0.  1.
         11    1    6    6    0    0 -0.63333580354E+01 -0.72475822343E+02  0.32600608838E+03  0.33402518753E+03  0.00000000000E+00 0. -1.
        -12    1    6    6    0    0 -0.46616578989E+02  0.24122951736E+01  0.25403514359E+03  0.25828817004E+03  0.00000000000E+00 0.  1.
</event>
<event>
12    1  0.8449700E-002  0.1796837E+03  0.7818608E-02  0.1168329E+00
         21   -1    0    0  501  502  0.00000000000E+00  0.00000000000E+00  0.12058178142E+03  0.12058178142E+03  0.00000000000E+00 0.  1.
         21   -1    0    0  502  503 -0.00000000000E+00 -0.00000000000E+00 -0.62552587106E+03  0.62552587106E+03  0.00000000000E+00 0.  1.
         -6    2    1    2    0  503  0.46748058851E+02 -0.15130407110E+02 -0.53486154375E+03  0.56395029609E+03  0.17189751382E+03 0.  0.
        -24    2    3    3    0    0  0.33719434146E+02  0.56414068625E+02 -0.29645146502E+03  0.31465165448E+03  0.82478149699E+02 0.  0.
          6    2    1    2  501    0 -0.46748058851E+02  0.15130407110E+02  0.29917454103E+02  0.18215735639E+03  0.17283500283E+03 0.  0.
         24    2    5    5    0    0  0.21249692396E+02 -0.31198477984E+02  0.36703837923E+02  0.99463917873E+02  0.84386046151E+02 0.  0.
          5    1    5    5  501    0 -0.67997751247E+02  0.46328885094E+02 -0.67863838196E+01  0.82693438519E+02  0.47000000000E+01 0. -1.
        -13    1    6    6    0    0  0.44746977573E+01  0.18997123918E+02  0.41962135386E+02  0.46278876859E+02  0.00000000000E+00 0.  1.
         14    1    6    6    0    0  0.16774994638E+02 -0.50195601903E+02 -0.52582974630E+01  0.53185041014E+02  0.00000000000E+00 0. -1.
         -5    1    3    3    0  503  0.13028624705E+02 -0.71544475735E+02 -0.23841007873E+03  0.24929864161E+03  0.47000000000E+01 0.  1.
         11    1    4    4    0    0 -0.20500783219E+02  0.93516518262E+01 -0.14850229794E+03  0.15020209053E+03  0.00000000000E+00 0. -1.
        -12    1    4    4    0    0  0.54220217365E+02  0.47062416799E+02 -0.14794916708E+03  0.16444956395E+03  0.00000000000E+00 0.  1.
</event>
<event>
12    1  0.8449700E-002  0.2081471E+03  0.7818608E-02  0.1143188E+00
         21   -1    0    0  501  502  0.00000000000E+00  0.00000000000E+00  0.23136794035E+04  0.23136794035E+04  0.00000000000E+00 0. -1.
         21   -1    0    0  502  503 -0.00000000000E+00 -0.00000000000E+00 -0.18662275723E+02  0.18662275723E+02  0.00000000000E+00 0.  1.
         -6    2    1    2    0  503  0.11066234957E+03 -0.34446203263E+02  0.11328051131E+04  0.11516376648E+04  0.17201508705E+03 0.  0.
        -24    2    3    3    0    0 -0.63737783632E+01  0.11059506629E+02  0.45458704450E+03  0.46187679069E+03  0.80733208834E+02 0.  0.
          6    2    1    2  501    0 -0.11066234957E+03  0.34446203263E+02  0.11622120147E+04  0.11807040144E+04  0.17289449414E+03 0.  0.
         24    2    5    5    0    0 -0.14442210868E+03  0.13646590946E+02  0.10037087031E+04  0.10172484089E+04  0.79493331506E+02 0.  0.
          5    1    5    5  501    0  0.33759759111E+02  0.20799612317E+02  0.15850331154E+03  0.16345560552E+03  0.47000000000E+01 0. -1.
        -13    1    6    6    0    0 -0.25314694049E+02  0.21698516926E+02  0.93954437211E+02  0.99695013131E+02  0.00000000000E+00 0.  1.
         14    1    6    6    0    0 -0.11910741463E+03 -0.80519259796E+01  0.90975426593E+03  0.91755339578E+03  0.00000000000E+00 0. -1.
         -5    1    3    3    0  503  0.11703612793E+03 -0.45505709892E+02  0.67821806862E+03  0.68976087413E+03  0.47000000000E+01 0.  1.
         11    1    4    4    0    0 -0.24945753488E+02  0.33519995092E+02  0.37118217321E+03  0.37352655380E+03  0.00000000000E+00 0. -1.
        -12    1    4    4    0    0  0.18571975125E+02 -0.22460488463E+02  0.83404871299E+02  0.88350236890E+02  0.00000000000E+00 0.  1.
</event>
<event>
12    1  0.8449700E-002  0.1873399E+03  0.7818608E-02  0.1160912E+00
         21   -1    0    0  503  502  0.00000000000E+00  0.00000000000E+00  0.25505825523E+04  0.25505825523E+04  0.00000000000E+00 0.  1.
         21   -1    0    0  501  503 -0.00000000000E+00 -0.00000000000E+00 -0.14181157929E+02  0.14181157929E+02  0.00000000000E+00 0.  1.
          6    2    1    2  501    0 -0.34496067333E+02  0.67329430637E+02  0.10443549565E+04  0.10610021542E+04  0.17124562785E+03 0.  0.
         24    2    3    3    0    0  0.14157613781E+02  0.98922604856E+02  0.77374163586E+03  0.78420083795E+03  0.79427422218E+02 0.  0.
         -6    2    1    2    0  502  0.34496067333E+02 -0.67329430637E+02  0.14920464379E+04  0.15037615561E+04  0.17138557080E+03 0.  0.
        -24    2    5    5    0    0  0.84276615008E+02 -0.49198085751E+02  0.12242020995E+04  0.12306873388E+04  0.79984659499E+02 0.  0.
          5    1    3    3  501    0 -0.48653681114E+02 -0.31593174220E+02  0.27061332068E+03  0.27680131624E+03  0.47000000000E+01 0. -1.
        -13    1    4    4    0    0 -0.25854478624E+02  0.78661929851E+02  0.50182626239E+03  0.50861159139E+03  0.00000000000E+00 0.  1.
         14    1    4    4    0    0  0.40012092405E+02  0.20260675006E+02  0.27191537348E+03  0.27558924657E+03  0.00000000000E+00 0. -1.
         -5    1    5    5    0  502 -0.49780547675E+02 -0.18131344885E+02  0.26784433831E+03  0.27307421731E+03  0.47000000000E+01 0.  1.
         11    1    6    6    0    0  0.13225280280E+02 -0.19044219462E+02  0.66706979069E+02  0.70621607103E+02  0.00000000000E+00 0. -1.
        -12    1    6    6    0    0  0.71051334727E+02 -0.30153866290E+02  0.11574951205E+04  0.11600657317E+04  0.00000000000E+00 0.  1.
</event>
<event>
12    1  0.8449700E-002  0.1742358E+03  0.7818608E-02  0.1174033E+00
         21   -1    0    0  501  502  0.00000000000E+00  0.00000000000E+00  0.55723400046E+02  0.55723400046E+02  0.00000000000E+00 0.  1.
         21   -1    0    0  502  503 -0.00000000000E+00 -0.00000000000E+00 -0.71935924063E+03  0.71935924063E+03  0.00000000000E+00 0.  1.
         -6    2    1    2    0  503 -0.20844585889E+02  0.17995809651E+02 -0.52775520500E+03  0.55577304007E+03  0.17204583614E+03 0.  0.
        -24    2    3    3    0    0  0.19507809272E+02  0.61710752551E+02 -0.22498379305E+03  0.24717632926E+03  0.79307370438E+02 0.  0.
          6    2    1    2  501    0  0.20844585889E+02 -0.17995809651E+02 -0.13588063558E+03  0.21930960060E+03  0.16992588933E+03 0.  0.
         24    2    5    5    0    0  0.72715089254E+02  0.27042682362E+01 -0.55963755847E+02  0.12169894540E+03  0.79899274532E+02 0.  0.
          5    1    5    5  501    0 -0.51870503365E+02 -0.20700077887E+02 -0.79916879728E+02  0.97610655204E+02  0.47000000000E+01 0. -1.
        -11    1    6    6    0    0  0.17446072842E+02  0.37523080791E+02 -0.12459385425E+02  0.43215545060E+02  0.00000000000E+00 0.  1.
         12    1    6    6    0    0  0.55269016412E+02 -0.34818812555E+02 -0.43504370422E+02  0.78483400339E+02  0.00000000000E+00 0. -1.
         -5    1    3    3    0  503 -0.40352395161E+02 -0.43714942900E+02 -0.30277141195E+03  0.30859671081E+03  0.47000000000E+01 0.  1.
         13    1    4    4    0    0 -0.12962705557E+02 -0.54558501144E+01 -0.50654034072E+01  0.14948456358E+02  0.00000000000E+00 0. -1.
        -14    1    4    4    0    0  0.32470514829E+02  0.67166602666E+02 -0.21991838964E+03  0.23222787290E+03  0.00000000000E+00 0.  1.
</event>
<event>
12    1  0.8449700E-002  0.2127590E+03  0.7818608E-02  0.1139567E+00
         21   -1    0    0  501  502  0.00000000000E+00  0.00000000000E+00  0.27538832635E+03  0.27538832635E+03  0.00000000000E+00 0. -1.
         21   -1    0    0  502  503 -0.00000000000E+00 -0.00000000000E+00 -0.21403039569E+03  0.21403039569E+03  0.00000000000E+00 0. -1.
         -6    2    1    2    0  503  0.85621703882E+02  0.90369561061E+02  0.14937997294E+03  0.25996303754E+03  0.17253599865E+03 0.  0.
        -24    2    3    3    0    0  0.62668904828E+02  0.10622008829E+03  0.17027180895E+03  0.22479730123E+03  0.79569082737E+02 0.  0.
          6    2    1    2  501    0 -0.85621703882E+02 -0.90369561061E+02 -0.88022042279E+02  0.22945568449E+03  0.17147681324E+03 0.  0.
         24    2    5    5    0    0 -0.52105105441E+02 -0.32635114533E+02  0.20290625992E+02  0.10213580076E+03  0.78993794564E+02 0.  0.
          5    1    5    5  501    0 -0.33516598441E+02 -0.57734446528E+02 -0.10831266827E+03  0.12731988374E+03  0.47000000000E+01 0. -1.
        -13    1    6    6    0    0 -0.48282256108E+02  0.48769698201E+01 -0.14689555972E+02  0.50702506290E+02  0.00000000000E+00 0.  1.
         14    1    6    6    0    0 -0.38228493335E+01 -0.37512084353E+02  0.34980181963E+02  0.51433294467E+02  0.00000000000E+00 0. -1.
         -5    1    3    3    0  503  0.22952799054E+02 -0.15850527230E+02 -0.20891836015E+02  0.35165736306E+02  0.47000000000E+01 0.  1.
         11    1    4    4    0    0  0.24014009181E+02  0.63925024425E+02  0.14859742533E+03  0.16353677324E+03  0.00000000000E+00 0. -1.
        -12    1    4    4    0    0  0.38654895647E+02  0.42295063866E+02  0.21674383620E+02  0.61260527996E+02  0.00000000000E+00 0.  1.
</event>
<event>
12    1  0.8449700E-002  0.1934508E+03  0.7818608E-02  0.1155416E+00
         21   -1    0    0  501  502  0.00000000000E+00  0.00000000000E+00  0.12370813157E+03  0.12370813157E+03  0.00000000000E+00 0.  1.
         21   -1    0    0  502  503 -0.00000000000E+00 -0.00000000000E+00 -0.43288355082E+03  0.43288355082E+03  0.00000000000E+00 0. -1.
         -6    2    1    2    0  503 -0.78533528740E+02 -0.40958497948E+02 -0.30740277677E+03  0.36313275115E+03  0.17182495192E+03 0.  0.
        -24    2    3    3    0    0 -0.91464785000E+02  0.14377352403E+02 -0.26460649267E+03  0.29183839194E+03  0.81120502286E+02 0.  0.
          6    2    1    2  501    0  0.78533528740E+02  0.40958497948E+02 -0.17726424813E+01  0.19345893124E+03  0.17198285416E+03 0.  0.
         24    2    5    5    0    0  0.10619768746E+02  0.77358796867E+02 -0.25364253308E+02  0.11273771557E+03  0.77261143047E+02 0.  0.
          5    1    5    5  501    0  0.67913759994E+02 -0.36400298919E+02  0.23591610827E+02  0.80721215670E+02  0.47000000000E+01 0. -1.
        -11    1    6    6    0    0  0.18711340335E+02  0.11383440028E+02  0.22058664401E+02  0.31085071001E+02  0.00000000000E+00 0.  1.
         12    1    6    6    0    0 -0.80915715887E+01  0.65975356840E+02 -0.47422917710E+02  0.81652644568E+02  0.00000000000E+00 0. -1.
         -5    1    3    3    0  503  0.12931256260E+02 -0.55335850351E+02 -0.42796284102E+02  0.71294359213E+02  0.47000000000E+01 0.  1.
         13    1    4    4    0    0 -0.48885929093E+01 -0.26607705070E+02 -0.66406648753E+02  0.71705727166E+02  0.00000000000E+00 0. -1.
        -14    1    4    4    0    0 -0.86576192090E+02  0.40985057473E+02 -0.19819984392E+03  0.22013266478E+03  0.00000000000E+00 0.  1.
</event>
<event>
12    1  0.8449700E-002  0.1944616E+03  0.7818608E-02  0.1155046E+00
         21   -1    0    0  503  502  0.00000000000E+00  0.00000000000E+00  0.81721287139E+02  0.81721287139E+02  0.00000000000E+00 0.  1.
         21   -1    0    0  501  503 -0.00000000000E+00 -0.00000000000E+00 -0.47453420460E+03  0.47453420460E+03  0.00000000000E+00 0.  1.
          6    2    1    2  501    0 -0.71455444644E+02 -0.59146218552E+02 -0.24890410862E+03  0.31433598385E+03  0.16807646986E+03 0.  0.
         24    2    3    3    0    0 -0.95603454640E+02 -0.88327030775E+02 -0.17619601995E+03  0.23221897985E+03  0.77064468148E+02 0.  0.
         -6    2    1    2    0  502  0.71455444644E+02  0.59146218552E+02 -0.14390880884E+03  0.24191950788E+03  0.17091268910E+03 0.  0.
        -24    2    5    5    0    0  0.32323608557E+02  0.96290800252E+02 -0.13572244810E+03  0.18714609237E+03  0.79286462185E+02 0.  0.
          5    1    3    3  501    0  0.24148009996E+02  0.29180812223E+02 -0.72708088673E+02  0.82117004008E+02  0.47000000000E+01 0. -1.
        -11    1    4    4    0    0 -0.39759262392E+02 -0.51584711639E+02 -0.30494370752E+02  0.71914449650E+02  0.00000000000E+00 0.  1.
         12    1    4    4    0    0 -0.55844192248E+02 -0.36742319136E+02 -0.14570164920E+03  0.16030453020E+03  0.00000000000E+00 0. -1.
         -5    1    5    5    0  502  0.39131836087E+02 -0.37144581700E+02 -0.81863607369E+01  0.54773415516E+02  0.47000000000E+01 0.  1.
         11    1    6    6    0    0  0.15723092979E+02  0.10771679942E+02 -0.83346783182E+02  0.85498134532E+02  0.00000000000E+00 0. -1.
        -12    1    6    6    0    0  0.16600515578E+02  0.85519120311E+02 -0.52375664921E+02  0.10164795783E+03  0.00000000000E+00 0.  1.
</event>
<event>
12    1  0.8449700E-002  0.1799727E+03  0.7818608E-02  0.1167949E+00
         21   -1    0    0  503  502  0.00000000000E+00  0.00000000000E+00  0.13921625786E+03  0.13921625786E+03  0.00000000000E+00 0.  1.
         21   -1    0    0  501  503 -0.00000000000E+00 -0.00000000000E+00 -0.30294401404E+03  0.30294401404E+03  0.00000000000E+00 0.  1.
          6    2    1    2  501    0 -0.24718385230E+02  0.43650185341E+02 -0.18891807816E+03  0.26092184882E+03  0.17284048625E+03 0.  0.
         24    2    3    3    0    0 -0.46670371992E+01 -0.35408933495E+02 -0.13945577854E+03  0.16541787030E+03  0.81483641553E+02 0.  0.
         -6    2    1    2    0  502  0.24718385230E+02 -0.43650185341E+02  0.25190321983E+02  0.18123842308E+03  0.17232665618E+03 0.  0.
        -24    2    5    5    0    0 -0.25801343039E+02 -0.75078632599E+02  0.41123511679E+02  0.11946507304E+03  0.79235409311E+02 0.  0.
          5    1    3    3  501    0 -0.20051348031E+02  0.79059118836E+02 -0.49462299624E+02  0.95503978519E+02  0.47000000000E+01 0. -1.
        -11    1    4    4    0    0 -0.36063370333E+02 -0.14784690789E+02 -0.11283493938E+03  0.11937703844E+03  0.00000000000E+00 0.  1.
         12    1    4    4    0    0  0.31396333133E+02 -0.20624242706E+02 -0.26620839160E+02  0.46040831867E+02  0.00000000000E+00 0. -1.
         -5    1    5    5    0  502  0.50519728269E+02  0.31428447258E+02 -0.15933189696E+02  0.61773350041E+02  0.47000000000E+01 0.  1.
         13    1    6    6    0    0 -0.35485828564E+02 -0.35139085908E+00  0.47859999238E+01  0.35808843875E+02  0.00000000000E+00 0. -1.
        -14    1    6    6    0    0  0.96844855249E+01 -0.74727241740E+02  0.36337511755E+02  0.83656229167E+02  0.00000000000E+00 0.  1.
</event>
<event>
12    1  0.8449700E-002  0.1915373E+03  0.7818608E-02  0.1157239E+00
         21   -1    0    0  503  502  0.00000000000E+00  0.00000000000E+00  0.80778456672E+02  0.80778456672E+02  0.00000000000E+00 0. -1.
         21   -1    0    0  501  503 -0.00000000000E+00 -0.00000000000E+00 -0.45944835703E+03  0.45944835703E+03  0.00000000000E+00 0. -1.
          6    2    1    2  501    0 -0.79346546381E+02 -0.26431484890E+02 -0.15646385354E+03  0.24732057424E+03  0.17231375790E+03 0.  0.
         24    2    3    3    0    0 -0.85959530138E+02 -0.64647202316E+02 -0.16036974269E+03  0.20805839673E+03  0.77469610117E+02 0.  0.
         -6    2    1    2    0  502  0.79346546381E+02  0.26431484890E+02 -0.22220604681E+03  0.29290623946E+03  0.17153436990E+03 0.  0.
        -24    2    5    5    0    0  0.86579463463E+02 -0.48635587434E+01 -0.23113895187E+03  0.25923753532E+03  0.79115276331E+02 0.  0.
          5    1    3    3  501    0  0.66129837569E+01  0.38215717426E+02  0.39058891503E+01  0.39262177507E+02  0.47000000000E+01 0. -1.
        -13    1    4    4    0    0 -0.32444988442E+02 -0.48314105804E+02 -0.13422743388E+03  0.14630083425E+03  0.00000000000E+00 0.  1.
         14    1    4    4    0    0 -0.53514541695E+02 -0.16333096511E+02 -0.26142308811E+02  0.61757562488E+02  0.00000000000E+00 0. -1.
         -5    1    5    5    0  502 -0.72329170819E+01  0.31295043633E+02  0.89329050600E+01  0.33668704138E+02  0.47000000000E+01 0.  1.
         13    1    6    6    0    0  0.10083927538E+03  0.96869797090E+00 -0.18655406106E+03  0.21206582830E+03  0.00000000000E+00 0. -1.
        -14    1    6    6    0    0 -0.14259811918E+02 -0.58322567143E+01 -0.44584890814E+02  0.47171707020E+02  0.00000000000E+00 0.  1.
</event>
<event>
12    1  0.8449700E-002  0.1917201E+03  0.7818608E-02  0.1157326E+00
         21   -1    0    0  503  502  0.00000000000E+00  0.00000000000E+00  0.34028895633E+03  0.34028895633E+03  0.00000000000E+00 0. -1.
         21   -1    0    0  501  503 -0.00000000000E+00 -0.00000000000E+00 -0.13690693740E+03  0.13690693740E+03  0.00000000000E+00 0. -1.
          6    2    1    2  501    0  0.76595443853E+02 -0.29139010886E+02 -0.94566665404E+01  0.19195321297E+03  0.17332242628E+03 0.  0.
         24    2    3    3    0    0  0.46156163075E+02 -0.83472823449E+02 -0.26008098240E+02  0.12734088525E+03  0.80256938870E+02 0.  0.
         -6    2    1    2    0  502 -0.76595443853E+02  0.29139010886E+02  0.21283868548E+03  0.28524268077E+03  0.17131006077E+03 0.  0.
        -24    2    5    5    0    0 -0.30108661523E+02  0.80377690450E+02  0.15721333568E+03  0.19634558996E+03  0.80426694316E+02 0.  0.
          5    1    3    3  501    0  0.30439280779E+02  0.54333812563E+02  0.16551431699E+02  0.64612327719E+02  0.47000000000E+01 0. -1.
        -11    1    4    4    0    0 -0.12551005792E+02  0.86395589581E+01 -0.90915004718E+00  0.15264215642E+02  0.00000000000E+00 0.  1.
         12    1    4    4    0    0  0.58707168866E+02 -0.92112382407E+02 -0.25098948193E+02  0.11207666960E+03  0.00000000000E+00 0. -1.
         -5    1    5    5    0  502 -0.46486782330E+02 -0.51238679564E+02  0.55625349792E+02  0.88897090809E+02  0.47000000000E+01 0.  1.
         11    1    6    6    0    0 -0.54625172242E+02  0.68506224304E+02  0.13617343299E+03  0.16192657615E+03  0.00000000000E+00 0. -1.
        -12    1    6    6    0    0  0.24516510719E+02  0.11871466146E+02  0.21039902694E+02  0.34419013810E+02  0.00000000000E+00 0.  1.
</event>
<event>
12    1  0.8449700E-002  0.2491235E+03  0.7818608E-02  0.1113873E+00
         21   -1    0    0  501  502  0.00000000000E+00  0.00000000000E+00  0.85098631071E+03  0.85098631071E+03  0.00000000000E+00 0.  1.
         21   -1    0    0  502  503 -0.00000000000E+00 -0.00000000000E+00 -0.26380311469E+03  0.26380311469E+03  0.00000000000E+00 0. -1.
         -6    2    1    2    0  503  0.80333766320E+02  0.16173297951E+03 -0.18057824629E+03  0.30762142887E+03  0.17149743379E+03 0.  0.
        -24    2    3    3    0    0  0.89042749495E+02  0.70774867226E+02 -0.45838891173E+02  0.14475335835E+03  0.76906682036E+02 0.  0.
          6    2    1    2  501    0 -0.80333766320E+02 -0.16173297951E+03  0.76776144231E+03  0.80716799652E+03  0.17161431071E+03 0.  0.
         24    2    5    5    0    0 -0.10155762123E+03 -0.78088509132E+02  0.60521224299E+03  0.62307241906E+03  0.74334478130E+02 0.  0.
          5    1    5    5  501    0  0.21223854908E+02 -0.83644470378E+02  0.16254919932E+03  0.18409557746E+03  0.47000000000E+01 0. -1.
        -13    1    6    6    0    0  0.24297412644E+01  0.10552473997E+02  0.31368957269E+02  0.33185385793E+02  0.00000000000E+00 0.  1.
         14    1    6    6    0    0 -0.10398736249E+03 -0.88640983129E+02  0.57384328572E+03  0.58988703326E+03  0.00000000000E+00 0. -1.
         -5    1    3    3    0  503 -0.87089831747E+01  0.90958112284E+02 -0.13473935512E+03  0.16286807052E+03  0.47000000000E+01 0.  1.
         11    1    4    4    0    0  0.79111772119E+02  0.54744266100E+02 -0.66368305022E+02  0.11687753878E+03  0.00000000000E+00 0. -1.
        -12    1    4    4    0    0  0.99309773763E+01  0.16030601125E+02  0.20529413849E+02  0.27875819577E+02  0.00000000000E+00 0.  1.
</event>
<event>
12    1  0.8449700E-002  0.2201325E+03  0.7818608E-02  0.1134301E+00
         21   -1    0    0  503  502  0.00000000000E+00  0.00000000000E+00  0.23285342058E+03  0.23285342058E+03  0.00000000000E+00 0. -1.
         21   -1    0    0  501  503 -0.00000000000E+00 -0.00000000000E+00 -0.24501489363E+03  0.24501489363E+03  0.00000000000E+00 0. -1.
          6    2    1    2  501    0  0.15415701494E+02  0.13674123162E+03 -0.10198908014E+03  0.24011360521E+03  0.16827644714E+03 0.  0.
         24    2    3    3    0    0  0.70438110677E+02  0.52346833304E+02 -0.76569820828E+02  0.13610346762E+03  0.70423703698E+02 0.  0.
         -6    2    1    2    0  502 -0.15415701494E+02 -0.13674123162E+03  0.89827607090E+02  0.23775470900E+03  0.17182111157E+03 0.  0.
        -24    2    5    5    0    0 -0.51320961049E+02 -0.52803391190E+02  0.96803657426E+02  0.14607317325E+03  0.80897371332E+02 0.  0.
          5    1    3    3  501    0 -0.55022409183E+02  0.84394398312E+02 -0.25419259310E+02  0.10401013760E+03  0.47000000000E+01 0. -1.
        -11    1    4    4    0    0  0.45156427672E+02  0.68215908409E+02 -0.48358096928E+02  0.95031671871E+02  0.00000000000E+00 0.  1.
         12    1    4    4    0    0  0.25281683005E+02 -0.15869075105E+02 -0.28211723899E+02  0.41071795744E+02  0.00000000000E+00 0. -1.
         -5    1    5    5    0  502  0.35905259555E+02 -0.83937840426E+02 -0.69760503354E+01  0.91681535749E+02  0.47000000000E+01 0.  1.
         11    1    6    6    0    0 -0.36093813803E+02 -0.64232900818E+02  0.35317213142E+02  0.81706391956E+02  0.00000000000E+00 0. -1.
        -12    1    6    6    0    0 -0.15227147246E+02  0.11429509628E+02  0.61486444284E+02  0.64366781295E+02  0.00000000000E+00 0.  1.
</event>
<event>
12    1  0.8449700E-002  0.2774200E+03  0.7818608E-02  0.1097132E+00
         21   -1    0    0  503  502  0.00000000000E+00  0.00000000000E+00  0.96491936373E+02  0.96491936373E+02  0.00000000000E+00 0. -1.
         21   -1    0    0  501  503 -0.00000000000E+00 -0.00000000000E+00 -0.79724597625E+03  0.79724597625E+03  0.00000000000E+00 0. -1.
          6    2    1    2  501    0 -0.14040866964E+03 -0.16641937895E+03 -0.34374767259E+03  0.44161469316E+03  0.17161314228E+03 0.  0.
         24    2    3    3    0    0 -0.12330715119E+03 -0.88954709162E+02 -0.13672174659E+03  0.21986018693E+03  0.80796485008E+02 0.  0.
         -6    2    1    2    0  502  0.14040866964E+03  0.16641937895E+03 -0.35700636729E+03  0.45212321947E+03  0.17190653010E+03 0.  0.
        -24    2    5    5    0    0  0.21813919090E+02  0.71201688888E+02 -0.22932491838E+03  0.25348846481E+03  0.78236539011E+02 0.  0.
          5    1    3    3  501    0 -0.17101518458E+02 -0.77464669788E+02 -0.20702592599E+03  0.22175450623E+03  0.47000000000E+01 0. -1.
        -13    1    4    4    0    0 -0.84263392389E+02 -0.29845365045E+02 -0.11521525533E+03  0.14582736428E+03  0.00000000000E+00 0.  1.
         14    1    4    4    0    0 -0.39043758797E+02 -0.59109344117E+02 -0.21506491257E+02  0.74032822647E+02  0.00000000000E+00 0. -1.
         -5    1    5    5    0  502  0.11859475055E+03  0.95217690062E+02 -0.12768144891E+03  0.19863475465E+03  0.47000000000E+01 0.  1.
         11    1    6    6    0    0  0.42356316882E+02  0.75340686931E+02 -0.19459994451E+03  0.21293054053E+03  0.00000000000E+00 0. -1.
        -12    1    6    6    0    0 -0.20542397792E+02 -0.41389980435E+01 -0.34724973871E+02  0.40557924284E+02  0.00000000000E+00 0.  1.
</event>
<event>
12    1  0.8449700E-002  0.1907081E+03  0.7818608E-02  0.1162179E+00
         21   -1    0    0  503  502  0.00000000000E+00  0.00000000000E+00  0.10398191891E+04  0.10398191891E+04  0.00000000000E+00 0.  1.
         21   -1    0    0  501  503 -0.00000000000E+00 -0.00000000000E+00 -0.47073442526E+02  0.47073442526E+02  0.00000000000E+00 0.  1.
          6    2    1    2  501    0  0.29687764747E+02 -0.77850398049E+02  0.16901705087E+03  0.24137589845E+03  0.15084267638E+03 0.  0.
         24    2    3    3    0    0  0.31756796877E+02 -0.14826672741E+01  0.12887604535E+03  0.15494846345E+03  0.79933089579E+02 0.  0.
         -6    2    1    2    0  502 -0.29687764747E+02  0.77850398049E+02  0.82372869569E+03  0.84551673316E+03  0.17154455426E+03 0.  0.
        -24    2    5    5    0    0 -0.60569498176E+02  0.34046095131E+02  0.28410355859E+03  0.30321619194E+03  0.79983913069E+02 0.  0.
          5    1    3    3  501    0 -0.20690321294E+01 -0.76367730774E+02  0.40141005525E+02  0.86427435009E+02  0.47000000000E+01 0. -1.
        -13    1    4    4    0    0  0.22765012209E+02 -0.22551296860E+02  0.95400909987E+01  0.33433816821E+02  0.00000000000E+00 0.  1.
         14    1    4    4    0    0  0.89917846681E+01  0.21068629586E+02  0.11933595435E+03  0.12151464662E+03  0.00000000000E+00 0. -1.
         -5    1    5    5    0  502  0.30881733428E+02  0.43804302918E+02  0.53962513710E+03  0.54230054122E+03  0.47000000000E+01 0.  1.
         13    1    6    6    0    0  0.19743956797E+02  0.83514208807E+01  0.65152160563E+02  0.68588439892E+02  0.00000000000E+00 0. -1.
        -14    1    6    6    0    0 -0.80313454973E+02  0.25694674250E+02  0.21895139803E+03  0.23462775205E+03  0.00000000000E+00 0.  1.
</event>
<event>
12    1  0.8449700E-002  0.1948245E+03  0.7818608E-02  0.1155691E+00
         21   -1    0    0  501  502  0.00000000000E+00  0.00000000000E+00  0.39022034848E+03  0.39022034848E+03  0.00000000000E+00 0. -1.
         21   -1    0    0  502  503 -0.00000000000E+00 -0.00000000000E+00 -0.98155084495E+02  0.98155084495E+02  0.00000000000E+00 0. -1.
         -6    2    1    2    0  503 -0.52130508995E+02  0.53825049462E+02  0.97732341551E+02  0.21796376570E+03  0.17983844599E+03 0.  0.
        -24    2    3    3    0    0 -0.44215807197E+02  0.67136040917E+02 -0.69293340898E+01  0.11205823541E+03  0.77760831123E+02 0.  0.
          6    2    1    2  501    0  0.52130508995E+02 -0.53825049462E+02  0.19433292243E+03  0.27041166727E+03  0.17246002185E+03 0.  0.
         24    2    5    5    0    0  0.22345238189E+02 -0.10196101272E+03  0.12603191309E+03  0.18157838976E+03  0.78684882459E+02 0.  0.
          5    1    5    5  501    0  0.29785270806E+02  0.48135963255E+02  0.68301009336E+02  0.88833277502E+02  0.47000000000E+01 0. -1.
        -11    1    6    6    0    0  0.28689840158E+02 -0.52787110753E+02  0.18010158183E+02  0.62721222786E+02  0.00000000000E+00 0.  1.
         12    1    6    6    0    0 -0.63446019685E+01 -0.49173901963E+02  0.10802175491E+03  0.11885716698E+03  0.00000000000E+00 0. -1.
         -5    1    3    3    0  503 -0.79147017979E+01 -0.13310991456E+02  0.10466167564E+03  0.10590553029E+03  0.47000000000E+01 0.  1.
         13    1    4    4    0    0  0.17894102764E+02  0.36910573327E+02 -0.12167330351E+02  0.42785900306E+02  0.00000000000E+00 0. -1.
        -14    1    4    4    0    0 -0.62109909961E+02  0.30225467590E+02  0.52379962617E+01  0.69272335108E+02  0.00000000000E+00 0.  1.
</event>
<event>
12    1  0.8449700E-002  0.2166542E+03  0.7818608E-02  0.1137110E+00
         21   -1    0    0  503  502  0.00000000000E+00  0.00000000000E+00  0.12437816131E+04  0.12437816131E+04  0.00000000000E+00 0. -1.
         21   -1    0    0  501  503 -0.00000000000E+00 -0.00000000000E+00 -0.74302008671E+02  0.74302008671E+02  0.00000000000E+00 0.  1.
          6    2    1    2  501    0 -0.10252812989E+03  0.73538465163E+02  0.11590837228E+03  0.24246688531E+03  0.17156781874E+03 0.  0.
         24    2    3    3    0    0 -0.12286562767E+03  0.12457040322E+02  0.65187242613E+02  0.16037378406E+03  0.78862118280E+02 0.  0.
         -6    2    1    2    0  502  0.10252812989E+03 -0.73538465163E+02  0.10535712322E+04  0.10756167365E+04  0.17612239858E+03 0.  0.
        -24    2    5    5    0    0 -0.12874126833E+02 -0.58797264034E+02  0.50145655099E+03  0.51135820085E+03  0.80035464922E+02 0.  0.
          5    1    3    3  501    0  0.20337497781E+02  0.61081424840E+02  0.50721129671E+02  0.82093101242E+02  0.47000000000E+01 0. -1.
        -11    1    4    4    0    0 -0.56667476301E+02  0.25029323973E+02 -0.61397527925E+01  0.62252441665E+02  0.00000000000E+00 0.  1.
         12    1    4    4    0    0 -0.66198151368E+02 -0.12572283651E+02  0.71326995406E+02  0.98121342400E+02  0.00000000000E+00 0. -1.
         -5    1    5    5    0  502  0.11540225672E+03 -0.14741201129E+02  0.55211468118E+03  0.56425853564E+03  0.47000000000E+01 0.  1.
         13    1    6    6    0    0 -0.32858111497E+02  0.37381088405E+01  0.21090735445E+03  0.21348428774E+03  0.00000000000E+00 0. -1.
        -14    1    6    6    0    0  0.19983984663E+02 -0.62535372874E+02  0.29054919653E+03  0.29787391311E+03  0.00000000000E+00 0.  1.
</event>
<event>
12    1  0.8449700E-002  0.2680486E+03  0.7818608E-02  0.1102615E+00
         21   -1    0    0  501  502  0.00000000000E+00  0.00000000000E+00  0.13372100871E+04  0.13372100871E+04  0.00000000000E+00 0.  1.
         21   -1    0    0  502  503 -0.00000000000E+00 -0.00000000000E+00 -0.74351021297E+02  0.74351021297E+02  0.00000000000E+00 0. -1.
         -6    2    1    2    0  503 -0.17531485646E+03  0.10620551422E+03  0.25585860942E+03  0.36949587561E+03  0.17043668600E+03 0.  0.
        -24    2    3    3    0    0 -0.33228721920E+02  0.93005316133E+01  0.48353065848E+02  0.99941269096E+02  0.80371577332E+02 0.  0.
          6    2    1    2  501    0  0.17531485646E+03 -0.10620551422E+03  0.10070004563E+04  0.10420652327E+04  0.17272845760E+03 0.  0.
         24    2    5    5    0    0  0.87756450375E+02 -0.11372164402E+03  0.46855708040E+03  0.49647717772E+03  0.79435782264E+02 0.  0.
          5    1    5    5  501    0  0.87558406088E+02  0.75161297997E+01  0.53844337595E+03  0.54558805502E+03  0.47000000000E+01 0. -1.
        -13    1    6    6    0    0  0.57510077632E+02 -0.40276147330E+02  0.32415014417E+03  0.33166684042E+03  0.00000000000E+00 0.  1.
         14    1    6    6    0    0  0.30246372743E+02 -0.73445496689E+02  0.14440693624E+03  0.16481033730E+03  0.00000000000E+00 0. -1.
         -5    1    3    3    0  503 -0.14208613454E+03  0.96904982605E+02  0.20750554357E+03  0.26955460652E+03  0.47000000000E+01 0.  1.
         11    1    4    4    0    0 -0.56059987517E+02 -0.88463391493E+01  0.22787478851E+02  0.61157576057E+02  0.00000000000E+00 0. -1.
        -12    1    4    4    0    0  0.22831265597E+02  0.18146870763E+02  0.25565586996E+02  0.38783693039E+02  0.00000000000E+00 0.  1.
</event>
<event>
12    1  0.8449700E-002  0.1838119E+03  0.7818608E-02  0.1164311E+00
         21   -1    0    0  503  502  0.00000000000E+00  0.00000000000E+00  0.45874888137E+03  0.45874888137E+03  0.00000000000E+00 0. -1.
         21   -1    0    0  501  503 -0.00000000000E+00 -0.00000000000E+00 -0.13406216564E+03  0.13406216564E+03  0.00000000000E+00 0. -1.
          6    2    1    2  501    0 -0.12904993228E+02 -0.60968850859E+02 -0.36889823533E+02  0.18747714649E+03  0.17292507553E+03 0.  0.
         24    2    3    3    0    0 -0.27169231406E+02 -0.51588106654E+02 -0.88888063309E+02  0.13254651940E+03  0.79170651896E+02 0.  0.
         -6    2    1    2    0  502  0.12904993228E+02  0.60968850859E+02  0.36157653926E+03  0.40533390053E+03  0.17226211874E+03 0.  0.
        -24    2    5    5    0    0  0.62746718538E+02  0.22378953923E+02  0.29971692803E+03  0.31689138118E+03  0.78434318082E+02 0.  0.
          5    1    3    3  501    0  0.14264238178E+02 -0.93807442042E+01  0.51998239776E+02  0.54930627090E+02  0.47000000000E+01 0. -1.
        -11    1    4    4    0    0 -0.11116243147E+02  0.20778992932E+02 -0.28168653595E+02  0.36726154908E+02  0.00000000000E+00 0.  1.
         12    1    4    4    0    0 -0.16052988259E+02 -0.72367099586E+02 -0.60719409714E+02  0.95820364488E+02  0.00000000000E+00 0. -1.
         -5    1    5    5    0  502 -0.49841725311E+02  0.38589896935E+02  0.61859611227E+02  0.88442519348E+02  0.47000000000E+01 0.  1.
         13    1    6    6    0    0  0.16000344019E+02  0.39085034822E+02  0.21141488188E+03  0.21559198323E+03  0.00000000000E+00 0. -1.
        -14    1    6    6    0    0  0.46746374519E+02 -0.16706080898E+02  0.88302046158E+02  0.10129939795E+03  0.00000000000E+00 0.  1.
</event>
<event>
12    1  0.8449700E-002  0.1866575E+03  0.7818608E-02  0.1161702E+00
         21   -1    0    0  501  502  0.00000000000E+00  0.00000000000E+00  0.33727845795E+03  0.33727845795E+03  0.00000000000E+00 0.  1.
         21   -1    0    0  502  503 -0.00000000000E+00 -0.00000000000E+00 -0.34447905872E+03  0.34447905872E+03  0.00000000000E+00 0.  1.
         -6    2    1    2    0  503  0.22708268569E+02  0.68465345403E+02 -0.28909294850E+03  0.34366827891E+03  0.17125998971E+03 0.  0.
        -24    2    3    3    0    0  0.23423561285E+02  0.81676642119E+02 -0.30266441602E+03  0.32414074104E+03  0.79004646624E+02 0.  0.
          6    2    1    2  501    0 -0.22708268569E+02 -0.68465345403E+02  0.28189234773E+03  0.33808923775E+03  0.17215652178E+03 0.  0.
         24    2    5    5    0    0 -0.56234892920E+02 -0.91955046744E+02  0.14659876861E+03  0.19665995097E+03  0.74604581304E+02 0.  0.
          5    1    5    5  501    0  0.33526624351E+02  0.23489701341E+02  0.13529357912E+03  0.14142928678E+03  0.47000000000E+01 0. -1.
        -11    1    6    6    0    0 -0.16571119817E+02 -0.61602333000E+02  0.12863229362E+03  0.14358174120E+03  0.00000000000E+00 0.  1.
         12    1    6    6    0    0 -0.39663773103E+02 -0.30352713745E+02  0.17966474989E+02  0.53078209766E+02  0.00000000000E+00 0. -1.
         -5    1    3    3    0  503 -0.71529271588E+00 -0.13211296716E+02  0.13571467519E+02  0.19527537869E+02  0.47000000000E+01 0.  1.
         13    1    4    4    0    0  0.80189135484E+01  0.77862925453E+02 -0.13752482476E+03  0.15824037272E+03  0.00000000000E+00 0. -1.
        -14    1    4    4    0    0  0.15404647737E+02  0.38137166662E+01 -0.16513959126E+03  0.16590036832E+03  0.00000000000E+00 0.  1.
</event>
<event>
12    1  0.8449700E-002  0.2534051E+03  0.7818608E-02  0.1111778E+00
         21   -1    0    0  501  502  0.00000000000E+00  0.00000000000E+00  0.90433719235E+03  0.90433719235E+03  0.00000000000E+00 0.  1.
         21   -1    0    0  502  503 -0.00000000000E+00 -0.00000000000E+00 -0.10650153893E+03  0.10650153893E+03  0.00000000000E+00 0.  1.
         -6    2    1    2    0  503 -0.80595477851E+02  0.16774961957E+03  0.10474966885E+03  0.27420185860E+03  0.17198430226E+03 0.  0.
        -24    2    3    3    0    0 -0.14618899511E+02  0.15804581178E+03  0.43579604057E+02  0.18358762351E+03  0.81320617140E+02 0.  0.
          6    2    1    2  501    0  0.80595477851E+02 -0.16774961957E+03  0.69308598457E+03  0.73663687268E+03  0.16622314598E+03 0.  0.
         24    2    5    5    0    0  0.68874953859E+02 -0.69996093638E+02  0.53953980711E+03  0.55417690138E+03  0.79784849222E+02 0.  0.
          5    1    5    5  501    0  0.11720523992E+02 -0.97753525929E+02  0.15354617746E+03  0.18245997130E+03  0.47000000000E+01 0. -1.
        -11    1    6    6    0    0  0.57989152610E+00 -0.56730917774E+02  0.22617052251E+03  0.23317769739E+03  0.00000000000E+00 0.  1.
         12    1    6    6    0    0  0.68295062333E+02 -0.13265175864E+02  0.31336928460E+03  0.32099920399E+03  0.00000000000E+00 0. -1.
         -5    1    3    3    0  503 -0.65976578339E+02  0.97038077843E+01  0.61170064792E+02  0.90614235093E+02  0.47000000000E+01 0.  1.
         11    1    4    4    0    0 -0.42674366496E+01  0.16456797846E+02  0.37864060269E+02  0.41505713715E+02  0.00000000000E+00 0. -1.
        -12    1    4    4    0    0 -0.10351462862E+02  0.14158901394E+03  0.57155437882E+01  0.14208190980E+03  0.00000000000E+00 0.  1.
</event>
<event>
12    1  0.8449700E-002  0.2606282E+03  0.7818608E-02  0.1106883E+00
         21   -1    0    0  501  502  0.00000000000E+00  0.00000000000E+00  0.53706008891E+03  0.53706008891E+03  0.00000000000E+00 0.  1.
         21   -1    0    0  502  503 -0.00000000000E+00 -0.00000000000E+00 -0.57834645272E+03  0.57834645272E+03  0.00000000000E+00 0.  1.
         -6    2    1    2    0  503  0.87946506134E+02  0.17429391610E+03 -0.51381822582E+03  0.57613906060E+03  0.17266757318E+03 0.  0.
        -24    2    3    3    0    0  0.10329408787E+03  0.88602399970E+02 -0.22735677183E+03  0.27670486278E+03  0.79714650584E+02 0.  0.
          6    2    1    2  501    0 -0.87946506134E+02 -0.17429391610E+03  0.47253186201E+03  0.53926748103E+03  0.17149372685E+03 0.  0.
         24    2    5    5    0    0 -0.28157770067E+01 -0.21221600154E+02  0.12153351437E+03  0.14696618738E+03  0.79814661594E+02 0.  0.
          5    1    5    5  501    0 -0.85130729128E+02 -0.15307231595E+03  0.35099834764E+03  0.39230129365E+03  0.47000000000E+01 0. -1.
        -11    1    6    6    0    0 -0.11212797871E+02 -0.28529963673E+02  0.12962743674E+03  0.13320269524E+03  0.00000000000E+00 0.  1.
         12    1    6    6    0    0  0.83970208639E+01  0.73083635191E+01 -0.80939223682E+01  0.13763492145E+02  0.00000000000E+00 0. -1.
         -5    1    3    3    0  503 -0.15347581735E+02  0.85691516130E+02 -0.28646145399E+03  0.29943419782E+03  0.47000000000E+01 0.  1.
         13    1    4    4    0    0  0.54461498546E+02 -0.18773003582E+01 -0.88385261380E+02  0.10383416350E+03  0.00000000000E+00 0. -1.
        -14    1    4    4    0    0  0.48832589323E+02  0.90479700328E+02 -0.13897151045E+03  0.17287069928E+03  0.00000000000E+00 0.  1.
</event>
<event>
12    1  0.8449700E-002  0.2137840E+03  0.7818608E-02  0.1138752E+00
         21   -1    0    0  503  502  0.00000000000E+00  0.00000000000E+00  0.81383383239E+03  0.81383383239E+03  0.00000000000E+00 0.  1.
         21   -1    0    0  501  503 -0.00000000000E+00 -0.00000000000E+00 -0.84936667231E+02  0.84936667231E+02  0.00000000000E+00 0.  1.
          6    2    1    2  501    0 -0.10449600751E+03  0.69133271553E+02  0.10153262406E+03  0.23598104886E+03  0.17227697713E+03 0.  0.
         24    2    3    3    0    0 -0.70466855551E+02  0.11047954859E+03  0.10004793616E+03  0.18220566316E+03  0.77575806605E+02 0.  0.
         -6    2    1    2    0  502  0.10449600751E+03 -0.69133271553E+02  0.62736454110E+03  0.66278945077E+03  0.17321883211E+03 0.  0.
        -24    2    5    5    0    0  0.98729184415E+01 -0.35813350258E+02  0.16435700288E+03  0.18901543651E+03  0.85636092081E+02 0.  0.
          5    1    3    3  501    0 -0.34029151960E+02 -0.41346277040E+02  0.14846879009E+01  0.53775385692E+02  0.47000000000E+01 0. -1.
        -13    1    4    4    0    0 -0.85726259921E+02  0.76477550407E+02  0.72265129466E+02  0.13572050800E+03  0.00000000000E+00 0.  1.
         14    1    4    4    0    0  0.15259404370E+02  0.34001998186E+02  0.27782806693E+02  0.46485155159E+02  0.00000000000E+00 0. -1.
         -5    1    5    5    0  502  0.94623089069E+02 -0.33319921295E+02  0.46300753822E+03  0.47377401426E+03  0.47000000000E+01 0.  1.
         13    1    6    6    0    0 -0.10142727430E+02 -0.15172466370E+02  0.15865792088E+03  0.15970414682E+03  0.00000000000E+00 0. -1.
        -14    1    6    6    0    0  0.20015645872E+02 -0.20640883888E+02  0.56990820054E+01  0.29311289686E+02  0.00000000000E+00 0.  1.
</event>
<event>
12    1  0.8449700E-002  0.2126763E+03  0.7818608E-02  0.1139543E+00
         21   -1    0    0  501  502  0.00000000000E+00  0.00000000000E+00  0.23554209685E+04  0.23554209685E+04  0.00000000000E+00 0. -1.
         21   -1    0    0  502  503 -0.00000000000E+00 -0.00000000000E+00 -0.40236936139E+02  0.40236936139E+02  0.00000000000E+00 0. -1.
         -6    2    1    2    0  503 -0.10402690985E+03  0.69663103946E+02  0.29131634117E+03  0.36068880946E+03  0.17192050667E+03 0.  0.
        -24    2    3    3    0    0 -0.13255004758E+03  0.89310807818E+02  0.24942508105E+03  0.30613086477E+03  0.77183546201E+02 0.  0.
          6    2    1    2  501    0  0.10402690985E+03 -0.69663103946E+02  0.20238676912E+04  0.20349690952E+04  0.17141832128E+03 0.  0.
         24    2    5    5    0    0  0.22935730379E+00 -0.74458702369E+00  0.54748318991E+03  0.55332913233E+03  0.80216447430E+02 0.  0.
          5    1    5    5  501    0  0.10379755255E+03 -0.68918516922E+02  0.14763845013E+04  0.14816399628E+04  0.47000000000E+01 0. -1.
        -11    1    6    6    0    0 -0.29806846958E+01  0.74767303823E+00  0.54932849826E+03  0.54933709368E+03  0.00000000000E+00 0.  1.
         12    1    6    6    0    0  0.32100419995E+01 -0.14922600619E+01 -0.18453083439E+01  0.39920386540E+01  0.00000000000E+00 0. -1.
         -5    1    3    3    0  503  0.28523137734E+02 -0.19647703872E+02  0.41891260123E+02  0.54557944686E+02  0.47000000000E+01 0.  1.
         13    1    4    4    0    0 -0.63609768029E+02  0.65186246560E+02  0.78447491311E+02  0.12020589928E+03  0.00000000000E+00 0. -1.
        -14    1    4    4    0    0 -0.68940279554E+02  0.24124561258E+02  0.17097758974E+03  0.18592496549E+03  0.00000000000E+00 0.  1.
</event>
<event>
12    1  0.8449700E-002  0.2135920E+03  0.7818608E-02  0.1138908E+00
         21   -1    0    0  501  502  0.00000000000E+00  0.00000000000E+00  0.49842341422E+03  0.49842341422E+03  0.00000000000E+00 0. -1.
         21   -1    0    0  502  503 -0.00000000000E+00 -0.00000000000E+00 -0.97322017555E+02  0.97322017555E+02  0.00000000000E+00 0.  1.
         -6    2    1    2    0  503 -0.12562319074E+03 -0.92718022748E+01  0.12541493881E+03  0.24699829626E+03  0.17149956008E+03 0.  0.
        -24    2    3    3    0    0 -0.13083418649E+03 -0.56771998473E+02  0.83412082319E+02  0.18320367995E+03  0.79154082064E+02 0.  0.
          6    2    1    2  501    0  0.12562319074E+03  0.92718022748E+01  0.27568645785E+03  0.34874713552E+03  0.17249460606E+03 0.  0.
         24    2    5    5    0    0  0.95162326128E+02  0.56585224759E+02  0.11429537756E+03  0.17776294029E+03  0.79236819934E+02 0.  0.
          5    1    5    5  501    0  0.30460864612E+02 -0.47313422484E+02  0.16139108030E+03  0.17098419523E+03  0.47000000000E+01 0. -1.
        -13    1    6    6    0    0  0.36463692390E+02  0.15250172942E+02 -0.36432256464E+01  0.39691834558E+02  0.00000000000E+00 0.  1.
         14    1    6    6    0    0  0.58698633738E+02  0.41335051817E+02  0.11793860320E+03  0.13807110573E+03  0.00000000000E+00 0. -1.
         -5    1    3    3    0  503  0.52109957482E+01  0.47500196198E+02  0.42002856495E+02  0.63794616304E+02  0.47000000000E+01 0.  1.
         13    1    4    4    0    0 -0.10927415821E+03 -0.20020791812E+02  0.86038332279E+02  0.14051429955E+03  0.00000000000E+00 0. -1.
        -14    1    4    4    0    0 -0.21560028283E+02 -0.36751206661E+02 -0.26262499603E+01  0.42689380406E+02  0.00000000000E+00 0.  1.
</event>
<event>
12    1  0.8449700E-002  0.2836219E+03  0.7818608E-02  0.1093763E+00
         21   -1    0    0  503  502  0.00000000000E+00  0.00000000000E+00  0.10518964255E+03  0.10518964255E+03  0.00000000000E+00 0.  1.
         21   -1    0    0  501  503 -0.00000000000E+00 -0.00000000000E+00 -0.77202583749E+03  0.77202583749E+03  0.00000000000E+00 0. -1.
          6    2    1    2  501    0 -0.11161889520E+03  0.19531470966E+03 -0.28857486432E+03  0.40443324472E+03  0.17229098507E+03 0.  0.
         24    2    3    3    0    0 -0.10888148744E+03  0.19313774785E+03 -0.18216251936E+03  0.29785975024E+03  0.79874147259E+02 0.  0.
         -6    2    1    2    0  502  0.11161889520E+03 -0.19531470966E+03 -0.37826133062E+03  0.47278223533E+03  0.17272751439E+03 0.  0.
        -24    2    5    5    0    0  0.11571241133E+03 -0.15313928218E+03 -0.19731469825E+03  0.28688092463E+03  0.80787207433E+02 0.  0.
          5    1    3    3  501    0 -0.27374077646E+01  0.21769618044E+01 -0.10641234496E+03  0.10657349448E+03  0.47000000000E+01 0. -1.
        -13    1    4    4    0    0 -0.46776188872E+02  0.19206391748E+02 -0.46563931595E+02  0.68739341392E+02  0.00000000000E+00 0.  1.
         14    1    4    4    0    0 -0.62105298566E+02  0.17393135611E+03 -0.13559858776E+03  0.22912040885E+03  0.00000000000E+00 0. -1.
         -5    1    5    5    0  502 -0.40935161285E+01 -0.42175427478E+02 -0.18094663236E+03  0.18590131070E+03  0.47000000000E+01 0.  1.
         11    1    6    6    0    0  0.10048442124E+02  0.90205146161E+01 -0.21572714747E+02  0.25450400677E+02  0.00000000000E+00 0. -1.
        -12    1    6    6    0    0  0.10566396921E+03 -0.16215979680E+03 -0.17574198351E+03  0.26143052395E+03  0.00000000000E+00 0.  1.
</event>
<event>
12    1  0.8449700E-002  0.2387171E+03  0.7818608E-02  0.1120703E+00
         21   -1    0    0  501  502  0.00000000000E+00  0.00000000000E+00  0.11621569569E+03  0.11621569569E+03  0.00000000000E+00 0.  1.
         21   -1    0    0  502  503 -0.00000000000E+00 -0.00000000000E+00 -0.10331241413E+04  0.10331241413E+04  0.00000000000E+00 0. -1.
         -6    2    1    2    0  503 -0.79222607308E+02 -0.14584454872E+03 -0.87509533983E+03  0.90698850434E+03  0.17114157680E+03 0.  0.
        -24    2    3    3    0    0 -0.83404503617E+02 -0.12267286594E+03 -0.86423111862E+03  0.88063444503E+03  0.81342830758E+02 0.  0.
          6    2    1    2  501    0  0.79222607308E+02  0.14584454872E+03 -0.41813105807E+02  0.24235133267E+03  0.17157790863E+03 0.  0.
         24    2    5    5    0    0  0.95495695507E+02  0.41744201192E+02 -0.86501088470E+01  0.13179107705E+03  0.80200108569E+02 0.  0.
          5    1    5    5  501    0 -0.16273088199E+02  0.10410034753E+03 -0.33162996960E+02  0.11056025562E+03  0.47000000000E+01 0. -1.
        -13    1    6    6    0    0  0.35424210098E+02  0.53734567520E+02  0.15071932456E+02  0.66101751532E+02  0.00000000000E+00 0.  1.
         14    1    6    6    0    0  0.60071485409E+02 -0.11990366328E+02 -0.23722041303E+02  0.65689325522E+02  0.00000000000E+00 0. -1.
         -5    1    3    3    0  503  0.41818963084E+01 -0.23171682785E+02 -0.10864221212E+02  0.26354059315E+02  0.47000000000E+01 0.  1.
         13    1    4    4    0    0 -0.11860105452E+02 -0.71368815995E+02 -0.25461540088E+03  0.26469448873E+03  0.00000000000E+00 0. -1.
        -14    1    4    4    0    0 -0.71544398164E+02 -0.51304049941E+02 -0.60961571774E+03  0.61593995630E+03  0.00000000000E+00 0.  1.
</event>
<event>
12    1  0.8449700E-002  0.1950764E+03  0.7818608E-02  0.1154069E+00
         21   -1    0    0  501  502  0.00000000000E+00  0.00000000000E+00  0.21142864374E+03  0.21142864374E+03  0.00000000000E+00 0. -1.
         21   -1    0    0  502  503 -0.00000000000E+00 -0.00000000000E+00 -0.18794550757E+03  0.18794550757E+03  0.00000000000E+00 0. -1.
         -6    2    1    2    0  503  0.51291216235E+02  0.76886549264E+02  0.53973826732E+02  0.20192925688E+03  0.17123060617E+03 0.  0.
        -24    2    3    3    0    0 -0.25983691799E+02  0.58336025672E+02  0.65010492844E+02  0.12155866937E+03  0.80448131043E+02 0.  0.
          6    2    1    2  501    0 -0.51291216235E+02 -0.76886549264E+02 -0.30490690555E+02  0.19744489443E+03  0.17179194919E+03 0.  0.
         24    2    5    5    0    0 -0.14050407899E+02  0.13153776490E+02 -0.52278696324E+02  0.97490178372E+02  0.80005231027E+02 0.  0.
          5    1    5    5  501    0 -0.37240808336E+02 -0.90040325754E+02  0.21788005769E+02  0.99954716061E+02  0.47000000000E+01 0. -1.
        -13    1    6    6    0    0  0.95881822849E+01  0.53993805605E+01  0.19021130217E+02  0.21974756988E+02  0.00000000000E+00 0.  1.
         14    1    6    6    0    0 -0.23638590184E+02  0.77543959294E+01 -0.71299826540E+02  0.75515421384E+02  0.00000000000E+00 0. -1.
         -5    1    3    3    0  503  0.77274908035E+02  0.18550523592E+02 -0.11036666113E+02  0.80370587507E+02  0.47000000000E+01 0.  1.
         13    1    4    4    0    0  0.95831322671E+01  0.19371560323E+02  0.65318806911E+02  0.68801455724E+02  0.00000000000E+00 0. -1.
        -14    1    4    4    0    0 -0.35566824066E+02  0.38964465349E+02 -0.30831406686E+00  0.52757213646E+02  0.00000000000E+00 0.  1.
</event>
<event>
12    1  0.8449700E-002  0.1736693E+03  0.7818608E-02  0.1174195E+00
         21   -1    0    0  501  502  0.00000000000E+00  0.00000000000E+00  0.15728965760E+04  0.15728965760E+04  0.00000000000E+00 0.  1.
         21   -1    0    0  502  503 -0.00000000000E+00 -0.00000000000E+00 -0.19147116522E+02  0.19147116522E+02  0.00000000000E+00 0.  1.
         -6    2    1    2    0  503  0.11369872297E+02  0.12165904324E+02  0.80616601020E+03  0.82466033702E+03  0.17286917661E+03 0.  0.
        -24    2    3    3    0    0 -0.45008509866E+02 -0.33897776546E+02  0.38617609660E+03  0.39838108325E+03  0.80004279179E+02 0.  0.
          6    2    1    2  501    0 -0.11369872297E+02 -0.12165904324E+02  0.74758344930E+03  0.76738335553E+03  0.17239175575E+03 0.  0.
         24    2    5    5    0    0 -0.37874762480E+02 -0.22370637864E+02  0.72765515766E+03  0.73237089206E+03  0.70357316619E+02 0.  0.
          5    1    5    5  501    0  0.26504890183E+02  0.10204733540E+02  0.19928291642E+02  0.35012463467E+02  0.47000000000E+01 0. -1.
        -11    1    6    6    0    0 -0.17554232068E+02 -0.43518206141E+02  0.29362810149E+03  0.29735407735E+03  0.00000000000E+00 0.  1.
         12    1    6    6    0    0 -0.20320530413E+02  0.21147568277E+02  0.43402705617E+03  0.43501681472E+03  0.00000000000E+00 0. -1.
         -5    1    3    3    0  503  0.56378382163E+02  0.46063680870E+02  0.41998991360E+03  0.42627925377E+03  0.47000000000E+01 0.  1.
         11    1    4    4    0    0 -0.49406118787E+02 -0.52641077072E+01  0.11013227280E+03  0.12082132641E+03  0.00000000000E+00 0. -1.
        -12    1    4    4    0    0  0.43976089218E+01 -0.28633668839E+02  0.27604382381E+03  0.27755975684E+03  0.00000000000E+00 0.  1.
</event>
<event>
12    1  0.8449700E-002  0.1913025E+03  0.7818608E-02  0.1157637E+00
         21   -1    0    0  501  502  0.00000000000E+00  0.00000000000E+00  0.22391655932E+03  0.22391655932E+03  0.00000000000E+00 0.  1.
         21   -1    0    0  502  503 -0.00000000000E+00 -0.00000000000E+00 -0.34448307388E+03  0.34448307388E+03  0.00000000000E+00 0.  1.
         -6    2    1    2    0  503 -0.33447973555E+02 -0.72834702551E+02 -0.26717211067E+03  0.32859941156E+03  0.17370370096E+03 0.  0.
        -24    2    3    3    0    0  0.38587935887E+02 -0.25720564282E+01 -0.14893917875E+03  0.17327031616E+03  0.79649728332E+02 0.  0.
          6    2    1    2  501    0  0.33447973555E+02  0.72834702551E+02  0.14660559610E+03  0.23980022164E+03  0.17200954817E+03 0.  0.
         24    2    5    5    0    0 -0.81657547924E+01  0.24476687927E+02  0.15352417406E+03  0.17545617230E+03  0.80928416350E+02 0.  0.
          5    1    5    5  501    0  0.41613728347E+02  0.48358014625E+02 -0.69185779614E+01  0.64344049347E+02  0.47000000000E+01 0. -1.
        -11    1    6    6    0    0  0.35569247216E+02  0.14681226758E+02  0.54017479077E+02  0.66321925579E+02  0.00000000000E+00 0.  1.
         12    1    6    6    0    0 -0.43735002009E+02  0.97954611682E+01  0.99506694984E+02  0.10913424672E+03  0.00000000000E+00 0. -1.
         -5    1    3    3    0  503 -0.72035909442E+02 -0.70262646123E+02 -0.11823293192E+03  0.15532909540E+03  0.47000000000E+01 0.  1.
         13    1    4    4    0    0 -0.12548815962E+02 -0.18130325416E+02 -0.96335917670E+01  0.24062160586E+02  0.00000000000E+00 0. -1.
        -14    1    4    4    0    0  0.51136751849E+02  0.15558268988E+02 -0.13930558698E+03  0.14920815557E+03  0.00000000000E+00 0.  1.
</event>
<event>
12    1  0.8449700E-002  0.2682953E+03  0.7818608E-02  0.1102622E+00
         21   -1    0    0  501  502  0.00000000000E+00  0.00000000000E+00  0.74291411165E+03  0.74291411165E+03  0.00000000000E+00 0.  1.
         21   -1    0    0  502  503 -0.00000000000E+00 -0.00000000000E+00 -0.96592332780E+02  0.96592332780E+02  0.00000000000E+00 0.  1.
         -6    2    1    2    0  503  0.11948094350E+03 -0.16729456608E+03  0.35782975001E+03  0.44724099138E+03  0.17239259462E+03 0.  0.
        -24    2    3    3    0    0  0.47194550935E+02 -0.44506916362E+02  0.67108203043E+02  0.12344593684E+03  0.80791071073E+02 0.  0.
          6    2    1    2  501    0 -0.11948094350E+03  0.16729456608E+03  0.28849202886E+03  0.39226545304E+03  0.16846770384E+03 0.  0.
         24    2    5    5    0    0 -0.74798274411E+02  0.14657487254E+03  0.12304384602E+03  0.21957776436E+03  0.77431462879E+02 0.  0.
          5    1    5    5  501    0 -0.44682669092E+02  0.20719693541E+02  0.16544818284E+03  0.17268768868E+03  0.47000000000E+01 0. -1.
        -11    1    6    6    0    0  0.98771023990E+01  0.13733625878E+01 -0.18847267051E+01  0.10148668452E+02  0.00000000000E+00 0.  1.
         12    1    6    6    0    0 -0.84675376810E+02  0.14520150995E+03  0.12492857272E+03  0.20942909591E+03  0.00000000000E+00 0. -1.
         -5    1    3    3    0  503  0.72286392568E+02 -0.12278764972E+03  0.29072154697E+03  0.32379505454E+03  0.47000000000E+01 0.  1.
         13    1    4    4    0    0  0.15192470194E+02  0.50866193624E+01 -0.15252087267E+02  0.22120375519E+02  0.00000000000E+00 0. -1.
        -14    1    4    4    0    0  0.32002080741E+02 -0.49593535724E+02  0.82360290310E+02  0.10132556132E+03  0.00000000000E+00 0.  1.
</event>
<event>
12    1  0.8449700E-002  0.1981709E+03  0.7818608E-02  0.1151539E+00
         21   -1    0    0  503  502  0.00000000000E+00  0.00000000000E+00  0.33173799553E+03  0.33173799553E+03  0.00000000000E+00 0.  1.
         21   -1    0    0  501  503 -0.00000000000E+00 -0.00000000000E+00 -0.12310150917E+03  0.12310150917E+03  0.00000000000E+00 0.  1.
          6    2    1    2  501    0  0.88000616360E+02 -0.39111299147E+02  0.56933818001E+02  0.20618722228E+03  0.17319904388E+03 0.  0.
         24    2    3    3    0    0  0.94221703758E+02 -0.62821605426E+02  0.89451028912E+02  0.16519527725E+03  0.80397198240E+02 0.  0.
         -6    2    1    2    0  502 -0.88000616360E+02  0.39111299147E+02  0.15170266837E+03  0.24865228241E+03  0.17187337129E+03 0.  0.
        -24    2    5    5    0    0 -0.41051317006E+02  0.58841797349E+02  0.22012472417E+02  0.10924221752E+03  0.79383533575E+02 0.  0.
          5    1    3    3  501    0 -0.62210873979E+01  0.23710306279E+02 -0.32517210912E+02  0.40991945035E+02  0.47000000000E+01 0. -1.
        -11    1    4    4    0    0  0.33214404076E+02 -0.36225354542E+02 -0.52721484680E+01  0.49429429485E+02  0.00000000000E+00 0.  1.
         12    1    4    4    0    0  0.61007299682E+02 -0.26596250884E+02  0.94723177380E+02  0.11576584776E+03  0.00000000000E+00 0. -1.
         -5    1    5    5    0  502 -0.46949299354E+02 -0.19730498202E+02  0.12969019595E+03  0.13941006490E+03  0.47000000000E+01 0.  1.
         11    1    6    6    0    0  0.22167123496E+02  0.21812280546E+02 -0.43011419458E+01  0.31395171105E+02  0.00000000000E+00 0. -1.
        -12    1    6    6    0    0 -0.63218440502E+02  0.37029516803E+02  0.26313614363E+02  0.77847046412E+02  0.00000000000E+00 0.  1.
</event>
<event>
12    1  0.8449700E-002  0.1904758E+03  0.7818608E-02  0.1158145E+00
         21   -1    0    0  503  502  0.00000000000E+00  0.00000000000E+00  0.11699035286E+04  0.11699035286E+04  0.00000000000E+00 0.  1.
         21   -1    0    0  501  503 -0.00000000000E+00 -0.00000000000E+00 -0.35823928590E+02  0.35823928590E+02  0.00000000000E+00 0. -1.
          6    2    1    2  501    0 -0.43491869745E+02 -0.65225805642E+02  0.34488238167E+03  0.39398587883E+03  0.17359454794E+03 0.  0.
         24    2    3    3    0    0 -0.61995704071E+02 -0.10403072706E+03  0.29001518233E+03  0.32412377626E+03  0.79256273343E+02 0.  0.
         -6    2    1    2    0  502  0.43491869745E+02  0.65225805642E+02  0.78919721837E+03  0.81174157839E+03  0.17304968115E+03 0.  0.
        -24    2    5    5    0    0  0.57625951196E+02  0.69618756256E+02  0.31248712100E+03  0.33477860582E+03  0.79126434557E+02 0.  0.
          5    1    3    3  501    0  0.18503834325E+02  0.38804921419E+02  0.54867199342E+02  0.69862102565E+02  0.47000000000E+01 0. -1.
        -13    1    4    4    0    0 -0.30914163866E+02  0.28514629804E+01  0.41570325569E+02  0.51883603735E+02  0.00000000000E+00 0.  1.
         14    1    4    4    0    0 -0.31081540204E+02 -0.10688219004E+03  0.24844485676E+03  0.27224017253E+03  0.00000000000E+00 0. -1.
         -5    1    5    5    0  502 -0.14134081451E+02 -0.43929506145E+01  0.47671009737E+03  0.47696297257E+03  0.47000000000E+01 0.  1.
         13    1    6    6    0    0  0.98234845242E+01  0.50598996280E+02  0.70207080365E+02  0.87096460354E+02  0.00000000000E+00 0. -1.
        -14    1    6    6    0    0  0.47802466672E+02  0.19019759976E+02  0.24228004064E+03  0.24768214546E+03  0.00000000000E+00 0.  1.
</event>
<event>
12    1  0.8449700E-002  0.2090249E+03  0.7818608E-02  0.1142404E+00
         21   -1    0    0  501  502  0.00000000000E+00  0.00000000000E+00  0.10305599909E+04  0.10305599909E+04  0.00000000000E+00 0.  1.
         21   -1    0    0  502  503 -0.00000000000E+00 -0.00000000000E+00 -0.42872727338E+02  0.42872727338E+02  0.00000000000E+00 0. -1.
         -6    2    1    2    0  503 -0.11822847220E+03 -0.70338814349E+01  0.43313273153E+03  0.48079275053E+03  0.17184370432E+03 0.  0.
        -24    2    3    3    0    0 -0.39483479460E+01 -0.36135892712E+02  0.22803027175E+03  0.24415804710E+03  0.79334449865E+02 0.  0.
          6    2    1    2  501    0  0.11822847220E+03  0.70338814349E+01  0.55455453203E+03  0.59263996771E+03  0.17223227107E+03 0.  0.
         24    2    5    5    0    0  0.60962057346E+02 -0.45791444011E+02  0.18735038335E+03  0.21723227720E+03  0.79224158795E+02 0.  0.
          5    1    5    5  501    0  0.57266414858E+02  0.52825325445E+02  0.36720414869E+03  0.37540769051E+03  0.47000000000E+01 0. -1.
        -13    1    6    6    0    0 -0.73158704018E+01 -0.28964042210E+02  0.10387184119E+03  0.10808236254E+03  0.00000000000E+00 0.  1.
         14    1    6    6    0    0  0.68277927748E+02 -0.16827401800E+02  0.83478542162E+02  0.10914991466E+03  0.00000000000E+00 0. -1.
         -5    1    3    3    0  503 -0.11428012426E+03  0.29102011277E+02  0.20510245978E+03  0.23663470343E+03  0.47000000000E+01 0.  1.
         11    1    4    4    0    0 -0.37165958461E+02 -0.12560942102E+02  0.63340552600E+02  0.74505780571E+02  0.00000000000E+00 0. -1.
        -12    1    4    4    0    0  0.33217610515E+02 -0.23574950610E+02  0.16468971915E+03  0.16965226653E+03  0.00000000000E+00 0.  1.
</event>
<event>
12    1  0.8449700E-002  0.2539669E+03  0.7818608E-02  0.1112736E+00
         21   -1    0    0  501  502  0.00000000000E+00  0.00000000000E+00  0.69523449403E+02  0.69523449403E+02  0.00000000000E+00 0.  1.
         21   -1    0    0  502  503 -0.00000000000E+00 -0.00000000000E+00 -0.88432261304E+03  0.88432261304E+03  0.00000000000E+00 0. -1.
         -6    2    1    2    0  503 -0.92552872611E+02 -0.16304731994E+03 -0.42059596275E+03  0.49132488414E+03  0.17131466697E+03 0.  0.
        -24    2    3    3    0    0 -0.26122830632E+02 -0.13202715601E+03 -0.17432690163E+03  0.23433122368E+03  0.80047995333E+02 0.  0.
          6    2    1    2  501    0  0.92552872611E+02  0.16304731994E+03 -0.39420320089E+03  0.46252117831E+03  0.15290262923E+03 0.  0.
         24    2    5    5    0    0  0.56000632202E+02  0.17408963889E+03 -0.29718753309E+03  0.35815581584E+03  0.80696254037E+02 0.  0.
          5    1    5    5  501    0  0.36552240410E+02 -0.11042318949E+02 -0.97015667792E+02  0.10436536247E+03  0.47000000000E+01 0. -1.
        -13    1    6    6    0    0 -0.14204304894E+02  0.30587176127E+01 -0.15781158997E+02  0.21451410449E+02  0.00000000000E+00 0.  1.
         14    1    6    6    0    0  0.70204937095E+02  0.17103092127E+03 -0.28140637410E+03  0.33670440539E+03  0.00000000000E+00 0. -1.
         -5    1    3    3    0  503 -0.66430041979E+02 -0.31020163934E+02 -0.24626906113E+03  0.25699366046E+03  0.47000000000E+01 0.  1.
         11    1    4    4    0    0 -0.12941458373E+02 -0.19232822976E+02 -0.89855881492E+02  0.92797964757E+02  0.00000000000E+00 0. -1.
        -12    1    4    4    0    0 -0.13181372260E+02 -0.11279433303E+03 -0.84471020134E+02  0.14153325892E+03  0.00000000000E+00 0.  1.
</event>
<event>
12    1  0.8449700E-002  0.1915342E+03  0.7818608E-02  0.1157231E+00
         21   -1    0    0  501  502  0.00000000000E+00  0.00000000000E+00  0.61992457045E+02  0.61992457045E+02  0.00000000000E+00 0.  1.
         21   -1    0    0  502  503 -0.00000000000E+00 -0.00000000000E+00 -0.13398697322E+04  0.13398697322E+04  0.00000000000E+00 0.  1.
         -6    2    1    2    0  503  0.68822427637E+02  0.46842132578E+02 -0.11629133991E+04  0.11784745158E+04  0.17176698942E+03 0.  0.
        -24    2    3    3    0    0  0.61347436936E+02 -0.36577007071E+02 -0.67347039069E+03  0.68189503896E+03  0.79480133031E+02 0.  0.
          6    2    1    2  501    0 -0.68822427637E+02 -0.46842132578E+02 -0.11496387609E+03  0.22338767348E+03  0.17249535625E+03 0.  0.
         24    2    5    5    0    0 -0.50441770852E+02 -0.95350905433E+02 -0.57363921725E+02  0.14572948440E+03  0.79437369639E+02 0.  0.
          5    1    5    5  501    0 -0.18380656785E+02  0.48508772855E+02 -0.57599954366E+02  0.77658189077E+02  0.47000000000E+01 0. -1.
        -13    1    6    6    0    0  0.13062823526E+02 -0.38296479103E+02 -0.43203712684E+02  0.59193060909E+02  0.00000000000E+00 0.  1.
         14    1    6    6    0    0 -0.63504594378E+02 -0.57054426330E+02 -0.14160209041E+02  0.86536423494E+02  0.00000000000E+00 0. -1.
         -5    1    3    3    0  503  0.74749907010E+01  0.83419139648E+02 -0.48944300836E+03  0.49657947680E+03  0.47000000000E+01 0.  1.
         11    1    4    4    0    0  0.45325238956E+02  0.66725556896E+01 -0.50967534202E+03  0.51173025565E+03  0.00000000000E+00 0. -1.
        -12    1    4    4    0    0  0.16022197979E+02 -0.43249562760E+02 -0.16379504868E+03  0.17016478331E+03  0.00000000000E+00 0.  1.
</event>
<event>
12    1  0.8449700E-002  0.1845853E+03  0.7818608E-02  0.1163769E+00
         21   -1    0    0  503  502  0.00000000000E+00  0.00000000000E+00  0.13516433085E+04  0.13516433085E+04  0.00000000000E+00 0. -1.
         21   -1    0    0  501  503 -0.00000000000E+00 -0.00000000000E+00 -0.66697782886E+02  0.66697782886E+02  0.00000000000E+00 0. -1.
          6    2    1    2  501    0  0.57358614322E+02  0.28017180621E+02  0.82774936124E+02  0.20229542293E+03  0.17319577085E+03 0.  0.
         24    2    3    3    0    0  0.95322552295E+02  0.50765860499E+02  0.82656391758E+02  0.15778849004E+03  0.80009792663E+02 0.  0.
         -6    2    1    2    0  502 -0.57358614322E+02 -0.28017180621E+02  0.12021705894E+04  0.12160456684E+04  0.17169149218E+03 0.  0.
        -24    2    5    5    0    0  0.65859049622E+01 -0.33544557063E+02  0.10019282798E+04  0.10057161032E+04  0.80224627652E+02 0.  0.
          5    1    3    3  501    0 -0.37963937973E+02 -0.22748679878E+02  0.11854436524E+00  0.44506932891E+02  0.47000000000E+01 0. -1.
        -13    1    4    4    0    0  0.86241866692E+02  0.80016663382E+01  0.72392621524E+02  0.11288214157E+03  0.00000000000E+00 0.  1.
         14    1    4    4    0    0  0.90806856033E+01  0.42764194161E+02  0.10263770234E+02  0.44906348468E+02  0.00000000000E+00 0. -1.
         -5    1    5    5    0  502 -0.63944519285E+02  0.55273764420E+01  0.20024230961E+03  0.21032956520E+03  0.47000000000E+01 0.  1.
         13    1    6    6    0    0 -0.28799823659E+02 -0.12275773364E+02  0.73005291507E+03  0.73072387621E+03  0.00000000000E+00 0. -1.
        -14    1    6    6    0    0  0.35385728621E+02 -0.21268783699E+02  0.27187536476E+03  0.27499222700E+03  0.00000000000E+00 0.  1.
</event>
<event>
12    1  0.8449700E-002  0.2806993E+03  0.7818608E-02  0.1095337E+00
         21   -1    0    0  501  502  0.00000000000E+00  0.00000000000E+00  0.38159579092E+03  0.38159579092E+03  0.00000000000E+00 0.  1.
         21   -1    0    0  502  503 -0.00000000000E+00 -0.00000000000E+00 -0.22597870685E+03  0.22597870685E+03  0.00000000000E+00 0.  1.
         -6    2    1    2    0  503  0.13460712545E+03  0.17632004700E+03 -0.11812403245E+02  0.28073396746E+03  0.17165136299E+03 0.  0.
        -24    2    3    3    0    0  0.27146203292E+02  0.13600060058E+03  0.20186996489E+02  0.16148817451E+03  0.80236126332E+02 0.  0.
          6    2    1    2  501    0 -0.13460712545E+03 -0.17632004700E+03  0.16742948731E+03  0.32684053032E+03  0.17200076116E+03 0.  0.
         24    2    5    5    0    0 -0.16315713729E+03 -0.14177078352E+03  0.11399054303E+03  0.25693655655E+03  0.79393599749E+02 0.  0.
          5    1    5    5  501    0  0.28550011837E+02 -0.34549263483E+02  0.53438944288E+02  0.69903973776E+02  0.47000000000E+01 0. -1.
        -13    1    6    6    0    0 -0.92215250204E+02 -0.35678493827E+02  0.72947422855E+02  0.12287364971E+03  0.00000000000E+00 0.  1.
         14    1    6    6    0    0 -0.70941887086E+02 -0.10609228969E+03  0.41043120172E+02  0.13406290683E+03  0.00000000000E+00 0. -1.
         -5    1    3    3    0  503  0.10746092216E+03  0.40319446422E+02 -0.31999399734E+02  0.11924579295E+03  0.47000000000E+01 0.  1.
         13    1    4    4    0    0 -0.28000104991E+02  0.57248572207E+02  0.13293371492E+02  0.65100834287E+02  0.00000000000E+00 0. -1.
        -14    1    4    4    0    0  0.55146308283E+02  0.78752028373E+02  0.68936249974E+01  0.96387340225E+02  0.00000000000E+00 0.  1.
</event>
<event>
12    1  0.8449700E-002  0.2289385E+03  0.7818608E-02  0.1127393E+00
         21   -1    0    0  503  502  0.00000000000E+00  0.00000000000E+00  0.36141633832E+03  0.36141633832E+03  0.00000000000E+00 0. -1.
         21   -1    0    0  501  503 -0.00000000000E+00 -0.00000000000E+00 -0.18984697087E+03  0.18984697087E+03  0.00000000000E+00 0. -1.
          6    2    1    2  501    0  0.13429594737E+03 -0.70095157541E+02  0.21973916738E+03  0.31731211017E+03  0.17161859162E+03 0.  0.
         24    2    3    3    0    0  0.23751310685E+02 -0.17683573963E+02  0.15882373825E+03  0.18056464110E+03  0.80633592474E+02 0.  0.
         -6    2    1    2    0  502 -0.13429594737E+03  0.70095157541E+02 -0.48169799937E+02  0.23395119902E+03  0.17165110343E+03 0.  0.
        -24    2    5    5    0    0 -0.12608383427E+03  0.23537221649E+02  0.17988308843E+02  0.15250142583E+03  0.80510692198E+02 0.  0.
          5    1    3    3  501    0  0.11054463668E+03 -0.52411583578E+02  0.60915429132E+02  0.13674746907E+03  0.47000000000E+01 0. -1.
        -13    1    4    4    0    0 -0.10560247531E+02 -0.37739549711E+02  0.43326391260E+02  0.58420618107E+02  0.00000000000E+00 0.  1.
         14    1    4    4    0    0  0.34311558216E+02  0.20055975748E+02  0.11549734699E+03  0.12214402299E+03  0.00000000000E+00 0. -1.
         -5    1    5    5    0  502 -0.82121130973E+01  0.46557935892E+02 -0.66158108780E+02  0.81449773195E+02  0.47000000000E+01 0.  1.
         11    1    6    6    0    0 -0.35094568677E+02  0.43454790442E+02 -0.63885662954E+01  0.56220648718E+02  0.00000000000E+00 0. -1.
        -12    1    6    6    0    0 -0.90989265591E+02 -0.19917568794E+02  0.24376875139E+02  0.96280777110E+02  0.00000000000E+00 0.  1.
</event>
<event>
12    1  0.8449700E-002  0.4309640E+03  0.7818608E-02  0.1033628E+00
         21   -1    0    0  501  502  0.00000000000E+00  0.00000000000E+00  0.57074608369E+03  0.57074608369E+03  0.00000000000E+00 0.  1.
         21   -1    0    0  502  503 -0.00000000000E+00 -0.00000000000E+00 -0.39348427144E+03  0.39348427144E+03  0.00000000000E+00 0. -1.
         -6    2    1    2    0  503  0.13510078351E+03 -0.37023363680E+03  0.29024440932E+03  0.51958809091E+03  0.17436972085E+03 0.  0.
        -24    2    3    3    0    0  0.28924332703E+02 -0.18075701247E+03  0.74804935184E+02  0.21362880131E+03  0.80819377890E+02 0.  0.
          6    2    1    2  501    0 -0.13510078351E+03  0.37023363680E+03 -0.11298259707E+03  0.44464226423E+03  0.17209447514E+03 0.  0.
         24    2    5    5    0    0 -0.73783108831E+02  0.32839087285E+03 -0.12797684679E+03  0.36876346846E+03  0.79523014504E+02 0.  0.
          5    1    5    5  501    0 -0.61317674680E+02  0.41842763944E+02  0.14994249711E+02  0.75878795767E+02  0.47000000000E+01 0. -1.
        -11    1    6    6    0    0 -0.44045669620E+01  0.37936295071E+02  0.10478025468E+02  0.39602420527E+02  0.00000000000E+00 0.  1.
         12    1    6    6    0    0 -0.69378541869E+02  0.29045457778E+03 -0.13845487225E+03  0.32916104793E+03  0.00000000000E+00 0. -1.
         -5    1    3    3    0  503  0.10617645081E+03 -0.18947662433E+03  0.21543947414E+03  0.30595928959E+03  0.47000000000E+01 0.  1.
         13    1    4    4    0    0  0.18596977264E+02 -0.11136859326E+03  0.86850590957E+02  0.14244941655E+03  0.00000000000E+00 0. -1.
        -14    1    4    4    0    0  0.10327355440E+02 -0.69388419214E+02 -0.12045655773E+02  0.71179384757E+02  0.00000000000E+00 0.  1.
</event>
<event>
12    1  0.8449700E-002  0.2713768E+03  0.7818608E-02  0.1100496E+00
         21   -1    0    0  501  502  0.00000000000E+00  0.00000000000E+00  0.10764619111E+04  0.10764619111E+04  0.00000000000E+00 0. -1.
         21   -1    0    0  502  503 -0.00000000000E+00 -0.00000000000E+00 -0.26265947182E+03  0.26265947182E+03  0.00000000000E+00 0.  1.
         -6    2    1    2    0  503  0.79543121885E+02  0.19442841688E+03 -0.16890077712E+03  0.31963572918E+03  0.17178477618E+03 0.  0.
        -24    2    3    3    0    0  0.10182232388E+02  0.10051774182E+03 -0.19503469210E+02  0.12997341481E+03  0.79405345975E+02 0.  0.
          6    2    1    2  501    0 -0.79543121885E+02 -0.19442841688E+03  0.98270321642E+03  0.10194856537E+04  0.17180183091E+03 0.  0.
         24    2    5    5    0    0 -0.11775570126E+03 -0.16669963452E+03  0.87046208932E+03  0.89762816647E+03  0.79855513068E+02 0.  0.
          5    1    5    5  501    0  0.38212579370E+02 -0.27728782360E+02  0.11224112710E+03  0.12185748728E+03  0.47000000000E+01 0. -1.
        -13    1    6    6    0    0 -0.90508251875E+02 -0.68669868029E+02  0.54153930867E+03  0.55332821839E+03  0.00000000000E+00 0.  1.
         14    1    6    6    0    0 -0.27247449380E+02 -0.98029766490E+02  0.32892278065E+03  0.34429994807E+03  0.00000000000E+00 0. -1.
         -5    1    3    3    0  503  0.69360889498E+02  0.93910675062E+02 -0.14939730791E+03  0.18966231438E+03  0.47000000000E+01 0.  1.
         13    1    4    4    0    0  0.30727631538E+02  0.60694990430E+02  0.19281160604E+02  0.70709492697E+02  0.00000000000E+00 0. -1.
        -14    1    4    4    0    0 -0.20545399150E+02  0.39822751387E+02 -0.38784629814E+02  0.59263922112E+02  0.00000000000E+00 0.  1.
</event>
<event>
12    1  0.8449700E-002  0.1927334E+03  0.7818608E-02  0.1159939E+00
         21   -1    0    0  503  502  0.00000000000E+00  0.00000000000E+00  0.41593312491E+03  0.41593312491E+03  0.00000000000E+00 0. -1.
         21   -1    0    0  501  503 -0.00000000000E+00 -0.00000000000E+00 -0.15140873651E+03  0.15140873651E+03  0.00000000000E+00 0. -1.
          6    2    1    2  501    0 -0.54160661774E+01  0.36992652597E+02 -0.56893521444E+02  0.20095528084E+03  0.18907237238E+03 0.  0.
         24    2    3    3    0    0  0.49351814205E+02  0.77152674246E+02 -0.52675397830E+02  0.13274801857E+03  0.80369161926E+02 0.  0.
         -6    2    1    2    0  502  0.54160661774E+01 -0.36992652597E+02  0.32141790984E+03  0.36638658057E+03  0.17184837367E+03 0.  0.
        -24    2    5    5    0    0  0.18839774815E+02 -0.32671194438E+02  0.33465023932E+03  0.34648543744E+03  0.81480252947E+02 0.  0.
          5    1    3    3  501    0 -0.54767880382E+02 -0.40160021648E+02 -0.42181236137E+01  0.68207262276E+02  0.47000000000E+01 0. -1.
        -11    1    4    4    0    0  0.45767319801E+02  0.25002264815E+02 -0.60519017437E+02  0.79889375259E+02  0.00000000000E+00 0.  1.
         12    1    4    4    0    0  0.35844944034E+01  0.52150409431E+02  0.78436196074E+01  0.52858643309E+02  0.00000000000E+00 0. -1.
         -5    1    5    5    0  502 -0.13423708637E+02 -0.43214581592E+01 -0.13232329480E+02  0.19901143124E+02  0.47000000000E+01 0.  1.
         13    1    6    6    0    0  0.50801384269E+02 -0.19259073613E+02  0.18122328425E+03  0.18919189019E+03  0.00000000000E+00 0. -1.
        -14    1    6    6    0    0 -0.31961609454E+02 -0.13412120826E+02  0.15342695508E+03  0.15729354726E+03  0.00000000000E+00 0.  1.
</event>
<event>
12    1  0.8449700E-002  0.1768644E+03  0.7818608E-02  0.1170947E+00
         21   -1    0    0  503  502  0.00000000000E+00  0.00000000000E+00  0.42349446989E+03  0.42349446989E+03  0.00000000000E+00 0. -1.
         21   -1    0    0  501  503 -0.00000000000E+00 -0.00000000000E+00 -0.82311437390E+02  0.82311437390E+02  0.00000000000E+00 0.  1.
          6    2    1    2  501    0  0.95251845504E+00 -0.42614719599E+02  0.88845113203E+02  0.19765752030E+03  0.17134211267E+03 0.  0.
         24    2    3    3    0    0 -0.40420359131E+02 -0.47446818836E+02  0.11084808678E+03  0.15031530839E+03  0.80139799983E+02 0.  0.
         -6    2    1    2    0  502 -0.95251845504E+00  0.42614719599E+02  0.25233791930E+03  0.30814838698E+03  0.17165104504E+03 0.  0.
        -24    2    5    5    0    0  0.20975667095E+01 -0.42613436197E+02  0.13635817632E+03  0.16411182099E+03  0.80739289131E+02 0.  0.
          5    1    3    3  501    0  0.41372877587E+02  0.48320992368E+01 -0.22002973581E+02  0.47342211918E+02  0.47000000000E+01 0. -1.
        -11    1    4    4    0    0 -0.48549657419E+02 -0.60396465695E+00  0.31699543758E+02  0.57985300579E+02  0.00000000000E+00 0.  1.
         12    1    4    4    0    0  0.81292982874E+01 -0.46842854179E+02  0.79148543027E+02  0.92330007807E+02  0.00000000000E+00 0. -1.
         -5    1    5    5    0  502 -0.30500851645E+01  0.85228155796E+02  0.11597974298E+03  0.14403656599E+03  0.47000000000E+01 0.  1.
         11    1    6    6    0    0 -0.58257867836E+01 -0.16518823745E+02  0.13570729187E+03  0.13683303839E+03  0.00000000000E+00 0. -1.
        -12    1    6    6    0    0  0.79233534931E+01 -0.26094612452E+02  0.65088445287E+00  0.27278782600E+02  0.00000000000E+00 0.  1.
</event>
<event>
12    1  0.8449700E-002  0.1912439E+03  0.7818608E-02  0.1159813E+00
         21   -1    0    0  503  502  0.00000000000E+00  0.00000000000E+00  0.17249175473E+04  0.17249175473E+04  0.00000000000E+00 0. -1.
         21   -1    0    0  501  503 -0.00000000000E+00 -0.00000000000E+00 -0.20258033427E+02  0.20258033427E+02  0.00000000000E+00 0. -1.
          6    2    1    2  501    0 -0.52555485226E+02  0.15783380057E+02  0.96851437838E+03  0.98721545127E+03  0.18320221610E+03 0.  0.
         24    2    3    3    0    0  0.20667123921E+02  0.39974309346E+02  0.28327197796E+03  0.29763152680E+03  0.79476014184E+02 0.  0.
         -6    2    1    2    0  502  0.52555485226E+02 -0.15783380057E+02  0.73614513551E+03  0.75796012947E+03  0.17199623026E+03 0.  0.
        -24    2    5    5    0    0 -0.24853707745E+02 -0.11179766468E+02  0.20784030200E+03  0.22397374058E+03  0.78892023468E+02 0.  0.
          5    1    3    3  501    0 -0.73222609147E+02 -0.24190929290E+02  0.68524240042E+03  0.68958392447E+03  0.47000000000E+01 0. -1.
        -13    1    4    4    0    0 -0.83200119352E+01 -0.87340010253E+01  0.40647040135E+01  0.12728990189E+02  0.00000000000E+00 0.  1.
         14    1    4    4    0    0  0.28987135856E+02  0.48708310372E+02  0.27920727394E+03  0.28490253661E+03  0.00000000000E+00 0. -1.
         -5    1    5    5    0  502  0.77409192971E+02 -0.46036135882E+01  0.52830483351E+03  0.53398638889E+03  0.47000000000E+01 0.  1.
         13    1    6    6    0    0 -0.50570678621E+02  0.20786347356E+01  0.16239560464E+03  0.17010010777E+03  0.00000000000E+00 0. -1.
        -14    1    6    6    0    0  0.25716970876E+02 -0.13258401204E+02  0.45444697363E+02  0.53873632808E+02  0.00000000000E+00 0.  1.
</event>
<event>
12    1  0.8449700E-002  0.1772796E+03  0.7818608E-02  0.1170610E+00
         21   -1    0    0  501  502  0.00000000000E+00  0.00000000000E+00  0.57123412315E+03  0.57123412315E+03  0.00000000000E+00 0.  1.
         21   -1    0    0  502  503 -0.00000000000E+00 -0.00000000000E+00 -0.91937905563E+02  0.91937905563E+02  0.00000000000E+00 0.  1.
         -6    2    1    2    0  503 -0.28174561214E+02 -0.32964421880E+02  0.29237387914E+02  0.17967437832E+03  0.17189414872E+03 0.  0.
        -24    2    3    3    0    0 -0.33483159618E+02  0.38103158322E+02  0.49040273771E+02  0.10555942395E+03  0.78516691738E+02 0.  0.
          6    2    1    2  501    0  0.28174561214E+02  0.32964421880E+02  0.45005882967E+03  0.48349765039E+03  0.17127921286E+03 0.  0.
         24    2    5    5    0    0  0.33139503703E+02  0.59232528870E+02  0.44336846201E+03  0.45554205849E+03  0.79600595272E+02 0.  0.
          5    1    5    5  501    0 -0.49649424886E+01 -0.26268106990E+02  0.66903676574E+01  0.27955591894E+02  0.47000000000E+01 0. -1.
        -13    1    6    6    0    0  0.50691821526E+02  0.28773597379E+02  0.16562199220E+03  0.17557968270E+03  0.00000000000E+00 0.  1.
         14    1    6    6    0    0 -0.17552317823E+02  0.30458931491E+02  0.27774646981E+03  0.27996237580E+03  0.00000000000E+00 0. -1.
         -5    1    3    3    0  503  0.53085984041E+01 -0.71067580202E+02 -0.19802885857E+02  0.74114954369E+02  0.47000000000E+01 0.  1.
         11    1    4    4    0    0 -0.35781579978E+02 -0.15322165238E+02  0.28640728197E+02  0.48325785301E+02  0.00000000000E+00 0. -1.
        -12    1    4    4    0    0  0.22984203591E+01  0.53425323560E+02  0.20399545573E+02  0.57233638651E+02  0.00000000000E+00 0.  1.
</event>
<event>
12    1  0.8449700E-002  0.1829827E+03  0.7818608E-02  0.1165173E+00
         21   -1    0    0  503  502  0.00000000000E+00  0.00000000000E+00  0.96320932347E+02  0.96320932347E+02  0.00000000000E+00 0.  1.
         21   -1    0    0  501  503 -0.00000000000E+00 -0.00000000000E+00 -0.57313800030E+03  0.57313800030E+03  0.00000000000E+00 0.  1.
          6    2    1    2  501    0  0.32604550293E+02 -0.50142148507E+02 -0.44959175688E+03  0.48540231516E+03  0.17293168578E+03 0.  0.
         24    2    3    3    0    0  0.17043766398E+02 -0.76908327361E+02 -0.16684387392E+03  0.20092556454E+03  0.79553902659E+02 0.  0.
         -6    2    1    2    0  502 -0.32604550293E+02  0.50142148507E+02 -0.27225311071E+02  0.18405661749E+03  0.17192535916E+03 0.  0.
        -24    2    5    5    0    0  0.14480927090E+02 -0.26933936991E+02  0.68323812213E+01  0.87414072302E+02  0.81605173807E+02 0.  0.
          5    1    3    3  501    0  0.15560783895E+02  0.26766178855E+02 -0.28274788296E+03  0.28447675062E+03  0.47000000000E+01 0. -1.
        -13    1    4    4    0    0  0.88668168097E+01 -0.15694480799E+02 -0.12507967542E+03  0.12637192081E+03  0.00000000000E+00 0.  1.
         14    1    4    4    0    0  0.81769495879E+01 -0.61213846562E+02 -0.41764198507E+02  0.74553643724E+02  0.00000000000E+00 0. -1.
         -5    1    5    5    0  502 -0.47085477383E+02  0.77076085498E+02 -0.34057692293E+02  0.96642545187E+02  0.47000000000E+01 0.  1.
         13    1    6    6    0    0 -0.14732576129E+02 -0.25302776769E+02 -0.28961582984E+02  0.41183159186E+02  0.00000000000E+00 0. -1.
        -14    1    6    6    0    0  0.29213503219E+02 -0.16311602215E+01  0.35793964205E+02  0.46230913116E+02  0.00000000000E+00 0.  1.
</event>
<event>
12    1  0.8449700E-002  0.1765479E+03  0.7818608E-02  0.1171374E+00
         21   -1    0    0  501  502  0.00000000000E+00  0.00000000000E+00  0.18862413105E+04  0.18862413105E+04  0.00000000000E+00 0. -1.
         21   -1    0    0  502  503 -0.00000000000E+00 -0.00000000000E+00 -0.16576677345E+02  0.16576677345E+02  0.00000000000E+00 0. -1.
         -6    2    1    2    0  503 -0.24137454344E+02  0.26635064733E+02  0.10187246836E+04  0.10339096378E+04  0.17284997752E+03 0.  0.
        -24    2    3    3    0    0 -0.64155507980E+02  0.64443485685E+02  0.65550379439E+03  0.66651009277E+03  0.79256465033E+02 0.  0.
          6    2    1    2  501    0  0.24137454344E+02 -0.26635064733E+02  0.85093994950E+03  0.86890835002E+03  0.17207812092E+03 0.  0.
         24    2    5    5    0    0 -0.17965862675E+02  0.42084636850E+02  0.37661168841E+03  0.38775922972E+03  0.80168369758E+02 0.  0.
          5    1    5    5  501    0  0.42103317019E+02 -0.68719701582E+02  0.47432826109E+03  0.48114912030E+03  0.47000000000E+01 0. -1.
        -11    1    6    6    0    0 -0.33158436482E+01 -0.46847148999E+01 -0.19321079615E+01  0.60559403867E+01  0.00000000000E+00 0.  1.
         12    1    6    6    0    0 -0.14650019027E+02  0.46769351750E+02  0.37854379637E+03  0.38170328934E+03  0.00000000000E+00 0. -1.
         -5    1    3    3    0  503  0.40018053637E+02 -0.37808420952E+02  0.36322088924E+03  0.36739954504E+03  0.47000000000E+01 0.  1.
         13    1    4    4    0    0 -0.71219716951E+01  0.30659309101E+01  0.24910542385E+01  0.81441859255E+01  0.00000000000E+00 0. -1.
        -14    1    4    4    0    0 -0.57033536285E+02  0.61377554775E+02  0.65301274016E+03  0.65836590685E+03  0.00000000000E+00 0.  1.
</event>
<event>
12    1  0.8449700E-002  0.2235884E+03  0.7818608E-02  0.1131501E+00
         21   -1    0    0  503  502  0.00000000000E+00  0.00000000000E+00  0.21948165209E+03  0.21948165209E+03  0.00000000000E+00 0. -1.
         21   -1    0    0  501  503 -0.00000000000E+00 -0.00000000000E+00 -0.23164307827E+03  0.23164307827E+03  0.00000000000E+00 0. -1.
          6    2    1    2  501    0 -0.14152829485E+03 -0.10610518626E+02  0.28193144026E+02  0.22392377607E+03  0.17089225486E+03 0.  0.
         24    2    3    3    0    0 -0.79730037872E+02  0.23811234298E+02  0.76336483582E+02  0.13822807732E+03  0.79723828414E+02 0.  0.
         -6    2    1    2    0  502  0.14152829485E+03  0.10610518626E+02 -0.40354570205E+02  0.22720095430E+03  0.17276846051E+03 0.  0.
        -24    2    5    5    0    0  0.20573446259E+02  0.99765865827E+01 -0.62332988970E+02  0.10417405415E+03  0.80274734961E+02 0.  0.
          5    1    3    3  501    0 -0.61798256981E+02 -0.34421752924E+02 -0.48143339555E+02  0.85695698748E+02  0.47000000000E+01 0. -1.
        -11    1    4    4    0    0 -0.29239907262E+02 -0.58385869535E+01  0.73828340018E+02  0.79622139284E+02  0.00000000000E+00 0.  1.
         12    1    4    4    0    0 -0.50490130611E+02  0.29649821252E+02  0.25081435632E+01  0.58605938039E+02  0.00000000000E+00 0. -1.
         -5    1    5    5    0  502  0.12095484859E+03  0.63393204303E+00  0.21978418765E+02  0.12302690015E+03  0.47000000000E+01 0.  1.
         13    1    6    6    0    0  0.22804176304E+02  0.17814576628E+02  0.10576961277E+02  0.30810090996E+02  0.00000000000E+00 0. -1.
        -14    1    6    6    0    0 -0.22307300448E+01 -0.78379900453E+01 -0.72909950247E+02  0.73363963153E+02  0.00000000000E+00 0.  1.
</event>
<event>
12    1  0.8449700E-002  0.1803930E+03  0.7818608E-02  0.1167966E+00
         21   -1    0    0  501  502  0.00000000000E+00  0.00000000000E+00  0.24703677683E+03  0.24703677683E+03  0.00000000000E+00 0. -1.
         21   -1    0    0  502  503 -0.00000000000E+00 -0.00000000000E+00 -0.38054358802E+03  0.38054358802E+03  0.00000000000E+00 0. -1.
         -6    2    1    2    0  503  0.47452081570E+02 -0.14124887426E+02 -0.32145508089E+03  0.36861228458E+03  0.17346594717E+03 0.  0.
        -24    2    3    3    0    0  0.19503537400E+02 -0.40043058162E+02 -0.72581615724E+02  0.11679297564E+03  0.79929179523E+02 0.  0.
          6    2    1    2  501    0 -0.47452081570E+02  0.14124887426E+02  0.18794826970E+03  0.25896808026E+03  0.17113942275E+03 0.  0.
         24    2    5    5    0    0 -0.15592501384E+02 -0.57533929848E+02  0.10895698311E+03  0.14756012588E+03  0.79681160866E+02 0.  0.
          5    1    5    5  501    0 -0.31859580186E+02  0.71658817275E+02  0.78991286586E+02  0.11140795438E+03  0.47000000000E+01 0. -1.
        -13    1    6    6    0    0 -0.10253567850E+02 -0.20874303463E+02 -0.82198219437E+01  0.24666529377E+02  0.00000000000E+00 0.  1.
         14    1    6    6    0    0 -0.53389335344E+01 -0.36659626386E+02  0.11717680505E+03  0.12289359650E+03  0.00000000000E+00 0. -1.
         -5    1    3    3    0  503  0.27948544171E+02  0.25918170736E+02 -0.24887346516E+03  0.25181930895E+03  0.47000000000E+01 0.  1.
         13    1    4    4    0    0 -0.34587603155E+01  0.23257152191E+02 -0.25143074004E+02  0.34424298414E+02  0.00000000000E+00 0. -1.
        -14    1    4    4    0    0  0.22962297715E+02 -0.63300210353E+02 -0.47438541720E+02  0.82368677224E+02  0.00000000000E+00 0.  1.
</event>
<event>
12    1  0.8449700E-002  0.1851268E+03  0.7818608E-02  0.1165311E+00
         21   -1    0    0  503  502  0.00000000000E+00  0.00000000000E+00  0.11890474744E+04  0.11890474744E+04  0.00000000000E+00 0.  1.
         21   -1    0    0  501  503 -0.00000000000E+00 -0.00000000000E+00 -0.27555218694E+02  0.27555218694E+02  0.00000000000E+00 0.  1.
          6    2    1    2  501    0  0.19458443021E+01  0.30338753227E+02  0.53822590922E+03  0.56917401346E+03  0.18261353175E+03 0.  0.
         24    2    3    3    0    0  0.23609001075E+02  0.60091518380E+02  0.16681246910E+03  0.19591197025E+03  0.79916986475E+02 0.  0.
         -6    2    1    2    0  502 -0.19458443021E+01 -0.30338753227E+02  0.62326634652E+03  0.64742867968E+03  0.17256514799E+03 0.  0.
        -24    2    5    5    0    0  0.77781689108E+01 -0.65899104003E+02  0.58370377091E+03  0.59314809042E+03  0.81922971024E+02 0.  0.
          5    1    3    3  501    0 -0.21663156773E+02 -0.29752765153E+02  0.37141344012E+03  0.37326204321E+03  0.47000000000E+01 0. -1.
        -11    1    4    4    0    0  0.23988408711E+02 -0.46564479556E+01  0.99723274591E+02  0.10267354944E+03  0.00000000000E+00 0.  1.
         12    1    4    4    0    0 -0.37940763623E+00  0.64747966335E+02  0.67089194505E+02  0.93238420804E+02  0.00000000000E+00 0. -1.
         -5    1    5    5    0  502 -0.97240132129E+01  0.35560350777E+02  0.39562575618E+02  0.54280589255E+02  0.47000000000E+01 0.  1.
         13    1    6    6    0    0  0.20305816100E+02 -0.67144284725E+02  0.26290562739E+03  0.27210301368E+03  0.00000000000E+00 0. -1.
        -14    1    6    6    0    0 -0.12527647189E+02  0.12451807214E+01  0.32079814351E+03  0.32104507674E+03  0.00000000000E+00 0.  1.
</event>
<event>
12    1  0.8449700E-002  0.2110129E+03  0.7818608E-02  0.1140973E+00
         21   -1    0    0  503  502  0.00000000000E+00  0.00000000000E+00  0.56110362362E+03  0.56110362362E+03  0.00000000000E+00 0.  1.
         21   -1    0    0  501  503 -0.00000000000E+00 -0.00000000000E+00 -0.82381616345E+02  0.82381616345E+02  0.00000000000E+00 0.  1.
          6    2    1    2  501    0 -0.57292627272E+02 -0.11389920386E+03  0.30434118364E+03  0.36974245622E+03  0.16682462075E+03 0.  0.
         24    2    3    3    0    0 -0.23192238845E+02 -0.63739238399E+01  0.19810794141E+03  0.21471950924E+03  0.79241430776E+02 0.  0.
         -6    2    1    2    0  502  0.57292627272E+02  0.11389920386E+03  0.17438082363E+03  0.27374278375E+03  0.16813972233E+03 0.  0.
        -24    2    5    5    0    0 -0.42396131225E+01  0.38403542926E+01  0.86534294014E+02  0.11999536185E+03  0.82933588998E+02 0.  0.
          5    1    3    3  501    0 -0.34100388427E+02 -0.10752528002E+03  0.10623324223E+03  0.15502294698E+03  0.47000000000E+01 0. -1.
        -13    1    4    4    0    0 -0.51809812304E+02 -0.58466262706E+01  0.10372228872E+03  0.11608941755E+03  0.00000000000E+00 0.  1.
         14    1    4    4    0    0  0.28617573459E+02 -0.52729756928E+00  0.94385652692E+02  0.98630091694E+02  0.00000000000E+00 0. -1.
         -5    1    5    5    0  502  0.61532240395E+02  0.11005884956E+03  0.87846529614E+02  0.15374742190E+03  0.47000000000E+01 0.  1.
         11    1    6    6    0    0 -0.19809098299E+02  0.12745818997E+02  0.96598013008E+02  0.99428529077E+02  0.00000000000E+00 0. -1.
        -12    1    6    6    0    0  0.15569485176E+02 -0.89054647046E+01 -0.10063718994E+02  0.20566832771E+02  0.00000000000E+00 0.  1.
</event>
<event>
12    1  0.8449700E-002  0.1880721E+03  0.7818608E-02  0.1160687E+00
         21   -1    0    0  501  502  0.00000000000E+00  0.00000000000E+00  0.13206227702E+04  0.13206227702E+04  0.00000000000E+00 0. -1.
         21   -1    0    0  502  503 -0.00000000000E+00 -0.00000000000E+00 -0.36664166191E+02  0.36664166191E+02  0.00000000000E+00 0.  1.
         -6    2    1    2    0  503 -0.61869995656E+02  0.32035300086E+02  0.28705479875E+03  0.34317862009E+03  0.17469101577E+03 0.  0.
        -24    2    3    3    0    0 -0.65799766601E+02  0.22655931086E+02  0.80585345217E+02  0.13640545717E+03  0.85261658348E+02 0.  0.
          6    2    1    2  501    0  0.61869995656E+02 -0.32035300086E+02  0.99690380524E+03  0.10141083163E+04  0.17246542677E+03 0.  0.
         24    2    5    5    0    0  0.22658739510E+02 -0.19545245408E+02  0.93874119825E+03  0.94270451438E+03  0.81002031086E+02 0.  0.
          5    1    5    5  501    0  0.39211256146E+02 -0.12490054678E+02  0.58162606994E+02  0.71403801907E+02  0.47000000000E+01 0. -1.
        -13    1    6    6    0    0  0.30357316976E+02 -0.30215842456E+02  0.23695692321E+03  0.24079690049E+03  0.00000000000E+00 0.  1.
         14    1    6    6    0    0 -0.76985774654E+01  0.10670597047E+02  0.70178427504E+03  0.70190761388E+03  0.00000000000E+00 0. -1.
         -5    1    3    3    0  503  0.39297709443E+01  0.93793690003E+01  0.20646945353E+03  0.20677316292E+03  0.47000000000E+01 0.  1.
         13    1    4    4    0    0 -0.47456144612E+01 -0.76715122188E+01  0.66099022419E+02  0.66711721017E+02  0.00000000000E+00 0. -1.
        -14    1    4    4    0    0 -0.61054152139E+02  0.30327443305E+02  0.14486322798E+02  0.69693736154E+02  0.00000000000E+00 0.  1.
</event>
<event>
12    1  0.8449700E-002  0.2335782E+03  0.7818608E-02  0.1125176E+00
         21   -1    0    0  503  502  0.00000000000E+00  0.00000000000E+00  0.24757074187E+03  0.24757074187E+03  0.00000000000E+00 0.  1.
         21   -1    0    0  501  503 -0.00000000000E+00 -0.00000000000E+00 -0.26722478555E+03  0.26722478555E+03  0.00000000000E+00 0.  1.
          6    2    1    2  501    0  0.13147857936E+03 -0.70863347743E+02 -0.12366396635E+03  0.25910657217E+03  0.17185810509E+03 0.  0.
         24    2    3    3    0    0  0.45811584328E+02 -0.99941116639E+02 -0.88328390798E+02  0.16186952377E+03  0.79453823391E+02 0.  0.
         -6    2    1    2    0  502 -0.13147857936E+03  0.70863347743E+02  0.10400992268E+03  0.25568895525E+03  0.17958437275E+03 0.  0.
        -24    2    5    5    0    0 -0.76199391031E+02  0.33840540787E+02 -0.20502986375E+02  0.11443729537E+03  0.75657073215E+02 0.  0.
          5    1    3    3  501    0  0.85666995034E+02  0.29077768896E+02 -0.35335575554E+02  0.97237048402E+02  0.47000000000E+01 0. -1.
        -11    1    4    4    0    0  0.60613369163E+02 -0.63071328255E+02 -0.85047446205E+02  0.12200426663E+03  0.00000000000E+00 0.  1.
         12    1    4    4    0    0 -0.14801784835E+02 -0.36869788385E+02 -0.32809445926E+01  0.39865257145E+02  0.00000000000E+00 0. -1.
         -5    1    5    5    0  502 -0.55279188332E+02  0.37022806956E+02  0.12451290905E+03  0.14125165988E+03  0.47000000000E+01 0.  1.
         13    1    6    6    0    0  0.13592528442E+02  0.13731182105E+02 -0.10194241242E+02  0.21845474267E+02  0.00000000000E+00 0. -1.
        -14    1    6    6    0    0 -0.89791919473E+02  0.20109358682E+02 -0.10308745133E+02  0.92591821105E+02  0.00000000000E+00 0.  1.
</event>
<event>
12    1  0.8449700E-002  0.2173347E+03  0.7818608E-02  0.1135933E+00
         21   -1    0    0  503  502  0.00000000000E+00  0.00000000000E+00  0.78630118375E+03  0.78630118375E+03  0.00000000000E+00 0. -1.
         21   -1    0    0  501  503 -0.00000000000E+00 -0.00000000000E+00 -0.73886075940E+02  0.73886075940E+02  0.00000000000E+00 0.  1.
          6    2    1    2  501    0  0.10177332782E+03  0.85475798017E+02  0.16994070858E+03  0.27588808663E+03  0.17196066297E+03 0.  0.
         24    2    3    3    0    0  0.58733592546E+02 -0.19800294433E+02  0.56277362092E+02  0.11502503683E+03  0.78879218187E+02 0.  0.
         -6    2    1    2    0  502 -0.10177332782E+03 -0.85475798017E+02  0.54247439923E+03  0.58429917306E+03  0.17164826686E+03 0.  0.
        -24    2    5    5    0    0 -0.69472423212E+02 -0.57080865714E+02  0.52345971744E+03  0.53704170019E+03  0.79492572834E+02 0.  0.
          5    1    3    3  501    0  0.43039735277E+02  0.10527609245E+03  0.11366334649E+03  0.16086304979E+03  0.47000000000E+01 0. -1.
        -13    1    4    4    0    0 -0.17104178253E+02 -0.17252055310E+02  0.11054273275E+02  0.26690509245E+02  0.00000000000E+00 0.  1.
         14    1    4    4    0    0  0.75837770799E+02 -0.25482391233E+01  0.45223088816E+02  0.88334527589E+02  0.00000000000E+00 0. -1.
         -5    1    5    5    0  502 -0.32300904611E+02 -0.28394932304E+02  0.19014681791E+02  0.47257472878E+02  0.47000000000E+01 0.  1.
         13    1    6    6    0    0 -0.80191381727E+02 -0.35671543192E+02  0.30816351990E+03  0.32041827616E+03  0.00000000000E+00 0. -1.
        -14    1    6    6    0    0  0.10718958516E+02 -0.21409322522E+02  0.21529619754E+03  0.21662342403E+03  0.00000000000E+00 0.  1.
</event>
<event>
12    1  0.8449700E-002  0.2018097E+03  0.7818608E-02  0.1149081E+00
         21   -1    0    0  501  502  0.00000000000E+00  0.00000000000E+00  0.14602683952E+03  0.14602683952E+03  0.00000000000E+00 0. -1.
         21   -1    0    0  502  503 -0.00000000000E+00 -0.00000000000E+00 -0.28296495995E+03  0.28296495995E+03  0.00000000000E+00 0. -1.
         -6    2    1    2    0  503  0.80371175245E+02  0.56941603582E+02 -0.10879778812E+03  0.22926862466E+03  0.17613992031E+03 0.  0.
        -24    2    3    3    0    0  0.70570787053E+02  0.10066578463E+03 -0.48641457715E+02  0.15411061973E+03  0.79184945076E+02 0.  0.
          6    2    1    2  501    0 -0.80371175245E+02 -0.56941603582E+02 -0.28140332313E+02  0.19972317481E+03  0.17145143985E+03 0.  0.
         24    2    5    5    0    0  0.21711950557E+02 -0.15860175354E+02  0.17633640291E+01  0.85596186882E+02  0.81244346245E+02 0.  0.
          5    1    5    5  501    0 -0.10208312580E+03 -0.41081428228E+02 -0.29903696342E+02  0.11412698793E+03  0.47000000000E+01 0. -1.
        -13    1    6    6    0    0 -0.18104073259E+02  0.18342332500E+02  0.17079707932E+02  0.30917875948E+02  0.00000000000E+00 0.  1.
         14    1    6    6    0    0  0.39816023816E+02 -0.34202507854E+02 -0.15316343903E+02  0.54678310934E+02  0.00000000000E+00 0. -1.
         -5    1    3    3    0  503  0.98003881922E+01 -0.43724181045E+02 -0.60156330405E+02  0.75158004927E+02  0.47000000000E+01 0.  1.
         11    1    4    4    0    0  0.83705602285E+01  0.79149948129E+02 -0.34737232049E+02  0.86841556053E+02  0.00000000000E+00 0. -1.
        -12    1    4    4    0    0  0.62200226824E+02  0.21515836497E+02 -0.13904225666E+02  0.67269063681E+02  0.00000000000E+00 0.  1.
</event>
<event>
12    1  0.8449700E-002  0.1769465E+03  0.7818608E-02  0.1171000E+00
         21   -1    0    0  503  502  0.00000000000E+00  0.00000000000E+00  0.84256498612E+03  0.84256498612E+03  0.00000000000E+00 0.  1.
         21   -1    0    0  501  503 -0.00000000000E+00 -0.00000000000E+00 -0.37197973635E+02  0.37197973635E+02  0.00000000000E+00 0.  1.
          6    2    1    2  501    0 -0.21792048589E+02  0.34978464966E+02  0.36839134479E+03  0.40832072034E+03  0.17121694236E+03 0.  0.
         24    2    3    3    0    0  0.38659966940E+02 -0.23647202588E+02  0.20228246646E+03  0.22202615645E+03  0.79521284411E+02 0.  0.
         -6    2    1    2    0  502  0.21792048589E+02 -0.34978464966E+02  0.43697566770E+03  0.47144223941E+03  0.17208040142E+03 0.  0.
        -24    2    5    5    0    0  0.55805792839E+02  0.37045082779E+02  0.22107572892E+03  0.24127013035E+03  0.69643184938E+02 0.  0.
          5    1    3    3  501    0 -0.60452015529E+02  0.58625667555E+02  0.16610887832E+03  0.18629456389E+03  0.47000000000E+01 0. -1.
        -13    1    4    4    0    0 -0.88636830115E+01  0.13089378778E+02  0.62524241337E+01  0.16999691788E+02  0.00000000000E+00 0.  1.
         14    1    4    4    0    0  0.47523649951E+02 -0.36736581367E+02  0.19603004233E+03  0.20502646466E+03  0.00000000000E+00 0. -1.
         -5    1    5    5    0  502 -0.34013744250E+02 -0.72023547745E+02  0.21589993878E+03  0.23017210907E+03  0.47000000000E+01 0.  1.
         13    1    6    6    0    0 -0.56047369866E+01 -0.12519448317E+02  0.13702778374E+02  0.19388548115E+02  0.00000000000E+00 0. -1.
        -14    1    6    6    0    0  0.61410529826E+02  0.49564531096E+02  0.20737295055E+03  0.22188158223E+03  0.00000000000E+00 0.  1.
</event>
<event>
12    1  0.8449700E-002  0.2447561E+03  0.7818608E-02  0.1116681E+00
         21   -1    0    0  503  502  0.00000000000E+00  0.00000000000E+00  0.16513765018E+03  0.16513765018E+03  0.00000000000E+00 0.  1.
         21   -1    0    0  501  503 -0.00000000000E+00 -0.00000000000E+00 -0.65809924652E+03  0.65809924652E+03  0.00000000000E+00 0. -1.
          6    2    1    2  501    0 -0.52163529566E+02 -0.16662305944E+03 -0.52232796077E+03  0.57682930748E+03  0.17152630588E+03 0.  0.
         24    2    3    3    0    0 -0.51231322159E+01 -0.26575388929E+02 -0.11076608599E+03  0.13952916368E+03  0.80416191963E+02 0.  0.
         -6    2    1    2    0  502  0.52163529566E+02  0.16662305944E+03  0.29366364432E+02  0.24640758922E+03  0.17137689143E+03 0.  0.
        -24    2    5    5    0    0  0.99472532413E+02  0.89875296155E+02  0.10081214883E+02  0.15409091732E+03  0.75299577303E+02 0.  0.
          5    1    3    3  501    0 -0.47040397350E+02 -0.14004767051E+03 -0.41156187478E+03  0.43730014380E+03  0.47000000000E+01 0. -1.
        -11    1    4    4    0    0  0.20677593180E+01  0.25371162627E+02 -0.65430399470E+02  0.70207611385E+02  0.00000000000E+00 0.  1.
         12    1    4    4    0    0 -0.71908915339E+01 -0.51946551556E+02 -0.45335686522E+02  0.69321552291E+02  0.00000000000E+00 0. -1.
         -5    1    5    5    0  502 -0.47309002848E+02  0.76747763280E+02  0.19285149549E+02  0.92316671907E+02  0.47000000000E+01 0.  1.
         11    1    6    6    0    0  0.29046641823E+02  0.76748912376E+02  0.75378373948E+01  0.82407050333E+02  0.00000000000E+00 0. -1.
        -12    1    6    6    0    0  0.70425890590E+02  0.13126383780E+02  0.25433774880E+01  0.71683866983E+02  0.00000000000E+00 0.  1.
</event>
<event>
12    1  0.8449700E-002  0.1834387E+03  0.7818608E-02  0.1165201E+00
         21   -1    0    0  501  502  0.00000000000E+00  0.00000000000E+00  0.87369673663E+03  0.87369673663E+03  0.00000000000E+00 0.  1.
         21   -1    0    0  502  503 -0.00000000000E+00 -0.00000000000E+00 -0.85882465874E+02  0.85882465874E+02  0.00000000000E+00 0.  1.
         -6    2    1    2    0  503 -0.11566102905E+02 -0.52195691350E+02  0.33958201918E+02  0.18372565494E+03  0.17246388570E+03 0.  0.
        -24    2    3    3    0    0 -0.68025789528E+02 -0.45572387266E+02  0.50229812789E+02  0.12440938659E+03  0.79058907506E+02 0.  0.
          6    2    1    2  501    0  0.11566102905E+02  0.52195691350E+02  0.75385606884E+03  0.77585354757E+03  0.17547532538E+03 0.  0.
         24    2    5    5    0    0 -0.81348247126E+00  0.65777079250E+02  0.74930854716E+03  0.75634769755E+03  0.79191254845E+02 0.  0.
          5    1    5    5  501    0  0.12379585376E+02 -0.13581387900E+02  0.45475216812E+01  0.19505850015E+02  0.47000000000E+01 0. -1.
        -13    1    6    6    0    0 -0.36552403943E+02  0.16251348698E+02  0.36964543555E+03  0.37180362100E+03  0.00000000000E+00 0.  1.
         14    1    6    6    0    0  0.35738921471E+02  0.49525730551E+02  0.37966311161E+03  0.38454407655E+03  0.00000000000E+00 0. -1.
         -5    1    3    3    0  503  0.56459686623E+02 -0.66233040839E+01 -0.16271610871E+02  0.59316268349E+02  0.47000000000E+01 0.  1.
         11    1    4    4    0    0 -0.29211396328E+00 -0.40158060559E+02  0.38156086666E+02  0.55395325688E+02  0.00000000000E+00 0. -1.
        -12    1    4    4    0    0 -0.67733675565E+02 -0.54143267067E+01  0.12073726123E+02  0.69014060898E+02  0.00000000000E+00 0.  1.
</event>
<event>
12    1  0.8449700E-002  0.1821437E+03  0.7818608E-02  0.1165874E+00
         21   -1    0    0  503  502  0.00000000000E+00  0.00000000000E+00  0.39976966123E+03  0.39976966123E+03  0.00000000000E+00 0.  1.
         21   -1    0    0  501  503 -0.00000000000E+00 -0.00000000000E+00 -0.22212998730E+03  0.22212998730E+03  0.00000000000E+00 0.  1.
          6    2    1    2  501    0  0.39033129543E+02 -0.45705125410E+02 -0.15745134920E+03  0.24076388390E+03  0.17194120139E+03 0.  0.
         24    2    3    3    0    0 -0.22580127096E+02 -0.68719496153E+02 -0.13111178602E+03  0.16975883307E+03  0.79972055628E+02 0.  0.
         -6    2    1    2    0  502 -0.39033129543E+02  0.45705125410E+02  0.33509102312E+03  0.38113576464E+03  0.17136491362E+03 0.  0.
        -24    2    5    5    0    0 -0.28542726449E+02  0.95491969461E+02  0.26116767621E+03  0.29127181405E+03  0.81837100973E+02 0.  0.
          5    1    3    3  501    0  0.61613256638E+02  0.23014370743E+02 -0.26339563178E+02  0.71005050825E+02  0.47000000000E+01 0. -1.
        -13    1    4    4    0    0  0.27861610875E+02 -0.28902260970E+02 -0.72040245826E+02  0.82470643677E+02  0.00000000000E+00 0.  1.
         14    1    4    4    0    0 -0.50441737970E+02 -0.39817235183E+02 -0.59071540192E+02  0.87288189394E+02  0.00000000000E+00 0. -1.
         -5    1    5    5    0  502 -0.10490403094E+02 -0.49786844050E+02  0.73923346906E+02  0.89863950589E+02  0.47000000000E+01 0.  1.
         13    1    6    6    0    0 -0.84200170881E+01  0.16738232471E+02  0.10682484373E+01  0.18767159315E+02  0.00000000000E+00 0. -1.
        -14    1    6    6    0    0 -0.20122709361E+02  0.78753736989E+02  0.26009942778E+03  0.27250465473E+03  0.00000000000E+00 0.  1.
</event>
<event>
12    1  0.8449700E-002  0.2150338E+03  0.7818608E-02  0.1137715E+00
         21   -1    0    0  501  502  0.00000000000E+00  0.00000000000E+00  0.84058644851E+03  0.84058644851E+03  0.00000000000E+00 0. -1.
         21   -1    0    0  502  503 -0.00000000000E+00 -0.00000000000E+00 -0.61250168244E+02  0.61250168244E+02  0.00000000000E+00 0. -1.
         -6    2    1    2    0  503 -0.12650165900E+03  0.23771633889E+02  0.24490899264E+03  0.32591400740E+03  0.17225494256E+03 0.  0.
        -24    2    3    3    0    0 -0.31335904132E+02 -0.31395110630E+02  0.16869137036E+03  0.19200692564E+03  0.80263872319E+02 0.  0.
          6    2    1    2  501    0  0.12650165900E+03 -0.23771633889E+02  0.53442728763E+03  0.57592260935E+03  0.17177475338E+03 0.  0.
         24    2    5    5    0    0  0.14465570794E+03 -0.60258302791E+02  0.45183547727E+03  0.48370361110E+03  0.72508951033E+02 0.  0.
          5    1    5    5  501    0 -0.18154048940E+02  0.36486668901E+02  0.82591810358E+02  0.92218998253E+02  0.47000000000E+01 0. -1.
        -11    1    6    6    0    0  0.35800558174E+02  0.16522886751E+02  0.99586180972E+02  0.10710785775E+03  0.00000000000E+00 0.  1.
         12    1    6    6    0    0  0.10885514976E+03 -0.76781189542E+02  0.35224929630E+03  0.37659575335E+03  0.00000000000E+00 0. -1.
         -5    1    3    3    0  503 -0.95165754866E+02  0.55166744519E+02  0.76217622274E+02  0.13390708176E+03  0.47000000000E+01 0.  1.
         11    1    4    4    0    0  0.10385471173E+02  0.16913647712E+02  0.12966874192E+02  0.23708001111E+02  0.00000000000E+00 0. -1.
        -12    1    4    4    0    0 -0.41721375304E+02 -0.48308758341E+02  0.15572449617E+03  0.16829892453E+03  0.00000000000E+00 0.  1.
</event>
<event>
12    1  0.8449700E-002  0.2339994E+03  0.7818608E-02  0.1124461E+00
         21   -1    0    0  503  502  0.00000000000E+00  0.00000000000E+00  0.97063409235E+02  0.97063409235E+02  0.00000000000E+00 0. -1.
         21   -1    0    0  501  503 -0.00000000000E+00 -0.00000000000E+00 -0.63892723194E+03  0.63892723194E+03  0.00000000000E+00 0.  1.
          6    2    1    2  501    0  0.10147236596E+03  0.11341648431E+03 -0.40194124076E+03  0.46334794564E+03  0.17313179298E+03 0.  0.
         24    2    3    3    0    0  0.83786041813E+02  0.36323240102E+02 -0.11939452707E+03  0.16990134100E+03  0.79195542821E+02 0.  0.
         -6    2    1    2    0  502 -0.10147236596E+03 -0.11341648431E+03 -0.13992258195E+03  0.27264269553E+03  0.17775199161E+03 0.  0.
        -24    2    5    5    0    0 -0.44833769710E+02 -0.35129978871E+02  0.62165282670E+01  0.97384494433E+02  0.78745871069E+02 0.  0.
          5    1    3    3  501    0  0.17686324143E+02  0.77093244211E+02 -0.28254671369E+03  0.29344660465E+03  0.47000000000E+01 0. -1.
        -13    1    4    4    0    0  0.25795344497E+02  0.29505973279E+01 -0.95322178583E+02  0.98794855899E+02  0.00000000000E+00 0.  1.
         14    1    4    4    0    0  0.57990697316E+02  0.33372642774E+02 -0.24072348491E+02  0.71106485096E+02  0.00000000000E+00 0. -1.
         -5    1    5    5    0  502 -0.56638596246E+02 -0.78286505442E+02 -0.14613911021E+03  0.17525820110E+03  0.47000000000E+01 0.  1.
         11    1    6    6    0    0 -0.67531479919E+02 -0.22561845351E+02  0.57938900233E+01  0.71436032976E+02  0.00000000000E+00 0. -1.
        -12    1    6    6    0    0  0.22697710209E+02 -0.12568133520E+02  0.42263824370E+00  0.25948461457E+02  0.00000000000E+00 0.  1.
</event>
<event>
12    1  0.8449700E-002  0.2082267E+03  0.7818608E-02  0.1143003E+00
         21   -1    0    0  503  502  0.00000000000E+00  0.00000000000E+00  0.11745918923E+03  0.11745918923E+03  0.00000000000E+00 0. -1.
         21   -1    0    0  501  503 -0.00000000000E+00 -0.00000000000E+00 -0.56367836565E+03  0.56367836565E+03  0.00000000000E+00 0. -1.
          6    2    1    2  501    0  0.89422571434E+02 -0.70019567442E+02 -0.42325584648E+03  0.47164848990E+03  0.17437789521E+03 0.  0.
         24    2    3    3    0    0  0.63107429227E+02 -0.11486614864E+03 -0.33913005527E+03  0.37263868583E+03  0.81692203202E+02 0.  0.
         -6    2    1    2    0  502 -0.89422571434E+02  0.70019567442E+02 -0.22963329938E+02  0.20948906498E+03  0.17452569358E+03 0.  0.
        -24    2    5    5    0    0  0.20115930556E+02  0.51327914657E+02 -0.16951697943E+02  0.98105533789E+02  0.79360759899E+02 0.  0.
          5    1    3    3  501    0  0.26315142207E+02  0.44846581199E+02 -0.84125791213E+02  0.99009804069E+02  0.47000000000E+01 0. -1.
        -13    1    4    4    0    0  0.25533696494E+02  0.19587001587E+01 -0.26816471231E+02  0.37080039000E+02  0.00000000000E+00 0.  1.
         14    1    4    4    0    0  0.37573732733E+02 -0.11682484880E+03 -0.31231358404E+03  0.33555864683E+03  0.00000000000E+00 0. -1.
         -5    1    5    5    0  502 -0.10953850199E+03  0.18691652785E+02 -0.60116319954E+01  0.11138353119E+03  0.47000000000E+01 0.  1.
         11    1    6    6    0    0 -0.12237580724E+02  0.56663960799E+02  0.57027808561E+01  0.58250189227E+02  0.00000000000E+00 0. -1.
        -12    1    6    6    0    0  0.32353511280E+02 -0.53360461426E+01 -0.22654478799E+02  0.39855344563E+02  0.00000000000E+00 0.  1.
</event>
<event>
12    1  0.8449700E-002  0.3979437E+03  0.7818608E-02  0.1044574E+00
         21   -1    0    0  501  502  0.00000000000E+00  0.00000000000E+00  0.11133492962E+04  0.11133492962E+04  0.00000000000E+00 0. -1.
         21   -1    0    0  502  503 -0.00000000000E+00 -0.00000000000E+00 -0.23272569810E+03  0.23272569810E+03  0.00000000000E+00 0. -1.
         -6    2    1    2    0  503 -0.35435333619E+03  0.55261261935E+02  0.86105264003E+03  0.94856250226E+03  0.17245021852E+03 0.  0.
        -24    2    3    3    0    0 -0.12540708870E+03  0.71872550298E+02  0.36645992627E+03  0.40327692420E+03  0.86294835592E+02 0.  0.
          6    2    1    2  501    0  0.35435333619E+03 -0.55261261935E+02  0.19570958106E+02  0.39751249206E+03  0.17033221951E+03 0.  0.
         24    2    5    5    0    0  0.75863963999E+02 -0.72330845083E+01  0.32318314801E+02  0.11458560865E+03  0.79232125391E+02 0.  0.
          5    1    5    5  501    0  0.27848937220E+03 -0.48028177427E+02 -0.12747356695E+02  0.28292688341E+03  0.47000000000E+01 0. -1.
        -13    1    6    6    0    0  0.30902408177E+02 -0.42663858785E+02  0.14728276495E+02  0.54699961665E+02  0.00000000000E+00 0.  1.
         14    1    6    6    0    0  0.44961555821E+02  0.35430774277E+02  0.17590038306E+02  0.59885646989E+02  0.00000000000E+00 0. -1.
         -5    1    3    3    0  503 -0.22894624750E+03 -0.16611288363E+02  0.49459271376E+03  0.54528557806E+03  0.47000000000E+01 0.  1.
         13    1    4    4    0    0 -0.41544973789E+02  0.31694052261E+02  0.24388752731E+03  0.24942258072E+03  0.00000000000E+00 0. -1.
        -14    1    4    4    0    0 -0.83862114908E+02  0.40178498037E+02  0.12257239896E+03  0.15385434348E+03  0.00000000000E+00 0.  1.
</event>
<event>
12    1  0.8449700E-002  0.1776755E+03  0.7818608E-02  0.1170301E+00
         21   -1    0    0  503  502  0.00000000000E+00  0.00000000000E+00  0.25572301783E+03  0.25572301783E+03  0.00000000000E+00 0. -1.
         21   -1    0    0  501  503 -0.00000000000E+00 -0.00000000000E+00 -0.25508870092E+03  0.25508870092E+03  0.00000000000E+00 0. -1.
          6    2    1    2  501    0  0.16780226147E+02  0.29073050250E+02 -0.18360731978E+03  0.25485555511E+03  0.17353065393E+03 0.  0.
         24    2    3    3    0    0  0.87096458744E+01  0.31123178975E+02 -0.20994191405E+03  0.22683880746E+03  0.79597280709E+02 0.  0.
         -6    2    1    2    0  502 -0.16780226147E+02 -0.29073050250E+02  0.18424163670E+03  0.25595616364E+03  0.17447566814E+03 0.  0.
        -24    2    5    5    0    0  0.16113710663E+02 -0.56482092470E+02  0.49486406925E+02  0.11448415713E+03  0.84898994828E+02 0.  0.
          5    1    3    3  501    0  0.80705802722E+01 -0.20501287243E+01  0.26334594266E+02  0.28016747649E+02  0.47000000000E+01 0. -1.
        -13    1    4    4    0    0 -0.37358498976E+01  0.16025386966E+02 -0.47694784258E+00  0.16461988978E+02  0.00000000000E+00 0.  1.
         14    1    4    4    0    0  0.12445495772E+02  0.15097792009E+02 -0.20946496620E+03  0.21037681848E+03  0.00000000000E+00 0. -1.
         -5    1    5    5    0  502 -0.32893936810E+02  0.27409042220E+02  0.13475522977E+03  0.14147200651E+03  0.47000000000E+01 0.  1.
         11    1    6    6    0    0 -0.14729364585E+02 -0.13990170960E+02  0.57852975469E+02  0.61315950904E+02  0.00000000000E+00 0. -1.
        -12    1    6    6    0    0  0.30843075248E+02 -0.42491921510E+02 -0.83665685443E+01  0.53168206228E+02  0.00000000000E+00 0.  1.
</event>
<event>
12    1  0.8449700E-002  0.1915790E+03  0.7818608E-02  0.1157638E+00
         21   -1    0    0  503  502  0.00000000000E+00  0.00000000000E+00  0.29575762217E+03  0.29575762217E+03  0.00000000000E+00 0. -1.
         21   -1    0    0  501  503 -0.00000000000E+00 -0.00000000000E+00 -0.42256142377E+03  0.42256142377E+03  0.00000000000E+00 0. -1.
          6    2    1    2  501    0 -0.46923509115E+02 -0.67616497730E+02 -0.36623582905E+03  0.41331728323E+03  0.17299909729E+03 0.  0.
         24    2    3    3    0    0 -0.72430417322E+02 -0.89643459766E+02 -0.20098041234E+03  0.24459493090E+03  0.78431108917E+02 0.  0.
         -6    2    1    2    0  502  0.46923509115E+02  0.67616497730E+02  0.23943202745E+03  0.30500176272E+03  0.17007225823E+03 0.  0.
        -24    2    5    5    0    0  0.13945038858E+02  0.21409904824E+02  0.31463742631E+02  0.89373549770E+02  0.79654354336E+02 0.  0.
          5    1    3    3  501    0  0.25506908206E+02  0.22026962036E+02 -0.16525541671E+03  0.16872235232E+03  0.47000000000E+01 0. -1.
        -13    1    4    4    0    0 -0.88206650546E+01 -0.66847580456E+02 -0.69885014537E+02  0.97109826494E+02  0.00000000000E+00 0.  1.
         14    1    4    4    0    0 -0.63609752267E+02 -0.22795879310E+02 -0.13109539780E+03  0.14748510441E+03  0.00000000000E+00 0. -1.
         -5    1    5    5    0  502  0.32978470257E+02  0.46206592905E+02  0.20796828482E+03  0.21562821295E+03  0.47000000000E+01 0.  1.
         13    1    6    6    0    0  0.24153191132E+02  0.27461323908E+02  0.53229844570E+02  0.64582639351E+02  0.00000000000E+00 0. -1.
        -14    1    6    6    0    0 -0.10208152274E+02 -0.60514190838E+01 -0.21766101939E+02  0.24790910418E+02  0.00000000000E+00 0.  1.
</event>
<event>
12    1  0.8449700E-002  0.2095063E+03  0.7818608E-02  0.1142219E+00
         21   -1    0    0  503  502  0.00000000000E+00  0.00000000000E+00  0.38924488744E+03  0.38924488744E+03  0.00000000000E+00 0.  1.
         21   -1    0    0  501  503 -0.00000000000E+00 -0.00000000000E+00 -0.31493729384E+03  0.31493729384E+03  0.00000000000E+00 0.  1.
          6    2    1    2  501    0 -0.82116921602E+02 -0.83606517902E+02 -0.24548006310E+03  0.32187729274E+03  0.17207931762E+03 0.  0.
         24    2    3    3    0    0 -0.45057753015E+02 -0.11368303902E+03 -0.22913685819E+03  0.27121005041E+03  0.78084295456E+02 0.  0.
         -6    2    1    2    0  502  0.82116921602E+02  0.83606517902E+02  0.31978765671E+03  0.38230488854E+03  0.17366532115E+03 0.  0.
        -24    2    5    5    0    0 -0.12003716954E+01  0.74585598275E+01  0.63507499805E+02  0.10223009192E+03  0.79754110583E+02 0.  0.
          5    1    3    3  501    0 -0.37059168587E+02  0.30076521115E+02 -0.16343204918E+02  0.50667242334E+02  0.47000000000E+01 0. -1.
        -11    1    4    4    0    0 -0.25749524088E+02 -0.11436080221E+02 -0.10753865788E+03  0.11116827272E+03  0.00000000000E+00 0.  1.
         12    1    4    4    0    0 -0.19308228926E+02 -0.10224695880E+03 -0.12159820031E+03  0.16004177769E+03  0.00000000000E+00 0. -1.
         -5    1    5    5    0  502  0.83317293297E+02  0.76147958075E+02  0.25628015690E+03  0.28007479662E+03  0.47000000000E+01 0.  1.
         11    1    6    6    0    0  0.17966343111E+01  0.39516564164E+02  0.11733532230E+02  0.41260907852E+02  0.00000000000E+00 0. -1.
        -12    1    6    6    0    0 -0.29970060065E+01 -0.32058004337E+02  0.51773967574E+02  0.60969184064E+02  0.00000000000E+00 0.  1.
</event>
<event>
12    1  0.8449700E-002  0.1901070E+03  0.7818608E-02  0.1161399E+00
         21   -1    0    0  501  502  0.00000000000E+00  0.00000000000E+00  0.82390257857E+03  0.82390257857E+03  0.00000000000E+00 0. -1.
         21   -1    0    0  502  503 -0.00000000000E+00 -0.00000000000E+00 -0.58443340105E+02  0.58443340105E+02  0.00000000000E+00 0.  1.
         -6    2    1    2    0  503 -0.78328406862E+02  0.22208811963E+02  0.13183174407E+03  0.22081401047E+03  0.15732338613E+03 0.  0.
        -24    2    3    3    0    0 -0.13014714691E+02 -0.13276560065E+02  0.11862927335E+03  0.14517351043E+03  0.81589176915E+02 0.  0.
          6    2    1    2  501    0  0.78328406862E+02 -0.22208811963E+02  0.63362749439E+03  0.66153190820E+03  0.17179084165E+03 0.  0.
         24    2    5    5    0    0  0.11961305337E+03 -0.27700549614E+02  0.46582956376E+03  0.48857868695E+03  0.81469920089E+02 0.  0.
          5    1    5    5  501    0 -0.41284646510E+02  0.54917376518E+01  0.16779793063E+03  0.17295322126E+03  0.47000000000E+01 0. -1.
        -11    1    6    6    0    0  0.30191149227E+02 -0.25905434093E+01  0.28857662331E+02  0.41844725857E+02  0.00000000000E+00 0.  1.
         12    1    6    6    0    0  0.89421904145E+02 -0.25110006205E+02  0.43697190143E+03  0.44673396109E+03  0.00000000000E+00 0. -1.
         -5    1    3    3    0  503 -0.65313692171E+02  0.35485372027E+02  0.13202470723E+02  0.75640500039E+02  0.47000000000E+01 0.  1.
         13    1    4    4    0    0 -0.31688764570E+02 -0.19955132602E+02  0.11959165236E+03  0.12531778976E+03  0.00000000000E+00 0. -1.
        -14    1    4    4    0    0  0.18674049879E+02  0.66785725373E+01 -0.96237900499E+00  0.19855720672E+02  0.00000000000E+00 0.  1.
</event>
<event>
12    1  0.8449700E-002  0.1849581E+03  0.7818608E-02  0.1163540E+00
         21   -1    0    0  503  502  0.00000000000E+00  0.00000000000E+00  0.56207993894E+02  0.56207993894E+02  0.00000000000E+00 0.  1.
         21   -1    0    0  501  503 -0.00000000000E+00 -0.00000000000E+00 -0.82435811647E+03  0.82435811647E+03  0.00000000000E+00 0.  1.
          6    2    1    2  501    0  0.58688658509E+02 -0.32136626917E+02 -0.61110837008E+03  0.63793139373E+03  0.17036989668E+03 0.  0.
         24    2    3    3    0    0  0.30461880551E+02 -0.79518841455E+02 -0.29606208060E+03  0.31805941971E+03  0.79106678502E+02 0.  0.
         -6    2    1    2    0  502 -0.58688658509E+02  0.32136626917E+02 -0.15704175250E+03  0.24263471664E+03  0.17243077528E+03 0.  0.
        -24    2    5    5    0    0 -0.37213475056E+01  0.78986200909E+02 -0.97182679618E+02  0.14871194800E+03  0.80113056983E+02 0.  0.
          5    1    3    3  501    0  0.28226777958E+02  0.47382214538E+02 -0.31504628948E+03  0.31987197402E+03  0.47000000000E+01 0. -1.
        -11    1    4    4    0    0  0.13599330165E+02 -0.43432217776E+02 -0.26117121351E+03  0.26510696348E+03  0.00000000000E+00 0.  1.
         12    1    4    4    0    0  0.16862550386E+02 -0.36086623679E+02 -0.34890867095E+02  0.52952456229E+02  0.00000000000E+00 0. -1.
         -5    1    5    5    0  502 -0.54967311004E+02 -0.46849573992E+02 -0.59859072878E+02  0.93922768635E+02  0.47000000000E+01 0.  1.
         13    1    6    6    0    0  0.17086386619E+02 -0.49584993701E+01 -0.43305641640E+02  0.46817837643E+02  0.00000000000E+00 0. -1.
        -14    1    6    6    0    0 -0.20807734125E+02  0.83944700279E+02 -0.53877037978E+02  0.10189411036E+03  0.00000000000E+00 0.  1.
</event>
<event>
12    1  0.8449700E-002  0.1772361E+03  0.7818608E-02  0.1170624E+00
         21   -1    0    0  503  502  0.00000000000E+00  0.00000000000E+00  0.66731274651E+02  0.66731274651E+02  0.00000000000E+00 0. -1.
         21   -1    0    0  501  503 -0.00000000000E+00 -0.00000000000E+00 -0.57157873990E+03  0.57157873990E+03  0.00000000000E+00 0. -1.
          6    2    1    2  501    0 -0.70696707660E+01  0.44041900089E+02 -0.38760957401E+03  0.42620866768E+03  0.17153127218E+03 0.  0.
         24    2    3    3    0    0 -0.36021170306E+02  0.87361505585E+02 -0.28186361650E+03  0.30822953785E+03  0.81417395746E+02 0.  0.
         -6    2    1    2    0  502  0.70696707660E+01 -0.44041900089E+02 -0.11723789124E+03  0.21210134687E+03  0.17103388259E+03 0.  0.
        -24    2    5    5    0    0 -0.22932966336E+02 -0.82946555183E+01 -0.13658741361E+03  0.16136164108E+03  0.82381644790E+02 0.  0.
          5    1    3    3  501    0  0.28951499540E+02 -0.43319605496E+02 -0.10574595751E+03  0.11797912983E+03  0.47000000000E+01 0. -1.
        -11    1    4    4    0    0  0.82033863650E+00  0.12269020586E+02 -0.15971378449E+03  0.16018643756E+03  0.00000000000E+00 0.  1.
         12    1    4    4    0    0 -0.36841508943E+02  0.75092484999E+02 -0.12214983201E+03  0.14804310029E+03  0.00000000000E+00 0. -1.
         -5    1    5    5    0  502  0.30002637102E+02 -0.35747244571E+02  0.19349522375E+02  0.50739705789E+02  0.47000000000E+01 0.  1.
         11    1    6    6    0    0 -0.46009654310E+02 -0.27870735514E+02 -0.70529919863E+02  0.88702512838E+02  0.00000000000E+00 0. -1.
        -12    1    6    6    0    0  0.23076687974E+02  0.19576079996E+02 -0.66057493750E+02  0.72659128239E+02  0.00000000000E+00 0.  1.
</event>
<event>
12    1  0.8449700E-002  0.1811905E+03  0.7818608E-02  0.1167084E+00
         21   -1    0    0  503  502  0.00000000000E+00  0.00000000000E+00  0.37302373655E+03  0.37302373655E+03  0.00000000000E+00 0.  1.
         21   -1    0    0  501  503 -0.00000000000E+00 -0.00000000000E+00 -0.15911661538E+03  0.15911661538E+03  0.00000000000E+00 0.  1.
          6    2    1    2  501    0 -0.53292364187E+02  0.58616095969E+01 -0.72273236380E+02  0.19342334934E+03  0.17121546900E+03 0.  0.
         24    2    3    3    0    0 -0.14492483720E+02 -0.60709100423E+02 -0.28554819870E+02  0.10470762300E+03  0.79073899731E+02 0.  0.
         -6    2    1    2    0  502  0.53292364187E+02 -0.58616095969E+01  0.28618035756E+03  0.33871700260E+03  0.17307679292E+03 0.  0.
        -24    2    5    5    0    0  0.86650437367E+02  0.32766287500E+02  0.15204803970E+03  0.19512576270E+03  0.79834384832E+02 0.  0.
          5    1    3    3  501    0 -0.38799880467E+02  0.66570710020E+02 -0.43718416511E+02  0.88715726334E+02  0.47000000000E+01 0. -1.
        -11    1    4    4    0    0  0.70039982381E+01 -0.17392475281E+02 -0.48804078659E+02  0.52281854227E+02  0.00000000000E+00 0.  1.
         12    1    4    4    0    0 -0.21496481958E+02 -0.43316625142E+02  0.20249258789E+02  0.52425768776E+02  0.00000000000E+00 0. -1.
         -5    1    5    5    0  502 -0.33358073180E+02 -0.38627897097E+02  0.13413231786E+03  0.14359123989E+03  0.47000000000E+01 0.  1.
         11    1    6    6    0    0  0.29427532927E+01  0.23238834590E+02  0.26018814792E+01  0.23568475073E+02  0.00000000000E+00 0. -1.
        -12    1    6    6    0    0  0.83707684074E+02  0.95274529102E+01  0.14944615822E+03  0.17155728763E+03  0.00000000000E+00 0.  1.
</event>
<event>
12    1  0.8449700E-002  0.1962664E+03  0.7818608E-02  0.1153795E+00
         21   -1    0    0  503  502  0.00000000000E+00  0.00000000000E+00  0.45107216391E+03  0.45107216391E+03  0.00000000000E+00 0.  1.
         21   -1    0    0  501  503 -0.00000000000E+00 -0.00000000000E+00 -0.89491934412E+02  0.89491934412E+02  0.00000000000E+00 0.  1.
          6    2    1    2  501    0  0.52652388234E+02  0.73293204344E+02  0.11363563359E+03  0.22678966120E+03  0.17428805299E+03 0.  0.
         24    2    3    3    0    0  0.30655943103E+02 -0.27453281371E+02  0.68158297928E+02  0.11398905818E+03  0.81575010285E+02 0.  0.
         -6    2    1    2    0  502 -0.52652388234E+02 -0.73293204344E+02  0.24794459591E+03  0.31377443712E+03  0.16980490853E+03 0.  0.
        -24    2    5    5    0    0 -0.73925036942E+02 -0.10653340460E+03  0.19002079428E+03  0.24352706499E+03  0.79895254807E+02 0.  0.
          5    1    3    3  501    0  0.21996445131E+02  0.10074648572E+03  0.45477335657E+02  0.11280060302E+03  0.47000000000E+01 0. -1.
        -13    1    4    4    0    0  0.32607182147E+02 -0.16442645239E+02  0.85717093130E+02  0.93171932279E+02  0.00000000000E+00 0.  1.
         14    1    4    4    0    0 -0.19512390440E+01 -0.11010636133E+02 -0.17558795202E+02  0.20817125902E+02  0.00000000000E+00 0. -1.
         -5    1    5    5    0  502  0.21272648708E+02  0.33240200258E+02  0.57923801636E+02  0.70247372137E+02  0.47000000000E+01 0.  1.
         11    1    6    6    0    0 -0.35608860693E+02 -0.39406520452E+02  0.14420750665E+03  0.15367716092E+03  0.00000000000E+00 0. -1.
        -12    1    6    6    0    0 -0.38316176249E+02 -0.67126884150E+02  0.45813287629E+02  0.89849904070E+02  0.00000000000E+00 0.  1.
</event>
<event>
12    1  0.8449700E-002  0.1779506E+03  0.7818608E-02  0.1170753E+00
         21   -1    0    0  503  502  0.00000000000E+00  0.00000000000E+00  0.29895345419E+04  0.29895345419E+04  0.00000000000E+00 0.  1.
         21   -1    0    0  501  503 -0.00000000000E+00 -0.00000000000E+00 -0.11111941835E+02  0.11111941835E+02  0.00000000000E+00 0.  1.
          6    2    1    2  501    0  0.16154562444E+02  0.41131044648E+02  0.10852932400E+04  0.10991720043E+04  0.16841895847E+03 0.  0.
         24    2    3    3    0    0 -0.15305531244E+02  0.84112884973E+02  0.65432633996E+03  0.66490050512E+03  0.81489176172E+02 0.  0.
         -6    2    1    2    0  502 -0.16154562444E+02 -0.41131044648E+02  0.18931293602E+04  0.19014744795E+04  0.17237659121E+03 0.  0.
        -24    2    5    5    0    0  0.63865466744E+01  0.16824431836E+02  0.56178870891E+03  0.56867405989E+03  0.86370037924E+02 0.  0.
          5    1    3    3  501    0  0.31460093688E+02 -0.42981840324E+02  0.43096689999E+03  0.43427149916E+03  0.47000000000E+01 0. -1.
        -11    1    4    4    0    0 -0.23460647038E+02  0.85172119099E+02  0.64925710410E+03  0.65524001637E+03  0.00000000000E+00 0.  1.
         12    1    4    4    0    0  0.81551157945E+01 -0.10592341268E+01  0.50692358592E+01  0.96604887430E+01  0.00000000000E+00 0. -1.
         -5    1    5    5    0  502 -0.22541109118E+02 -0.57955476484E+02  0.13313406512E+04  0.13328004196E+04  0.47000000000E+01 0.  1.
         11    1    6    6    0    0 -0.13593716335E+02  0.46709564127E+02  0.39952620272E+03  0.40247702936E+03  0.00000000000E+00 0. -1.
        -12    1    6    6    0    0  0.19980263010E+02 -0.29885132291E+02  0.16226250619E+03  0.16619703053E+03  0.00000000000E+00 0.  1.
</event>
<event>
12    1  0.8449700E-002  0.1910777E+03  0.7818608E-02  0.1159469E+00
         21   -1    0    0  503  502  0.00000000000E+00  0.00000000000E+00  0.22276990146E+03  0.22276990146E+03  0.00000000000E+00 0. -1.
         21   -1    0    0  501  503 -0.00000000000E+00 -0.00000000000E+00 -0.16327983213E+03  0.16327983213E+03  0.00000000000E+00 0. -1.
          6    2    1    2  501    0  0.65052471999E+02 -0.49138974704E+02 -0.86614727185E+01  0.19127392648E+03  0.17281270466E+03 0.  0.
         24    2    3    3    0    0  0.44533783832E+02 -0.82290338543E+02 -0.51803368229E+02  0.13293575170E+03  0.78951677626E+02 0.  0.
         -6    2    1    2    0  502 -0.65052471999E+02  0.49138974704E+02  0.68151542046E+02  0.19477580711E+03  0.16323761639E+03 0.  0.
        -24    2    5    5    0    0 -0.67621546968E+02  0.91829243271E+02  0.53578794154E+02  0.14934988767E+03  0.80183653128E+02 0.  0.
          5    1    3    3  501    0  0.20518688168E+02  0.33151363840E+02  0.43141895511E+02  0.58338174781E+02  0.47000000000E+01 0. -1.
        -13    1    4    4    0    0  0.31137328127E+02 -0.66319914881E+02  0.39912701619E+01  0.73374345313E+02  0.00000000000E+00 0.  1.
         14    1    4    4    0    0  0.13396455705E+02 -0.15970423663E+02 -0.55794638391E+02  0.59561406386E+02  0.00000000000E+00 0. -1.
         -5    1    5    5    0  502  0.25690749684E+01 -0.42690268568E+02  0.14572747891E+02  0.45425919448E+02  0.47000000000E+01 0.  1.
         13    1    6    6    0    0 -0.31330740227E+02  0.63108556237E+01  0.46173124522E+02  0.56155138767E+02  0.00000000000E+00 0. -1.
        -14    1    6    6    0    0 -0.36290806741E+02  0.85518387648E+02  0.74056696325E+01  0.93194748900E+02  0.00000000000E+00 0.  1.
</event>
<event>
12    1  0.8449700E-002  0.1859165E+03  0.7818608E-02  0.1162472E+00
         21   -1    0    0  501  502  0.00000000000E+00  0.00000000000E+00  0.18413765728E+04  0.18413765728E+04  0.00000000000E+00 0.  1.
         21   -1    0    0  502  503 -0.00000000000E+00 -0.00000000000E+00 -0.33725744490E+02  0.33725744490E+02  0.00000000000E+00 0.  1.
         -6    2    1    2    0  503  0.61373397104E+02 -0.29720705482E+02  0.27544065061E+03  0.33165391216E+03  0.17168794726E+03 0.  0.
        -24    2    3    3    0    0  0.42063925553E+02 -0.66968601579E+02  0.10859763867E+03  0.15955236630E+03  0.86077540833E+02 0.  0.
          6    2    1    2  501    0 -0.61373397104E+02  0.29720705482E+02  0.15322101777E+04  0.15434484051E+04  0.17295934911E+03 0.  0.
         24    2    5    5    0    0 -0.34538038626E+02 -0.91762627093E+01  0.14050591925E+04  0.14077186235E+04  0.78761084592E+02 0.  0.
          5    1    5    5  501    0 -0.26835358478E+02  0.38896968192E+02  0.12715098515E+03  0.13572978164E+03  0.47000000000E+01 0. -1.
        -13    1    6    6    0    0 -0.47622162872E+02  0.16039576343E+02  0.58072527908E+03  0.58289534925E+03  0.00000000000E+00 0.  1.
         14    1    6    6    0    0  0.13084124246E+02 -0.25215839052E+02  0.82433391343E+03  0.82482327421E+03  0.00000000000E+00 0. -1.
         -5    1    3    3    0  503  0.19309471551E+02  0.37247896096E+02  0.16684301194E+03  0.17210154586E+03  0.47000000000E+01 0.  1.
         11    1    4    4    0    0  0.53195789354E+02 -0.78744352445E+02  0.10724759066E+03  0.14329169811E+03  0.00000000000E+00 0. -1.
        -12    1    4    4    0    0 -0.11131863801E+02  0.11775750866E+02  0.13500480155E+01  0.16260668184E+02  0.00000000000E+00 0.  1.
</event>
<event>
12    1  0.8449700E-002  0.5733916E+03  0.7818608E-02  0.9962256E-01
         21   -1    0    0  503  502  0.00000000000E+00  0.00000000000E+00  0.71024490572E+03  0.71024490572E+03  0.00000000000E+00 0.  1.
         21   -1    0    0  501  503 -0.00000000000E+00 -0.00000000000E+00 -0.15290413435E+04  0.15290413435E+04  0.00000000000E+00 0. -1.
          6    2    1    2  501    0  0.30436178550E+03  0.44945041028E+03 -0.13443454878E+04  0.14614818122E+04  0.18445196981E+03 0.  0.
         24    2    3    3    0    0  0.47636223709E+02  0.16423437396E+03 -0.47813835543E+03  0.51406791767E+03  0.80046221948E+02 0.  0.
         -6    2    1    2    0  502 -0.30436178550E+03 -0.44945041028E+03  0.52554904995E+03  0.77780443704E+03  0.18475976458E+03 0.  0.
        -24    2    5    5    0    0 -0.57436500558E+02 -0.12072501565E+03  0.20023625479E+03  0.25351159319E+03  0.79373100931E+02 0.  0.
          5    1    3    3  501    0  0.25672556179E+03  0.28521603632E+03 -0.86620713235E+03  0.94741389455E+03  0.47000000000E+01 0. -1.
        -13    1    4    4    0    0  0.14495525126E+02  0.42707061079E+02 -0.47995578813E+02  0.65860374280E+02  0.00000000000E+00 0.  1.
         14    1    4    4    0    0  0.33140698584E+02  0.12152731288E+03 -0.43014277662E+03  0.44820754339E+03  0.00000000000E+00 0. -1.
         -5    1    5    5    0  502 -0.24692528494E+03 -0.32872539463E+03  0.32531279517E+03  0.52429284385E+03  0.47000000000E+01 0.  1.
         11    1    6    6    0    0 -0.74286073741E+02 -0.71969585184E+02  0.14261311097E+03  0.17617190855E+03  0.00000000000E+00 0. -1.
        -12    1    6    6    0    0  0.16849573183E+02 -0.48755430465E+02  0.57623143816E+02  0.77339684635E+02  0.00000000000E+00 0.  1.
</event>
<event>
12    1  0.8449700E-002  0.2022776E+03  0.7818608E-02  0.1148215E+00
         21   -1    0    0  501  502  0.00000000000E+00  0.00000000000E+00  0.53069604490E+03  0.53069604490E+03  0.00000000000E+00 0.  1.
         21   -1    0    0  502  503 -0.00000000000E+00 -0.00000000000E+00 -0.78700268675E+02  0.78700268675E+02  0.00000000000E+00 0.  1.
         -6    2    1    2    0  503 -0.33101964272E+01  0.10018097260E+03  0.27708300817E+03  0.34198144935E+03  0.17357745710E+03 0.  0.
        -24    2    3    3    0    0 -0.31230480568E+02  0.12110114337E+03  0.15397131345E+03  0.21393546079E+03  0.80127312286E+02 0.  0.
          6    2    1    2  501    0  0.33101964272E+01 -0.10018097260E+03  0.17491276805E+03  0.26741486422E+03  0.17569589781E+03 0.  0.
         24    2    5    5    0    0  0.50852689936E+02 -0.11507374394E+03  0.15092424473E+03  0.21192051695E+03  0.79399088408E+02 0.  0.
          5    1    5    5  501    0 -0.47542493509E+02  0.14892771344E+02  0.23988523322E+02  0.55494347266E+02  0.47000000000E+01 0. -1.
        -11    1    6    6    0    0  0.37800958381E+02 -0.94203166281E+02  0.60414293667E+02  0.11812296928E+03  0.00000000000E+00 0.  1.
         12    1    6    6    0    0  0.13051731555E+02 -0.20870577662E+02  0.90509951064E+02  0.93797547677E+02  0.00000000000E+00 0. -1.
         -5    1    3    3    0  503  0.27920284141E+02 -0.20920170768E+02  0.12311169472E+03  0.12804598857E+03  0.47000000000E+01 0.  1.
         13    1    4    4    0    0  0.30281947749E+01  0.95758857170E+02  0.13889724036E+03  0.16873462025E+03  0.00000000000E+00 0. -1.
        -14    1    4    4    0    0 -0.34258675343E+02  0.25342286197E+02  0.15074073094E+02  0.45200840541E+02  0.00000000000E+00 0.  1.
</event>
<event>
12    1  0.8449700E-002  0.1902574E+03  0.7818608E-02  0.1158233E+00
         21   -1    0    0  503  502  0.00000000000E+00  0.00000000000E+00  0.53375587000E+03  0.53375587000E+03  0.00000000000E+00 0. -1.
         21   -1    0    0  501  503 -0.00000000000E+00 -0.00000000000E+00 -0.87805332624E+02  0.87805332624E+02  0.00000000000E+00 0. -1.
          6    2    1    2  501    0  0.61869853184E+02 -0.52644723275E+02  0.74665541749E+02  0.20436766822E+03  0.17202283298E+03 0.  0.
         24    2    3    3    0    0  0.10827335053E+03 -0.32671916031E+02  0.52209729870E+02  0.14888297590E+03  0.81545766834E+02 0.  0.
         -6    2    1    2    0  502 -0.61869853184E+02  0.52644723275E+02  0.37128499563E+03  0.41719353441E+03  0.17204229581E+03 0.  0.
        -24    2    5    5    0    0 -0.90316904236E+02  0.44666393486E+02  0.21420762268E+03  0.25729269153E+03  0.10080869805E+03 0.  0.
          5    1    3    3  501    0 -0.46403497342E+02 -0.19972807245E+02  0.22455811879E+02  0.55484692321E+02  0.47000000000E+01 0. -1.
        -13    1    4    4    0    0  0.83247611864E+02  0.89605278558E+01  0.55083290701E+02  0.10022287591E+03  0.00000000000E+00 0.  1.
         14    1    4    4    0    0  0.25025738662E+02 -0.41632443887E+02 -0.28735608309E+01  0.48660099993E+02  0.00000000000E+00 0. -1.
         -5    1    5    5    0  502  0.28447051052E+02  0.79783297896E+01  0.15707737295E+03  0.15990084288E+03  0.47000000000E+01 0.  1.
         11    1    6    6    0    0  0.22868018535E+01  0.41681680350E+02  0.31022111431E+02  0.52009262033E+02  0.00000000000E+00 0. -1.
        -12    1    6    6    0    0 -0.92603706090E+02  0.29847131354E+01  0.18318551125E+03  0.20528342950E+03  0.00000000000E+00 0.  1.
</event>
<event>
12    1  0.8449700E-002  0.2047996E+03  0.7818608E-02  0.1147858E+00
         21   -1    0    0  503  502  0.00000000000E+00  0.00000000000E+00  0.26126015635E+03  0.26126015635E+03  0.00000000000E+00 0.  1.
         21   -1    0    0  501  503 -0.00000000000E+00 -0.00000000000E+00 -0.15627903497E+03  0.15627903497E+03  0.00000000000E+00 0.  1.
          6    2    1    2  501    0 -0.58418222442E+01 -0.91546881799E+02  0.19963432519E+02  0.19579413304E+03  0.17181922314E+03 0.  0.
         24    2    3    3    0    0 -0.57378998665E+02 -0.10249190817E+03  0.61675789922E+01  0.14112888146E+03  0.77989623820E+02 0.  0.
         -6    2    1    2    0  502  0.58418222442E+01  0.91546881799E+02  0.85017688860E+02  0.22174505828E+03  0.18310626695E+03 0.  0.
        -24    2    5    5    0    0  0.12022988692E+02 -0.22585151308E+02  0.66579040429E+02  0.10587270801E+03  0.78240784513E+02 0.  0.
          5    1    3    3  501    0  0.51537176421E+02  0.10945026368E+02  0.13795853527E+02  0.54665251578E+02  0.47000000000E+01 0. -1.
        -11    1    4    4    0    0  0.25572638652E+01 -0.74202917993E+02 -0.24914699169E+01  0.74288761327E+02  0.00000000000E+00 0.  1.
         12    1    4    4    0    0 -0.59936262530E+02 -0.28288990173E+02  0.86590489091E+01  0.66840120131E+02  0.00000000000E+00 0. -1.
         -5    1    5    5    0  502 -0.61811664482E+01  0.11413203311E+03  0.18438648431E+02  0.11587235026E+03  0.47000000000E+01 0.  1.
         11    1    6    6    0    0 -0.13330045716E+02 -0.29855156238E+02 -0.16355995828E+01  0.32736763108E+02  0.00000000000E+00 0. -1.
        -12    1    6    6    0    0  0.25353034408E+02  0.72700049301E+01  0.68214640012E+02  0.73135944906E+02  0.00000000000E+00 0.  1.
</event>
<event>
12    1  0.8449700E-002  0.1785393E+03  0.7818608E-02  0.1169476E+00
         21   -1    0    0  503  502  0.00000000000E+00  0.00000000000E+00  0.10466334976E+04  0.10466334976E+04  0.00000000000E+00 0.  1.
         21   -1    0    0  501  503 -0.00000000000E+00 -0.00000000000E+00 -0.38099028668E+02  0.38099028668E+02  0.00000000000E+00 0.  1.
          6    2    1    2  501    0 -0.29395301492E+02 -0.32620170319E+02  0.25974018404E+03  0.31518446283E+03  0.17305526038E+03 0.  0.
         24    2    3    3    0    0  0.16210689796E+02 -0.70449062887E+02  0.11460385063E+03  0.15834831640E+03  0.81940770079E+02 0.  0.
         -6    2    1    2    0  502  0.29395301492E+02  0.32620170319E+02  0.74879428487E+03  0.76954806341E+03  0.17199762087E+03 0.  0.
        -24    2    5    5    0    0  0.42742831866E+02  0.79404205605E+02  0.41159589056E+03  0.42882566959E+03  0.79676221241E+02 0.  0.
          5    1    3    3  501    0 -0.45605991287E+02  0.37828892568E+02  0.14513633340E+03  0.15683614643E+03  0.47000000000E+01 0. -1.
        -13    1    4    4    0    0 -0.27247614354E+02 -0.46386868157E+02  0.33918782560E+02  0.63597624450E+02  0.00000000000E+00 0.  1.
         14    1    4    4    0    0  0.43458304149E+02 -0.24062194730E+02  0.80685068074E+02  0.94750691949E+02  0.00000000000E+00 0. -1.
         -5    1    5    5    0  502 -0.13347530374E+02 -0.46784035286E+02  0.33719839432E+03  0.34072239382E+03  0.47000000000E+01 0.  1.
         13    1    6    6    0    0  0.57240401827E+02  0.47757822631E+02  0.18310541301E+03  0.19769892639E+03  0.00000000000E+00 0. -1.
        -14    1    6    6    0    0 -0.14497569961E+02  0.31646382974E+02  0.22849047755E+03  0.23112674320E+03  0.00000000000E+00 0.  1.
</event>
<event>
12    1  0.8449700E-002  0.4825148E+03  0.7818608E-02  0.1018461E+00
         21   -1    0    0  503  502  0.00000000000E+00  0.00000000000E+00  0.21890994135E+04  0.21890994135E+04  0.00000000000E+00 0. -1.
         21   -1    0    0  501  503 -0.00000000000E+00 -0.00000000000E+00 -0.15582486044E+03  0.15582486044E+03  0.00000000000E+00 0.  1.
          6    2    1    2  501    0  0.44965793909E+03  0.26331748445E+02  0.35585673996E+03  0.59954528754E+03  0.17301707798E+03 0.  0.
         24    2    3    3    0    0  0.41058450098E+03  0.30737264412E+02  0.25371503813E+03  0.48999548430E+03  0.78739076665E+02 0.  0.
         -6    2    1    2    0  502 -0.44965793909E+03 -0.26331748445E+02  0.16774178131E+04  0.17453789864E+04  0.17242871942E+03 0.  0.
        -24    2    5    5    0    0 -0.36620878584E+03 -0.61166266460E+02  0.11731509217E+04  0.12330466796E+04  0.79188648213E+02 0.  0.
          5    1    3    3  501    0  0.39073438108E+02 -0.44055159674E+01  0.10214170183E+03  0.10954980324E+03  0.47000000000E+01 0. -1.
        -13    1    4    4    0    0  0.32192662191E+03 -0.77390065710E+01  0.20534062829E+03  0.38191807464E+03  0.00000000000E+00 0.  1.
         14    1    4    4    0    0  0.88657879073E+02  0.38476270983E+02  0.48374409847E+02  0.10807740966E+03  0.00000000000E+00 0. -1.
         -5    1    5    5    0  502 -0.83449153245E+02  0.34834518015E+02  0.50426689142E+03  0.51233230682E+03  0.47000000000E+01 0.  1.
         13    1    6    6    0    0 -0.19457298983E+03 -0.62754848649E+02  0.72054617708E+03  0.74898839290E+03  0.00000000000E+00 0. -1.
        -14    1    6    6    0    0 -0.17163579601E+03  0.15885821897E+01  0.45260474460E+03  0.48405828667E+03  0.00000000000E+00 0.  1.
</event>
<event>
12    1  0.8449700E-002  0.2663334E+03  0.7818608E-02  0.1103417E+00
         21   -1    0    0  503  502  0.00000000000E+00  0.00000000000E+00  0.12797833537E+03  0.12797833537E+03  0.00000000000E+00 0. -1.
         21   -1    0    0  501  503 -0.00000000000E+00 -0.00000000000E+00 -0.94681556350E+03  0.94681556350E+03  0.00000000000E+00 0.  1.
          6    2    1    2  501    0  0.86410727308E+02  0.18397862702E+03 -0.75551265039E+03  0.80103585601E+03  0.17188405604E+03 0.  0.
         24    2    3    3    0    0  0.54271619489E+02  0.49656867834E+02 -0.51683036809E+03  0.52523415347E+03  0.57845253759E+02 0.  0.
         -6    2    1    2    0  502 -0.86410727308E+02 -0.18397862702E+03 -0.63324577735E+02  0.27375804285E+03  0.17210030473E+03 0.  0.
        -24    2    5    5    0    0  0.13944640604E+02 -0.72497015377E+02 -0.64987577030E+02  0.12367738064E+03  0.74982925215E+02 0.  0.
          5    1    3    3  501    0  0.32139107819E+02  0.13432175919E+03 -0.23868228230E+03  0.27580170254E+03  0.47000000000E+01 0. -1.
        -13    1    4    4    0    0  0.27745489580E+02  0.59180705820E+02 -0.35449471244E+03  0.36047006711E+03  0.00000000000E+00 0.  1.
         14    1    4    4    0    0  0.26526129910E+02 -0.95238379862E+01 -0.16233565565E+03  0.16476408636E+03  0.00000000000E+00 0. -1.
         -5    1    5    5    0  502 -0.10035536791E+03 -0.11148161165E+03  0.16629992953E+01  0.15008066221E+03  0.47000000000E+01 0.  1.
         13    1    6    6    0    0 -0.13187350944E+02 -0.76630129134E+02 -0.49219107226E+02  0.92025015252E+02  0.00000000000E+00 0. -1.
        -14    1    6    6    0    0  0.27131991549E+02  0.41331137573E+01 -0.15768469804E+02  0.31652365388E+02  0.00000000000E+00 0.  1.
</event>
<event>
12    1  0.8449700E-002  0.1802547E+03  0.7818608E-02  0.1167838E+00
         21   -1    0    0  501  502  0.00000000000E+00  0.00000000000E+00  0.10828658911E+03  0.10828658911E+03  0.00000000000E+00 0.  1.
         21   -1    0    0  502  503 -0.00000000000E+00 -0.00000000000E+00 -0.63167254718E+03  0.63167254718E+03  0.00000000000E+00 0.  1.
         -6    2    1    2    0  503 -0.10787736414E+02 -0.54160544837E+02 -0.53094032059E+03  0.56070435946E+03  0.17158675592E+03 0.  0.
        -24    2    3    3    0    0  0.43474917924E+02 -0.63112302013E+02 -0.23441754365E+03  0.25908801896E+03  0.79383787013E+02 0.  0.
          6    2    1    2  501    0  0.10787736414E+02  0.54160544837E+02  0.75543625198E+01  0.17925477684E+03  0.17036862021E+03 0.  0.
         24    2    5    5    0    0  0.42187174138E+02 -0.42953174701E+01  0.53211710684E+02  0.98572089920E+02  0.71321548941E+02 0.  0.
          5    1    5    5  501    0 -0.31399437724E+02  0.58455862307E+02 -0.45657348164E+02  0.80682686921E+02  0.47000000000E+01 0. -1.
        -11    1    6    6    0    0 -0.35153732501E+01 -0.30059296788E+02  0.15845368577E+02  0.34161306735E+02  0.00000000000E+00 0.  1.
         12    1    6    6    0    0  0.45702547388E+02  0.25763979318E+02  0.37366342107E+02  0.64410783185E+02  0.00000000000E+00 0. -1.
         -5    1    3    3    0  503 -0.54262654338E+02  0.89517571760E+01 -0.29652277694E+03  0.30161634050E+03  0.47000000000E+01 0.  1.
         11    1    4    4    0    0  0.55005711906E+02 -0.21021900313E+02 -0.84834801212E+02  0.10326902794E+03  0.00000000000E+00 0. -1.
        -12    1    4    4    0    0 -0.11530793981E+02 -0.42090401700E+02 -0.14958274244E+03  0.15581899102E+03  0.00000000000E+00 0.  1.
</event>
<event>
12    1  0.8449700E-002  0.1819979E+03  0.7818608E-02  0.1166407E+00
         21   -1    0    0  503  502  0.00000000000E+00  0.00000000000E+00  0.55188669045E+03  0.55188669045E+03  0.00000000000E+00 0.  1.
         21   -1    0    0  501  503 -0.00000000000E+00 -0.00000000000E+00 -0.60058630309E+02  0.60058630309E+02  0.00000000000E+00 0.  1.
          6    2    1    2  501    0  0.33650686615E+02 -0.42773982974E+02  0.28173767393E+03  0.33540924374E+03  0.17366997882E+03 0.  0.
         24    2    3    3    0    0  0.20956452579E+02  0.31502869602E+01  0.46124750827E+02  0.94981038903E+02  0.80279560908E+02 0.  0.
         -6    2    1    2    0  502 -0.33650686615E+02  0.42773982974E+02  0.21009038622E+03  0.27653607703E+03  0.17138333988E+03 0.  0.
        -24    2    5    5    0    0  0.24911849635E+02  0.13240070040E+02  0.18980546793E+03  0.20772190280E+03  0.79538503489E+02 0.  0.
          5    1    3    3  501    0  0.12694234037E+02 -0.45924269935E+02  0.23561292310E+03  0.24042820483E+03  0.47000000000E+01 0. -1.
        -11    1    4    4    0    0  0.26139249451E+02 -0.32197036811E+02  0.41989595461E+02  0.59017248904E+02  0.00000000000E+00 0.  1.
         12    1    4    4    0    0 -0.51827968723E+01  0.35347323771E+02  0.41351553669E+01  0.35963789999E+02  0.00000000000E+00 0. -1.
         -5    1    5    5    0  502 -0.58562536251E+02  0.29533912935E+02  0.20284918285E+02  0.68814174231E+02  0.47000000000E+01 0.  1.
         11    1    6    6    0    0  0.49792027509E+02 -0.65248777887E+01  0.91051163056E+02  0.10398141337E+03  0.00000000000E+00 0. -1.
        -12    1    6    6    0    0 -0.24880177874E+02  0.19764947829E+02  0.98754304876E+02  0.10374048942E+03  0.00000000000E+00 0.  1.
</event>
<event>
12    1  0.8449700E-002  0.1849750E+03  0.7818608E-02  0.1164941E+00
         21   -1    0    0  503  502  0.00000000000E+00  0.00000000000E+00  0.24264519703E+03  0.24264519703E+03  0.00000000000E+00 0. -1.
         21   -1    0    0  501  503 -0.00000000000E+00 -0.00000000000E+00 -0.31071400918E+03  0.31071400918E+03  0.00000000000E+00 0. -1.
          6    2    1    2  501    0  0.17232874380E+02 -0.37955180688E+02 -0.24232972145E+03  0.30485972471E+03  0.18021706399E+03 0.  0.
         24    2    3    3    0    0  0.79814586087E+02 -0.68046170056E+01 -0.15601492537E+03  0.19368795545E+03  0.82205207771E+02 0.  0.
         -6    2    1    2    0  502 -0.17232874380E+02  0.37955180688E+02  0.17426090930E+03  0.24849948151E+03  0.17218466859E+03 0.  0.
        -24    2    5    5    0    0  0.88523154130E+01  0.32253207599E+02  0.19628643322E+03  0.21356864516E+03  0.77230625014E+02 0.  0.
          5    1    3    3  501    0 -0.62581711707E+02 -0.31150563683E+02 -0.86314796080E+02  0.11117176926E+03  0.47000000000E+01 0. -1.
        -13    1    4    4    0    0 -0.13793194917E+02 -0.57055669836E+01 -0.45080074923E+01  0.15592557589E+02  0.00000000000E+00 0.  1.
         14    1    4    4    0    0  0.93607781005E+02 -0.10990500220E+01 -0.15150691788E+03  0.17809539786E+03  0.00000000000E+00 0. -1.
         -5    1    5    5    0  502 -0.26085189793E+02  0.57019730898E+01 -0.22025523924E+02  0.34930836345E+02  0.47000000000E+01 0.  1.
         13    1    6    6    0    0 -0.13593979384E+02  0.47574703003E+02  0.16433714602E+03  0.17162414225E+03  0.00000000000E+00 0. -1.
        -14    1    6    6    0    0  0.22446294797E+02 -0.15321495405E+02  0.31949287198E+02  0.41944502906E+02  0.00000000000E+00 0.  1.
</event>
<event>
12    1  0.8449700E-002  0.2452581E+03  0.7818608E-02  0.1116400E+00
         21   -1    0    0  503  502  0.00000000000E+00  0.00000000000E+00  0.53731696053E+03  0.53731696053E+03  0.00000000000E+00 0.  1.
         21   -1    0    0  501  503 -0.00000000000E+00 -0.00000000000E+00 -0.11189788100E+03  0.11189788100E+03  0.00000000000E+00 0.  1.
          6    2    1    2  501    0 -0.52457624735E+02  0.16640172719E+03  0.22366205625E+03  0.33192805707E+03  0.17236641916E+03 0.  0.
         24    2    3    3    0    0 -0.70079016451E+02  0.11387677494E+03  0.22842335080E+03  0.27612354129E+03  0.78663806463E+02 0.  0.
         -6    2    1    2    0  502  0.52457624735E+02 -0.16640172719E+03  0.20175702328E+03  0.31728678447E+03  0.17182453245E+03 0.  0.
        -24    2    5    5    0    0 -0.37016318118E+02 -0.69797693020E+02  0.10721554354E+03  0.15511987274E+03  0.79530348826E+02 0.  0.
          5    1    3    3  501    0  0.17621391716E+02  0.52524952255E+02 -0.47612945444E+01  0.55804515778E+02  0.47000000000E+01 0. -1.
        -11    1    4    4    0    0 -0.10825669648E+01  0.75304617157E+02  0.97682986679E+02  0.12334473318E+03  0.00000000000E+00 0.  1.
         12    1    4    4    0    0 -0.68996449486E+02  0.38572157779E+02  0.13074036412E+03  0.15277880811E+03  0.00000000000E+00 0. -1.
         -5    1    5    5    0  502  0.89473942853E+02 -0.96604034171E+02  0.94541479739E+02  0.16216691173E+03  0.47000000000E+01 0.  1.
         11    1    6    6    0    0  0.21389923798E+02 -0.34371766103E+01  0.34095341558E+02  0.40395981719E+02  0.00000000000E+00 0. -1.
        -12    1    6    6    0    0 -0.58406241916E+02 -0.66360516410E+02  0.73120201981E+02  0.11472389102E+03  0.00000000000E+00 0.  1.
</event>
<event>
12    1  0.8449700E-002  0.2533687E+03  0.7818608E-02  0.1111656E+00
         21   -1    0    0  501  502  0.00000000000E+00  0.00000000000E+00  0.11500977865E+03  0.11500977865E+03  0.00000000000E+00 0.  1.
         21   -1    0    0  502  503 -0.00000000000E+00 -0.00000000000E+00 -0.57286679502E+03  0.57286679502E+03  0.00000000000E+00 0. -1.
         -6    2    1    2    0  503  0.17683138328E+03 -0.56992893595E+02 -0.29636254663E+03  0.38990571772E+03  0.17227356626E+03 0.  0.
        -24    2    3    3    0    0  0.71988359752E+02 -0.90606865655E+02 -0.12732489154E+03  0.18811925252E+03  0.76061140658E+02 0.  0.
          6    2    1    2  501    0 -0.17683138328E+03  0.56992893595E+02 -0.16149446974E+03  0.29797085596E+03  0.16789472657E+03 0.  0.
         24    2    5    5    0    0 -0.15293327449E+03  0.34905697364E+02 -0.52747125437E+02  0.18436170697E+03  0.81240295414E+02 0.  0.
          5    1    5    5  501    0 -0.23898108790E+02  0.22087196230E+02 -0.10874734431E+03  0.11360914899E+03  0.47000000000E+01 0. -1.
        -11    1    6    6    0    0 -0.15164423560E+03  0.10301603202E+02 -0.46424166746E+02  0.15892545572E+03  0.00000000000E+00 0.  1.
         12    1    6    6    0    0 -0.12890388942E+01  0.24604094163E+02 -0.63229586914E+01  0.25436251246E+02  0.00000000000E+00 0. -1.
         -5    1    3    3    0  503  0.10484302353E+03  0.33613972061E+02 -0.16903765508E+03  0.20178646520E+03  0.47000000000E+01 0.  1.
         13    1    4    4    0    0  0.30181024885E+02  0.62025404863E+01 -0.15772808991E+02  0.34614264040E+02  0.00000000000E+00 0. -1.
        -14    1    4    4    0    0  0.41807334867E+02 -0.96809406142E+02 -0.11155208255E+03  0.15350498848E+03  0.00000000000E+00 0.  1.
</event>
<event>
12    1  0.8449700E-002  0.2075364E+03  0.7818608E-02  0.1143683E+00
         21   -1    0    0  503  502  0.00000000000E+00  0.00000000000E+00  0.12505497015E+03  0.12505497015E+03  0.00000000000E+00 0.  1.
         21   -1    0    0  501  503 -0.00000000000E+00 -0.00000000000E+00 -0.34436786761E+03  0.34436786761E+03  0.00000000000E+00 0.  1.
          6    2    1    2  501    0  0.39010253399E+02 -0.11398766872E+03 -0.95625285177E+02  0.22782404568E+03  0.16806133444E+03 0.  0.
         24    2    3    3    0    0 -0.30839033884E+02 -0.94615451606E+02 -0.32876963550E+02  0.13183629856E+03  0.79979904933E+02 0.  0.
         -6    2    1    2    0  502 -0.39010253399E+02  0.11398766872E+03 -0.12368761228E+03  0.24159879208E+03  0.16898627877E+03 0.  0.
        -24    2    5    5    0    0 -0.78934199169E+02  0.34756394654E+02 -0.60577588469E+02  0.13261952185E+03  0.80496450742E+02 0.  0.
          5    1    3    3  501    0  0.69849287283E+02 -0.19372217115E+02 -0.62748321627E+02  0.95987747119E+02  0.47000000000E+01 0. -1.
        -11    1    4    4    0    0 -0.11959290243E+02 -0.46995892268E+02 -0.57316946231E+02  0.75079097214E+02  0.00000000000E+00 0.  1.
         12    1    4    4    0    0 -0.18879743640E+02 -0.47619559338E+02  0.24439982682E+02  0.56757201349E+02  0.00000000000E+00 0. -1.
         -5    1    5    5    0  502  0.39923945769E+02  0.79231274067E+02 -0.63110023812E+02  0.10897927024E+03  0.47000000000E+01 0.  1.
         11    1    6    6    0    0 -0.95494189718E+01 -0.50739868978E+01  0.17666936879E+02  0.20713700887E+02  0.00000000000E+00 0. -1.
        -12    1    6    6    0    0 -0.69384780197E+02  0.39830381552E+02 -0.78244525348E+02  0.11190582096E+03  0.00000000000E+00 0.  1.
</event>
<event>
12    1  0.8449700E-002  0.1769604E+03  0.7818608E-02  0.1170917E+00
         21   -1    0    0  501  502  0.00000000000E+00  0.00000000000E+00  0.32804149386E+03  0.32804149386E+03  0.00000000000E+00 0.  1.
         21   -1    0    0  502  503 -0.00000000000E+00 -0.00000000000E+00 -0.11650362876E+03  0.11650362876E+03  0.00000000000E+00 0.  1.
         -6    2    1    2    0  503 -0.20290145928E+02 -0.35348319333E+02  0.10485795389E+02  0.17670764836E+03  0.17162298035E+03 0.  0.
        -24    2    3    3    0    0 -0.42524270278E+02 -0.84051628188E+02  0.17409316666E+02  0.12251914658E+03  0.76386302484E+02 0.  0.
          6    2    1    2  501    0  0.20290145928E+02  0.35348319333E+02  0.20105206971E+03  0.26783747425E+03  0.17220274149E+03 0.  0.
         24    2    5    5    0    0 -0.28990573822E+02  0.70868108569E+02  0.15728707306E+03  0.19281941177E+03  0.81100924907E+02 0.  0.
          5    1    5    5  501    0  0.49280719750E+02 -0.35519789236E+02  0.43764996655E+02  0.75018062483E+02  0.47000000000E+01 0. -1.
        -11    1    6    6    0    0  0.25352391049E+02  0.15219982192E+02  0.69514407962E+02  0.75542335840E+02  0.00000000000E+00 0.  1.
         12    1    6    6    0    0 -0.54342964871E+02  0.55648126376E+02  0.87772665096E+02  0.11727707593E+03  0.00000000000E+00 0. -1.
         -5    1    3    3    0  503  0.22234124350E+02  0.48703308855E+02 -0.69235212776E+01  0.54188501787E+02  0.47000000000E+01 0.  1.
         11    1    4    4    0    0  0.14179988205E+02 -0.14908072257E+01  0.17225285344E+02  0.22360792179E+02  0.00000000000E+00 0. -1.
        -12    1    4    4    0    0 -0.56704258483E+02 -0.82560820962E+02  0.18403132174E+00  0.10015835440E+03  0.00000000000E+00 0.  1.
</event>
<event>
12    1  0.8449700E-002  0.3299572E+03  0.7818608E-02  0.1072013E+00
         21   -1    0    0  501  502  0.00000000000E+00  0.00000000000E+00  0.12675087435E+04  0.12675087435E+04  0.00000000000E+00 0. -1.
         21   -1    0    0  502  503 -0.00000000000E+00 -0.00000000000E+00 -0.11266988654E+03  0.11266988654E+03  0.00000000000E+00 0.  1.
         -6    2    1    2    0  503 -0.69024432272E+02 -0.27429554889E+03  0.23385437152E+03  0.40442505091E+03  0.16990978293E+03 0.  0.
        -24    2    3    3    0    0 -0.80234480938E+02 -0.27221851355E+03  0.17206424256E+03  0.34141640624E+03  0.80115964883E+02 0.  0.
          6    2    1    2  501    0  0.69024432272E+02  0.27429554889E+03  0.92098448546E+03  0.97575357915E+03  0.15453221145E+03 0.  0.
         24    2    5    5    0    0  0.55801957830E+02  0.17152948073E+03  0.75185979946E+03  0.77735764167E+03  0.80346274065E+02 0.  0.
          5    1    5    5  501    0  0.13222474442E+02  0.10276606816E+03  0.16912468600E+03  0.19839593749E+03  0.47000000000E+01 0. -1.
        -11    1    6    6    0    0 -0.91339586063E+01  0.57797167580E+00  0.11237147101E+02  0.14492643860E+02  0.00000000000E+00 0.  1.
         12    1    6    6    0    0  0.64935916436E+02  0.17095150905E+03  0.74062265236E+03  0.76286499781E+03  0.00000000000E+00 0. -1.
         -5    1    3    3    0  503  0.11210048666E+02 -0.20770353390E+01  0.61790128958E+02  0.63008644673E+02  0.47000000000E+01 0.  1.
         11    1    4    4    0    0  0.11954111772E+02 -0.33896616469E+02  0.39999094379E+02  0.53775542279E+02  0.00000000000E+00 0. -1.
        -12    1    4    4    0    0 -0.92188592710E+02 -0.23832189708E+03  0.13206514818E+03  0.28764086396E+03  0.00000000000E+00 0.  1.
</event>
<event>
12    1  0.8449700E-002  0.2013438E+03  0.7818608E-02  0.1148767E+00
         21   -1    0    0  501  502  0.00000000000E+00  0.00000000000E+00  0.42446502254E+03  0.42446502254E+03  0.00000000000E+00 0.  1.
         21   -1    0    0  502  503 -0.00000000000E+00 -0.00000000000E+00 -0.10605327686E+03  0.10605327686E+03  0.00000000000E+00 0. -1.
         -6    2    1    2    0  503  0.42489830367E+02  0.96093023203E+02  0.24398237236E+03  0.31585796868E+03  0.17087891491E+03 0.  0.
        -24    2    3    3    0    0  0.72871598856E+02  0.12401345631E+03  0.20568332758E+03  0.25936452417E+03  0.65381326750E+02 0.  0.
          6    2    1    2  501    0 -0.42489830367E+02 -0.96093023203E+02  0.74429373318E+02  0.21466033073E+03  0.17175584759E+03 0.  0.
         24    2    5    5    0    0 -0.64172045478E+02 -0.12329630149E+03  0.38481560935E+02  0.16441620653E+03  0.78941934713E+02 0.  0.
          5    1    5    5  501    0  0.21682215111E+02  0.27203278283E+02  0.35947812383E+02  0.50244124200E+02  0.47000000000E+01 0. -1.
        -11    1    6    6    0    0 -0.54449910064E+02 -0.62342943685E+02  0.56378929368E+02  0.10014998258E+03  0.00000000000E+00 0.  1.
         12    1    6    6    0    0 -0.97221354142E+01 -0.60953357802E+02 -0.17897368433E+02  0.64266223953E+02  0.00000000000E+00 0. -1.
         -5    1    3    3    0  503 -0.30381768489E+02 -0.27920433105E+02  0.38299044774E+02  0.56493444504E+02  0.47000000000E+01 0.  1.
         13    1    4    4    0    0  0.36295340477E+02  0.11445854301E+03  0.15200213692E+03  0.19370792301E+03  0.00000000000E+00 0. -1.
        -14    1    4    4    0    0  0.36576258379E+02  0.95549132979E+01  0.53681190662E+02  0.65656601161E+02  0.00000000000E+00 0.  1.
</event>
<event>
12    1  0.8449700E-002  0.1799453E+03  0.7818608E-02  0.1168146E+00
         21   -1    0    0  503  502  0.00000000000E+00  0.00000000000E+00  0.67315961362E+03  0.67315961362E+03  0.00000000000E+00 0.  1.
         21   -1    0    0  501  503 -0.00000000000E+00 -0.00000000000E+00 -0.82291544732E+02  0.82291544732E+02  0.00000000000E+00 0.  1.
          6    2    1    2  501    0  0.49099262169E+02  0.11412659445E+02  0.51404713663E+02  0.18714370911E+03  0.17274066380E+03 0.  0.
         24    2    3    3    0    0  0.82807189403E+02  0.27834401359E+02  0.77937244735E+02  0.14097052240E+03  0.78528272311E+02 0.  0.
         -6    2    1    2    0  502 -0.49099262169E+02 -0.11412659445E+02  0.53946335523E+03  0.56830744925E+03  0.17149827666E+03 0.  0.
        -24    2    5    5    0    0 -0.53719020253E+02  0.42419004367E+01  0.14266882326E+03  0.17114954865E+03  0.77679135009E+02 0.  0.
          5    1    3    3  501    0 -0.33707927234E+02 -0.16421741913E+02 -0.26532531072E+02  0.46173186710E+02  0.47000000000E+01 0. -1.
        -11    1    4    4    0    0  0.64537571866E+02 -0.18553544479E+02  0.38524386155E+02  0.77417443278E+02  0.00000000000E+00 0.  1.
         12    1    4    4    0    0  0.18269617536E+02  0.46387945838E+02  0.39412858580E+02  0.63553079118E+02  0.00000000000E+00 0. -1.
         -5    1    5    5    0  502  0.46197580840E+01 -0.15654559882E+02  0.39679453197E+03  0.39715790060E+03  0.47000000000E+01 0.  1.
         11    1    6    6    0    0 -0.39192373571E+02  0.19615017566E+02  0.22749853788E+02  0.49379620367E+02  0.00000000000E+00 0. -1.
        -12    1    6    6    0    0 -0.14526646682E+02 -0.15373117129E+02  0.11991896947E+03  0.12176992828E+03  0.00000000000E+00 0.  1.
</event>
<event>
12    1  0.8449700E-002  0.1771576E+03  0.7818608E-02  0.1170639E+00
         21   -1    0    0  501  502  0.00000000000E+00  0.00000000000E+00  0.13077696124E+02  0.13077696124E+02  0.00000000000E+00 0.  1.
         21   -1    0    0  502  503 -0.00000000000E+00 -0.00000000000E+00 -0.25224103451E+04  0.25224103451E+04  0.00000000000E+00 0. -1.
         -6    2    1    2    0  503 -0.21543720877E+02  0.40418244676E+02 -0.15368004374E+04  0.15469518879E+04  0.17089994918E+03 0.  0.
        -24    2    3    3    0    0 -0.23141212905E+02  0.26906386579E+02 -0.15269707966E+04  0.15295210495E+04  0.80841558951E+02 0.  0.
          6    2    1    2  501    0  0.21543720877E+02 -0.40418244676E+02 -0.97253221165E+03  0.98853615341E+03  0.17113461805E+03 0.  0.
         24    2    5    5    0    0 -0.47938760118E+02 -0.36690607643E+02 -0.42930113627E+03  0.44084664127E+03  0.80012312255E+02 0.  0.
          5    1    5    5  501    0  0.69482480995E+02 -0.37276370335E+01 -0.54323107538E+03  0.54768951214E+03  0.47000000000E+01 0. -1.
        -13    1    6    6    0    0 -0.28612879895E+02 -0.13374704747E+02 -0.42963780996E+02  0.53324160569E+02  0.00000000000E+00 0.  1.
         14    1    6    6    0    0 -0.19325880223E+02 -0.23315902895E+02 -0.38633735527E+03  0.38752248070E+03  0.00000000000E+00 0. -1.
         -5    1    3    3    0  503  0.15974920278E+01  0.13511858097E+02 -0.98296407701E+01  0.17430838411E+02  0.47000000000E+01 0.  1.
         13    1    4    4    0    0  0.27556511233E+02  0.21645909191E+02 -0.45956494916E+03  0.46089895768E+03  0.00000000000E+00 0. -1.
        -14    1    4    4    0    0 -0.50697724139E+02  0.52604773880E+01 -0.10674058474E+04  0.10686220918E+04  0.00000000000E+00 0.  1.
</event>
<event>
12    1  0.8449700E-002  0.2338208E+03  0.7818608E-02  0.1124031E+00
         21   -1    0    0  503  502  0.00000000000E+00  0.00000000000E+00  0.17307040600E+04  0.17307040600E+04  0.00000000000E+00 0.  1.
         21   -1    0    0  501  503 -0.00000000000E+00 -0.00000000000E+00 -0.33798045796E+02  0.33798045796E+02  0.00000000000E+00 0. -1.
          6    2    1    2  501    0 -0.96278389153E+02  0.12483012144E+03  0.62032448204E+03  0.66282159516E+03  0.17227279695E+03 0.  0.
         24    2    3    3    0    0  0.19064683846E+02  0.44662644090E+02  0.28272190423E+03  0.29713260236E+03  0.77446073561E+02 0.  0.
         -6    2    1    2    0  502  0.96278389153E+02 -0.12483012144E+03  0.10765815321E+04  0.11016805106E+04  0.17268487097E+03 0.  0.
        -24    2    5    5    0    0  0.10911749480E+03 -0.35882526766E+02  0.55129952942E+03  0.56874543987E+03  0.79661915867E+02 0.  0.
          5    1    3    3  501    0 -0.11534307300E+03  0.80167477347E+02  0.33760257781E+03  0.36568899280E+03  0.47000000000E+01 0. -1.
        -11    1    4    4    0    0  0.15023820097E+01  0.64673441750E+02  0.19396662224E+03  0.20446995320E+03  0.00000000000E+00 0.  1.
         12    1    4    4    0    0  0.17562301836E+02 -0.20010797661E+02  0.88755281990E+02  0.92662649163E+02  0.00000000000E+00 0. -1.
         -5    1    5    5    0  502 -0.12839105647E+02 -0.88947594671E+02  0.52528200271E+03  0.53293507072E+03  0.47000000000E+01 0.  1.
         13    1    6    6    0    0  0.38522669139E+01 -0.33704760127E+02  0.11336041776E+03  0.11832766004E+03  0.00000000000E+00 0. -1.
        -14    1    6    6    0    0  0.10526522789E+03 -0.21777666387E+01  0.43793911166E+03  0.45041777983E+03  0.00000000000E+00 0.  1.
</event>
<event>
12    1  0.8449700E-002  0.2038367E+03  0.7818608E-02  0.1146740E+00
         21   -1    0    0  501  502  0.00000000000E+00  0.00000000000E+00  0.18311765281E+03  0.18311765281E+03  0.00000000000E+00 0. -1.
         21   -1    0    0  502  503 -0.00000000000E+00 -0.00000000000E+00 -0.27832000033E+03  0.27832000033E+03  0.00000000000E+00 0.  1.
         -6    2    1    2    0  503 -0.47920136682E+02  0.97818356146E+02 -0.14770444352E+03  0.25094807102E+03  0.17115361934E+03 0.  0.
        -24    2    3    3    0    0 -0.21972155577E+02  0.32639984899E+02 -0.22990063084E+01  0.89435381196E+02  0.80282362601E+02 0.  0.
          6    2    1    2  501    0  0.47920136682E+02 -0.97818356146E+02  0.52502096002E+02  0.21048958212E+03  0.17229226273E+03 0.  0.
         24    2    5    5    0    0  0.46863397916E+02  0.11353804763E+02  0.31655823085E+02  0.99240606805E+02  0.80755928309E+02 0.  0.
          5    1    5    5  501    0  0.10567387659E+01 -0.10917216091E+03  0.20846272917E+02  0.11124897532E+03  0.47000000000E+01 0. -1.
        -13    1    6    6    0    0 -0.77091098035E+01 -0.50908098534E+01 -0.20182559997E+02  0.22196451224E+02  0.00000000000E+00 0.  1.
         14    1    6    6    0    0  0.54572507719E+02  0.16444614616E+02  0.51838383082E+02  0.77044155581E+02  0.00000000000E+00 0. -1.
         -5    1    3    3    0  503 -0.25947981105E+02  0.65178371247E+02 -0.14540543722E+03  0.16151268982E+03  0.47000000000E+01 0.  1.
         11    1    4    4    0    0 -0.50815309608E+02  0.80635901052E+01 -0.29573798979E+01  0.51536038573E+02  0.00000000000E+00 0. -1.
        -12    1    4    4    0    0  0.28843154031E+02  0.24576394794E+02  0.65837358946E+00  0.37899342624E+02  0.00000000000E+00 0.  1.
</event>
<event>
12    1  0.8449700E-002  0.2515394E+03  0.7818608E-02  0.1112485E+00
         21   -1    0    0  501  502  0.00000000000E+00  0.00000000000E+00  0.13588615711E+04  0.13588615711E+04  0.00000000000E+00 0.  1.
         21   -1    0    0  502  503 -0.00000000000E+00 -0.00000000000E+00 -0.56154535160E+02  0.56154535160E+02  0.00000000000E+00 0. -1.
         -6    2    1    2    0  503  0.10545002775E+03  0.15041476201E+03  0.35526618435E+03  0.43475275565E+03  0.17044526343E+03 0.  0.
        -24    2    3    3    0    0  0.31835243661E+02  0.44329778698E+02  0.62317203820E+02  0.11457412533E+03  0.79152917102E+02 0.  0.
          6    2    1    2  501    0 -0.10545002775E+03 -0.15041476201E+03  0.94744085160E+03  0.98026335061E+03  0.17183643470E+03 0.  0.
         24    2    5    5    0    0 -0.12101363501E+03 -0.75503985734E+02  0.48032488629E+03  0.50689957367E+03  0.76746528776E+02 0.  0.
          5    1    5    5  501    0  0.15563607257E+02 -0.74910776279E+02  0.46711596530E+03  0.47336377694E+03  0.47000000000E+01 0. -1.
        -11    1    6    6    0    0 -0.98780765232E+02 -0.19348012278E+02  0.27341931990E+03  0.29135907340E+03  0.00000000000E+00 0.  1.
         12    1    6    6    0    0 -0.22232869774E+02 -0.56155973455E+02  0.20690556639E+03  0.21554050027E+03  0.00000000000E+00 0. -1.
         -5    1    3    3    0  503  0.73614784088E+02  0.10608498331E+03  0.29294898053E+03  0.32017863032E+03  0.47000000000E+01 0.  1.
         13    1    4    4    0    0 -0.68379460577E+01  0.53855819849E+02  0.47314855927E+02  0.72013210103E+02  0.00000000000E+00 0. -1.
        -14    1    4    4    0    0  0.38673189719E+02 -0.95260411514E+01  0.15002347893E+02  0.42560915231E+02  0.00000000000E+00 0.  1.
</event>
<event>
12    1  0.8449700E-002  0.2282925E+03  0.7818608E-02  0.1127937E+00
         21   -1    0    0  501  502  0.00000000000E+00  0.00000000000E+00  0.52727994444E+03  0.52727994444E+03  0.00000000000E+00 0.  1.
         21   -1    0    0  502  503 -0.00000000000E+00 -0.00000000000E+00 -0.98636543074E+02  0.98636543074E+02  0.00000000000E+00 0. -1.
         -6    2    1    2    0  503 -0.91948298484E+02  0.11982125711E+03  0.21117861293E+03  0.31098855570E+03  0.17118952061E+03 0.  0.
        -24    2    3    3    0    0 -0.60619238182E+02  0.15217090516E+03  0.16039533853E+03  0.24295150178E+03  0.80424443918E+02 0.  0.
          6    2    1    2  501    0  0.91948298484E+02 -0.11982125711E+03  0.21746478844E+03  0.31492793181E+03  0.17051992487E+03 0.  0.
         24    2    5    5    0    0  0.62373515576E+02  0.21706524209E+00  0.12362255337E+03  0.15964650440E+03  0.79460481389E+02 0.  0.
          5    1    5    5  501    0  0.29574782909E+02 -0.12003832235E+03  0.93842235062E+02  0.15528142741E+03  0.47000000000E+01 0. -1.
        -13    1    6    6    0    0  0.14915947521E+02 -0.37371019802E+02  0.44037189349E+02  0.59651929200E+02  0.00000000000E+00 0.  1.
         14    1    6    6    0    0  0.47457568054E+02  0.37588085044E+02  0.79585364025E+02  0.99994575202E+02  0.00000000000E+00 0. -1.
         -5    1    3    3    0  503 -0.31329060302E+02 -0.32349648043E+02  0.50783274400E+02  0.68037053925E+02  0.47000000000E+01 0.  1.
         11    1    4    4    0    0 -0.61786816009E+01 -0.36434948853E+01 -0.54218935636E+01  0.89915566571E+01  0.00000000000E+00 0. -1.
        -12    1    4    4    0    0 -0.54440556581E+02  0.15581440004E+03  0.16581723209E+03  0.23395994512E+03  0.00000000000E+00 0.  1.
</event>
<event>
12    1  0.8449700E-002  0.2968424E+03  0.7818608E-02  0.1086847E+00
         21   -1    0    0  501  502  0.00000000000E+00  0.00000000000E+00  0.12151658405E+04  0.12151658405E+04  0.00000000000E+00 0.  1.
         21   -1    0    0  502  503 -0.00000000000E+00 -0.00000000000E+00 -0.78912811826E+02  0.78912811826E+02  0.00000000000E+00 0. -1.
         -6    2    1    2    0  503 -0.21999616771E+03 -0.99223912676E+02  0.38327434346E+03  0.48470091150E+03  0.17260374447E+03 0.  0.
        -24    2    3    3    0    0 -0.14825923730E+03 -0.79083957245E+02  0.15030358644E+03  0.24005980986E+03  0.82477090594E+02 0.  0.
          6    2    1    2  501    0  0.21999616771E+03  0.99223912676E+02  0.75297868525E+03  0.80937774086E+03  0.17283439560E+03 0.  0.
         24    2    5    5    0    0  0.18542030348E+03  0.13826472375E+03  0.63510588848E+03  0.68039804659E+03  0.78001214340E+02 0.  0.
          5    1    5    5  501    0  0.34575864232E+02 -0.39040811073E+02  0.11787279677E+03  0.12897969427E+03  0.47000000000E+01 0. -1.
        -11    1    6    6    0    0  0.19312536956E+03  0.13082543524E+03  0.60258781142E+03  0.64616156907E+03  0.00000000000E+00 0.  1.
         12    1    6    6    0    0 -0.77050660800E+01  0.74392885122E+01  0.32518077060E+02  0.34236477514E+02  0.00000000000E+00 0. -1.
         -5    1    3    3    0  503 -0.71736930409E+02 -0.20139955431E+02  0.23297075702E+03  0.24464110165E+03  0.47000000000E+01 0.  1.
         13    1    4    4    0    0 -0.11833173298E+03 -0.29281296828E+02  0.13073592830E+03  0.17875031838E+03  0.00000000000E+00 0. -1.
        -14    1    4    4    0    0 -0.29927504321E+02 -0.49802660417E+02  0.19567658141E+02  0.61309491472E+02  0.00000000000E+00 0.  1.
</event>
<event>
12    1  0.8449700E-002  0.1901714E+03  0.7818608E-02  0.1159506E+00
         21   -1    0    0  501  502  0.00000000000E+00  0.00000000000E+00  0.26127240089E+03  0.26127240089E+03  0.00000000000E+00 0. -1.
         21   -1    0    0  502  503 -0.00000000000E+00 -0.00000000000E+00 -0.13741206675E+03  0.13741206675E+03  0.00000000000E+00 0. -1.
         -6    2    1    2    0  503  0.57480845188E+02  0.56840630974E+02  0.91157316370E+02  0.21089051936E+03  0.17213439498E+03 0.  0.
        -24    2    3    3    0    0  0.84294973343E+02  0.86133943705E+02  0.49127149853E+02  0.15287568904E+03  0.80204742123E+02 0.  0.
          6    2    1    2  501    0 -0.57480845188E+02 -0.56840630974E+02  0.32703017771E+02  0.18779394827E+03  0.16631949598E+03 0.  0.
         24    2    5    5    0    0 -0.49261722915E+02 -0.73999045273E+02  0.74138927760E+02  0.14195739312E+03  0.82175086278E+02 0.  0.
          5    1    5    5  501    0 -0.82191222732E+01  0.17158414299E+02 -0.41435909989E+02  0.45836555159E+02  0.47000000000E+01 0. -1.
        -11    1    6    6    0    0 -0.50590672304E+01  0.17567454537E+02  0.48437795827E+01  0.18912213535E+02  0.00000000000E+00 0.  1.
         12    1    6    6    0    0 -0.44202655685E+02 -0.91566499810E+02  0.69295148177E+02  0.12304517958E+03  0.00000000000E+00 0. -1.
         -5    1    3    3    0  503 -0.26814128155E+02 -0.29293312732E+02  0.42030166517E+02  0.58014830319E+02  0.47000000000E+01 0.  1.
         11    1    4    4    0    0  0.18525142374E+02  0.74878701509E+02  0.34829800530E+02  0.84635192708E+02  0.00000000000E+00 0. -1.
        -12    1    4    4    0    0  0.65769830969E+02  0.11255242196E+02  0.14297349323E+02  0.68240496337E+02  0.00000000000E+00 0.  1.
</event>
<event>
12    1  0.8449700E-002  0.1922326E+03  0.7818608E-02  0.1157156E+00
         21   -1    0    0  503  502  0.00000000000E+00  0.00000000000E+00  0.83195614079E+02  0.83195614079E+02  0.00000000000E+00 0. -1.
         21   -1    0    0  501  503 -0.00000000000E+00 -0.00000000000E+00 -0.85970866620E+03  0.85970866620E+03  0.00000000000E+00 0. -1.
          6    2    1    2  501    0  0.79789582331E+02 -0.28886495334E+02 -0.72041389844E+03  0.74562025844E+03  0.17248935523E+03 0.  0.
         24    2    3    3    0    0  0.65865453203E+02  0.33232323846E+02 -0.27556795428E+03  0.29621772941E+03  0.79778446418E+02 0.  0.
         -6    2    1    2    0  502 -0.79789582331E+02  0.28886495334E+02 -0.56099153675E+02  0.19728402183E+03  0.16903568607E+03 0.  0.
        -24    2    5    5    0    0  0.66257208247E+01 -0.88585933893E+01 -0.12680385987E+02  0.93363014671E+02  0.91834010401E+02 0.  0.
          5    1    3    3  501    0  0.13924129128E+02 -0.62118819180E+02 -0.44484594416E+03  0.44940252904E+03  0.47000000000E+01 0. -1.
        -11    1    4    4    0    0  0.27251160069E+02  0.38079801361E+01 -0.15346021437E+02  0.31505980571E+02  0.00000000000E+00 0.  1.
         12    1    4    4    0    0  0.38614293135E+02  0.29424343710E+02 -0.26022193285E+03  0.26471174884E+03  0.00000000000E+00 0. -1.
         -5    1    5    5    0  502 -0.86415303156E+02  0.37745088723E+02 -0.43418767688E+02  0.10392100716E+03  0.47000000000E+01 0.  1.
         11    1    6    6    0    0 -0.77547191114E+01  0.10936179507E+02  0.36253669066E+02  0.38653126801E+02  0.00000000000E+00 0. -1.
        -12    1    6    6    0    0  0.14380439936E+02 -0.19794772897E+02 -0.48934055053E+02  0.54709887870E+02  0.00000000000E+00 0.  1.
</event>
<event>
12    1  0.8449700E-002  0.1902652E+03  0.7818608E-02  0.1158695E+00
         21   -1    0    0  501  502  0.00000000000E+00  0.00000000000E+00  0.50698160365E+03  0.50698160365E+03  0.00000000000E+00 0.  1.
         21   -1    0    0  502  503 -0.00000000000E+00 -0.00000000000E+00 -0.82389027155E+02  0.82389027155E+02  0.00000000000E+00 0. -1.
         -6    2    1    2    0  503  0.44111274933E+02  0.68402326560E+02  0.10194042824E+03  0.21585338625E+03  0.17197718043E+03 0.  0.
        -24    2    3    3    0    0 -0.22244925255E+02  0.31488966146E+02  0.10813609716E+03  0.13952372102E+03  0.79290992747E+02 0.  0.
          6    2    1    2  501    0 -0.44111274933E+02 -0.68402326560E+02  0.32265214826E+03  0.37351724456E+03  0.16966449349E+03 0.  0.
         24    2    5    5    0    0 -0.84598383415E+02 -0.81091752082E+02  0.28638853297E+03  0.31750503814E+03  0.71121717506E+02 0.  0.
          5    1    5    5  501    0  0.40487108482E+02  0.12689425523E+02  0.36263615294E+02  0.56012206415E+02  0.47000000000E+01 0. -1.
        -13    1    6    6    0    0 -0.29384854939E+02 -0.73001432013E+01  0.21756976134E+02  0.37284417670E+02  0.00000000000E+00 0.  1.
         14    1    6    6    0    0 -0.55213528476E+02 -0.73791608881E+02  0.26463155683E+03  0.28022062047E+03  0.00000000000E+00 0. -1.
         -5    1    3    3    0  503  0.66356200188E+02  0.36913360414E+02 -0.61956689170E+01  0.76329665227E+02  0.47000000000E+01 0.  1.
         11    1    4    4    0    0  0.30921720267E+01 -0.24849091860E+02  0.20819562396E+02  0.32565212612E+02  0.00000000000E+00 0. -1.
        -12    1    4    4    0    0 -0.25337097282E+02  0.56338058006E+02  0.87316534761E+02  0.10695850841E+03  0.00000000000E+00 0.  1.
</event>
<event>
12    1  0.8449700E-002  0.2885855E+03  0.7818608E-02  0.1091260E+00
         21   -1    0    0  501  502  0.00000000000E+00  0.00000000000E+00  0.14683093078E+03  0.14683093078E+03  0.00000000000E+00 0.  1.
         21   -1    0    0  502  503 -0.00000000000E+00 -0.00000000000E+00 -0.60009061398E+03  0.60009061398E+03  0.00000000000E+00 0. -1.
         -6    2    1    2    0  503  0.10034894369E+03 -0.20680043989E+03 -0.31689915639E+03  0.42774164735E+03  0.17234125772E+03 0.  0.
        -24    2    3    3    0    0  0.82293774126E+02 -0.16589048806E+03 -0.32446207137E+03  0.38214668063E+03  0.80427174970E+02 0.  0.
          6    2    1    2  501    0 -0.10034894369E+03  0.20680043989E+03 -0.13636052681E+03  0.31917989741E+03  0.17448576217E+03 0.  0.
         24    2    5    5    0    0 -0.12875296847E+03  0.12283955839E+03 -0.11672306145E+03  0.22827369140E+03  0.82569492639E+02 0.  0.
          5    1    5    5  501    0  0.28404024780E+02  0.83960881502E+02 -0.19637465359E+02  0.90906206015E+02  0.47000000000E+01 0. -1.
        -11    1    6    6    0    0 -0.31917612967E+02  0.77359130695E+02 -0.24963036405E+02  0.87328817157E+02  0.00000000000E+00 0.  1.
         12    1    6    6    0    0 -0.96835355503E+02  0.45480427696E+02 -0.91760025042E+02  0.14094487424E+03  0.00000000000E+00 0. -1.
         -5    1    3    3    0  503  0.18055169564E+02 -0.40909951833E+02  0.75629149709E+01  0.45594966716E+02  0.47000000000E+01 0.  1.
         11    1    4    4    0    0  0.52283848536E+02 -0.35233576170E+02 -0.67809520101E+02  0.92591234595E+02  0.00000000000E+00 0. -1.
        -12    1    4    4    0    0  0.30009925590E+02 -0.13065691189E+03 -0.25665255126E+03  0.28955544604E+03  0.00000000000E+00 0.  1.
</event>
<event>
12    1  0.8449700E-002  0.1795064E+03  0.7818608E-02  0.1168311E+00
         21   -1    0    0  503  502  0.00000000000E+00  0.00000000000E+00  0.10634730994E+04  0.10634730994E+04  0.00000000000E+00 0. -1.
         21   -1    0    0  501  503 -0.00000000000E+00 -0.00000000000E+00 -0.36644095899E+02  0.36644095899E+02  0.00000000000E+00 0. -1.
          6    2    1    2  501    0 -0.42712698431E+02 -0.28391745696E+02  0.28430925649E+03  0.33623548470E+03  0.17202349263E+03 0.  0.
         24    2    3    3    0    0 -0.89667137012E+02 -0.44838334889E+01  0.23475647579E+03  0.26375186143E+03  0.79963374473E+02 0.  0.
         -6    2    1    2    0  502  0.42712698431E+02  0.28391745696E+02  0.74251974706E+03  0.76388171064E+03  0.17189888670E+03 0.  0.
        -24    2    5    5    0    0  0.79503933271E+02  0.65063482054E+02  0.49885113455E+03  0.51469323994E+03  0.74179139220E+02 0.  0.
          5    1    3    3  501    0  0.46954438581E+02 -0.23907912207E+02  0.49552780692E+02  0.72483623273E+02  0.47000000000E+01 0. -1.
        -11    1    4    4    0    0 -0.36057793946E+02  0.22751690301E+02  0.35063095542E+02  0.55201671938E+02  0.00000000000E+00 0.  1.
         12    1    4    4    0    0 -0.53609343066E+02 -0.27235523790E+02  0.19969338025E+03  0.20855018949E+03  0.00000000000E+00 0. -1.
         -5    1    5    5    0  502 -0.36791234840E+02 -0.36671736358E+02  0.24366861251E+03  0.24918847070E+03  0.47000000000E+01 0.  1.
         13    1    6    6    0    0  0.28465509256E+01  0.47626080593E+02  0.16925760535E+03  0.17585358505E+03  0.00000000000E+00 0. -1.
        -14    1    6    6    0    0  0.76657382346E+02  0.17437401460E+02  0.32959352920E+03  0.33883965489E+03  0.00000000000E+00 0.  1.
</event>
<event>
12    1  0.8449700E-002  0.2002181E+03  0.7818608E-02  0.1149588E+00
         21   -1    0    0  503  502  0.00000000000E+00  0.00000000000E+00  0.16630314623E+03  0.16630314623E+03  0.00000000000E+00 0.  1.
         21   -1    0    0  501  503 -0.00000000000E+00 -0.00000000000E+00 -0.93329064635E+03  0.93329064635E+03  0.00000000000E+00 0. -1.
          6    2    1    2  501    0 -0.94222630196E+02 -0.37817127100E+02 -0.85709791246E+03  0.88017277681E+03  0.17256664319E+03 0.  0.
         24    2    3    3    0    0 -0.77108895831E+02  0.42191500074E+02 -0.50547652932E+03  0.51912714616E+03  0.79123749230E+02 0.  0.
         -6    2    1    2    0  502  0.94222630196E+02  0.37817127100E+02  0.90110412338E+02  0.21942101577E+03  0.17238809879E+03 0.  0.
        -24    2    5    5    0    0  0.89468280263E+02 -0.10296528028E+02  0.11358833608E+03  0.16546890222E+03  0.79793833378E+02 0.  0.
          5    1    3    3  501    0 -0.17113734366E+02 -0.80008627173E+02 -0.35162138314E+03  0.36104563065E+03  0.47000000000E+01 0. -1.
        -13    1    4    4    0    0 -0.36093841621E+02  0.19950538494E+02 -0.70660227200E+02  0.81814773098E+02  0.00000000000E+00 0.  1.
         14    1    4    4    0    0 -0.41015054210E+02  0.22240961579E+02 -0.43481630212E+03  0.43731237306E+03  0.00000000000E+00 0. -1.
         -5    1    5    5    0  502  0.47543499337E+01  0.48113655127E+02 -0.23477923745E+02  0.53952113548E+02  0.47000000000E+01 0.  1.
         13    1    6    6    0    0  0.25669341400E+02 -0.36541049175E+02  0.19324085179E+02  0.48657821886E+02  0.00000000000E+00 0. -1.
        -14    1    6    6    0    0  0.63798938863E+02  0.26244521147E+02  0.94264250904E+02  0.11681108033E+03  0.00000000000E+00 0.  1.
</event>
<event>
12    1  0.8449700E-002  0.1949875E+03  0.7818608E-02  0.1154143E+00
         21   -1    0    0  501  502  0.00000000000E+00  0.00000000000E+00  0.31994053756E+03  0.31994053756E+03  0.00000000000E+00 0.  1.
         21   -1    0    0  502  503 -0.00000000000E+00 -0.00000000000E+00 -0.12276582819E+03  0.12276582819E+03  0.00000000000E+00 0.  1.
         -6    2    1    2    0  503 -0.66623422009E+02 -0.60893283455E+02  0.57420632121E+02  0.20280776117E+03  0.17229970014E+03 0.  0.
        -24    2    3    3    0    0 -0.32613545216E+02 -0.59829580832E+02  0.10251773389E+03  0.14611876955E+03  0.78724754556E+02 0.  0.
          6    2    1    2  501    0  0.66623422009E+02  0.60893283455E+02  0.13975407725E+03  0.23989860457E+03  0.17283942270E+03 0.  0.
         24    2    5    5    0    0  0.53829788365E+02 -0.15179768600E+02  0.22669432209E+02  0.99607156456E+02  0.79243996430E+02 0.  0.
          5    1    5    5  501    0  0.12793633644E+02  0.76073052055E+02  0.11708464504E+03  0.14029144812E+03  0.47000000000E+01 0. -1.
        -13    1    6    6    0    0 -0.70854543853E+01 -0.11707119530E+02  0.34804414200E+02  0.37397961968E+02  0.00000000000E+00 0.  1.
         14    1    6    6    0    0  0.60915242751E+02 -0.34726490700E+01 -0.12134981990E+02  0.62209194488E+02  0.00000000000E+00 0. -1.
         -5    1    3    3    0  503 -0.34009876794E+02 -0.10637026229E+01 -0.45097101766E+02  0.56688991616E+02  0.47000000000E+01 0.  1.
         13    1    4    4    0    0 -0.39740186715E+02 -0.29262373149E+02  0.10355612958E+03  0.11471460629E+03  0.00000000000E+00 0. -1.
        -14    1    4    4    0    0  0.71266414988E+01 -0.30567207684E+02 -0.10383956931E+01  0.31404163263E+02  0.00000000000E+00 0.  1.
</event>
<event>
12    1  0.8449700E-002  0.1764644E+03  0.7818608E-02  0.1171298E+00
         21   -1    0    0  503  502  0.00000000000E+00  0.00000000000E+00  0.13392258602E+03  0.13392258602E+03  0.00000000000E+00 0.  1.
         21   -1    0    0  501  503 -0.00000000000E+00 -0.00000000000E+00 -0.29422830639E+03  0.29422830639E+03  0.00000000000E+00 0. -1.
          6    2    1    2  501    0 -0.10549616477E+02  0.37196786248E+02 -0.17829197806E+03  0.25077221754E+03  0.17205749137E+03 0.  0.
         24    2    3    3    0    0 -0.53203746896E+02  0.18322158426E+02 -0.42368117963E+02  0.10699109166E+03  0.80533819610E+02 0.  0.
         -6    2    1    2    0  502  0.10549616477E+02 -0.37196786248E+02  0.17986257682E+02  0.17737867487E+03  0.17217663465E+03 0.  0.
        -24    2    5    5    0    0 -0.49418144727E+02 -0.82042433362E+01  0.34274404497E+02  0.10864663245E+03  0.90110450573E+02 0.  0.
          5    1    3    3  501    0  0.42654130419E+02  0.18874627822E+02 -0.13592386009E+03  0.14378112588E+03  0.47000000000E+01 0. -1.
        -13    1    4    4    0    0 -0.47125616368E+02  0.39673454381E+02 -0.54008199781E+02  0.81924918945E+02  0.00000000000E+00 0.  1.
         14    1    4    4    0    0 -0.60781305289E+01 -0.21351295955E+02  0.11640081818E+02  0.25066172712E+02  0.00000000000E+00 0. -1.
         -5    1    5    5    0  502  0.59967761204E+02 -0.28992542912E+02 -0.16288146815E+02  0.68732042419E+02  0.47000000000E+01 0.  1.
         13    1    6    6    0    0 -0.24379450061E+02 -0.49279202569E+02  0.17392319117E+02  0.57665328885E+02  0.00000000000E+00 0. -1.
        -14    1    6    6    0    0 -0.25038694665E+02  0.41074959233E+02  0.16882085381E+02  0.50981303567E+02  0.00000000000E+00 0.  1.
</event>
<event>
12    1  0.8449700E-002  0.1960586E+03  0.7818608E-02  0.1155209E+00
         21   -1    0    0  501  502  0.00000000000E+00  0.00000000000E+00  0.80842635190E+03  0.80842635190E+03  0.00000000000E+00 0.  1.
         21   -1    0    0  502  503 -0.00000000000E+00 -0.00000000000E+00 -0.46803459410E+02  0.46803459410E+02  0.00000000000E+00 0.  1.
         -6    2    1    2    0  503 -0.88185470278E+02  0.30647074902E+02  0.31285762242E+03  0.36921385927E+03  0.17240377491E+03 0.  0.
        -24    2    3    3    0    0 -0.35515649686E+02  0.55318057686E+02  0.28598764961E+03  0.30497327372E+03  0.83056083939E+02 0.  0.
          6    2    1    2  501    0  0.88185470278E+02 -0.30647074902E+02  0.44876527007E+03  0.48601595204E+03  0.16157140108E+03 0.  0.
         24    2    5    5    0    0  0.11218791118E+03 -0.16846512674E+01  0.26610513208E+03  0.29946366671E+03  0.79231186370E+02 0.  0.
          5    1    5    5  501    0 -0.24002440904E+02 -0.28962423635E+02  0.18266013799E+03  0.18655228533E+03  0.47000000000E+01 0. -1.
        -11    1    6    6    0    0  0.85731788499E+02 -0.36642757198E+02  0.17187357692E+03  0.19553300912E+03  0.00000000000E+00 0.  1.
         12    1    6    6    0    0  0.26456122683E+02  0.34958105931E+02  0.94231555163E+02  0.10393065759E+03  0.00000000000E+00 0. -1.
         -5    1    3    3    0  503 -0.52669820591E+02 -0.24670982784E+02  0.26869972819E+02  0.64240585551E+02  0.47000000000E+01 0.  1.
         11    1    4    4    0    0  0.23815735020E+02  0.87569153956E+01  0.12001853136E+03  0.12267159684E+03  0.00000000000E+00 0. -1.
        -12    1    4    4    0    0 -0.59331384706E+02  0.46561142291E+02  0.16596911825E+03  0.18230167689E+03  0.00000000000E+00 0.  1.
</event>
<event>
12    1  0.8449700E-002  0.1919009E+03  0.7818608E-02  0.1156794E+00
         21   -1    0    0  503  502  0.00000000000E+00  0.00000000000E+00  0.24566049271E+03  0.24566049271E+03  0.00000000000E+00 0. -1.
         21   -1    0    0  501  503 -0.00000000000E+00 -0.00000000000E+00 -0.21877110559E+03  0.21877110559E+03  0.00000000000E+00 0. -1.
          6    2    1    2  501    0  0.32062092944E+02 -0.75075454533E+02 -0.11696468141E+03  0.22459844189E+03  0.17349184916E+03 0.  0.
         24    2    3    3    0    0  0.25395597782E+02 -0.55987157685E+02  0.52227410468E+01  0.10066030635E+03  0.79534407889E+02 0.  0.
         -6    2    1    2    0  502 -0.32062092944E+02  0.75075454533E+02  0.14385406853E+03  0.23983315640E+03  0.17367109201E+03 0.  0.
        -24    2    5    5    0    0 -0.39290200138E+02 -0.18347462105E+02  0.10317826883E+03  0.13757516127E+03  0.80005128888E+02 0.  0.
          5    1    3    3  501    0  0.66664951623E+01 -0.19088296848E+02 -0.12218742246E+03  0.12393813554E+03  0.47000000000E+01 0. -1.
        -11    1    4    4    0    0 -0.20997734035E+02  0.70869013326E+01  0.26511055698E+01  0.22319439192E+02  0.00000000000E+00 0.  1.
         12    1    4    4    0    0  0.46393331817E+02 -0.63074059018E+02  0.25716354770E+01  0.78340867158E+02  0.00000000000E+00 0. -1.
         -5    1    5    5    0  502  0.72281071935E+01  0.93422916638E+02  0.40675799701E+02  0.10225799513E+03  0.47000000000E+01 0.  1.
         13    1    6    6    0    0 -0.36226565914E+02 -0.94049096546E+01  0.11586155443E+03  0.12175679118E+03  0.00000000000E+00 0. -1.
        -14    1    6    6    0    0 -0.30636342243E+01 -0.89425524504E+01 -0.12683285598E+02  0.15818370097E+02  0.00000000000E+00 0.  1.
</event>
<event>
12    1  0.8449700E-002  0.1968491E+03  0.7818608E-02  0.1153196E+00
         21   -1    0    0  503  502  0.00000000000E+00  0.00000000000E+00  0.20387681449E+02  0.20387681449E+02  0.00000000000E+00 0.  1.
         21   -1    0    0  501  503 -0.00000000000E+00 -0.00000000000E+00 -0.19175061163E+04  0.19175061163E+04  0.00000000000E+00 0.  1.
          6    2    1    2  501    0 -0.47661622320E+02 -0.84819280696E+02 -0.78221375444E+03  0.80574450977E+03  0.16703268172E+03 0.  0.
         24    2    3    3    0    0 -0.34171983624E+02  0.11187638735E+02 -0.49251602892E+03  0.50021846979E+03  0.79709416340E+02 0.  0.
         -6    2    1    2    0  502  0.47661622320E+02  0.84819280696E+02 -0.11149046805E+04  0.11321492880E+04  0.17112458403E+03 0.  0.
        -24    2    5    5    0    0  0.38558958981E+02  0.19051821469E+02 -0.28441924014E+03  0.29900081762E+03  0.81593011673E+02 0.  0.
          5    1    3    3  501    0 -0.13489638695E+02 -0.96006919431E+02 -0.28969772552E+03  0.30552603997E+03  0.47000000000E+01 0. -1.
        -13    1    4    4    0    0 -0.12718316205E+02 -0.21360995359E+02 -0.38588510854E+03  0.38668509757E+03  0.00000000000E+00 0.  1.
         14    1    4    4    0    0 -0.21453667420E+02  0.32548634094E+02 -0.10663092038E+03  0.11353337222E+03  0.00000000000E+00 0. -1.
         -5    1    5    5    0  502  0.91026633389E+01  0.65767459227E+02 -0.83048544031E+03  0.83314847040E+03  0.47000000000E+01 0.  1.
         13    1    6    6    0    0 -0.23132207498E+02 -0.57766458113E+01 -0.10449669307E+03  0.10718221645E+03  0.00000000000E+00 0. -1.
        -14    1    6    6    0    0  0.61691166479E+02  0.24828467280E+02 -0.17992254707E+03  0.19181860117E+03  0.00000000000E+00 0.  1.
</event>
